
105502  0.0000000e+00
  46.1933327  47.7559233  54.2932272  46.3492775  47.7327347  53.2956123
  46.8148994  48.4559107  54.6723986  45.2737045  48.0995131  54.5305681
  46.5849924  46.4568615  54.9393034  46.5548420  46.5872049  56.0210609
  45.5485535  45.4018974  54.6139097  45.6007338  45.1597071  53.5524368
  45.7483578  44.5026875  55.1966619  44.1116905  45.7487631  54.8351717
  43.7057638  46.9056463  54.7650433  43.2724667  44.8109150  55.2087212
  42.3443079  45.1989603  55.2984238  43.5121822  43.8460302  55.3865767
  47.9493952  45.9899426  54.5292521  48.4752178  46.4327812  53.4851551
  48.6326408  45.2027988  55.3712940  48.0966759  44.6559191  56.0299015
  50.1045942  44.9296856  55.3067446  50.2814150  44.9458551  54.2313004
  50.9096909  45.9781122  56.0055733  50.3559875  46.8888903  55.7775640
  50.8557940  45.9010696  57.0915127  52.3541451  46.0884714  55.5329132
  52.7664280  45.1030779  55.3158522  52.6385593  47.0009518  54.3849182
  52.3046780  48.0125666  54.6156979  53.6745691  47.1249104  54.0696144
  52.1190882  46.6018629  53.5137224  53.3059645  46.5344572  56.6369629
  54.2877817  46.5856266  56.1662960  53.0640221  47.5383186  56.9860125
  53.3327293  45.7990456  57.4410486  50.4561710  43.4808302  55.8050346
  50.6153584  43.2638264  57.0314932  50.5638266  42.5384283  54.9151373
  50.4450321  42.8471184  53.9608288  51.2393188  41.2358904  55.0218248
  51.2650299  40.9833670  56.0818577  50.5262518  40.1511955  54.1683388
  50.4720402  39.2383432  54.7615147  49.4871807  40.4593134  54.0521336
  51.1968517  39.9688768  52.9670763  50.7019854  40.5320597  52.3674679
  52.7186251  41.3008070  54.7596455  53.2289219  42.3390675  54.3174887
  53.4902573  40.2060986  55.0144720  53.0924034  38.9734650  55.6523657
  52.7571297  38.3150649  54.8509884  52.2936106  39.2294812  56.3484192
  54.3224239  38.4438133  56.3634682  54.2796135  37.3650455  56.5135670
  54.4329214  39.0914488  57.2332144  55.3573942  38.7917662  55.2661467
  55.1908684  38.1843877  54.3765020  56.4015818  38.7728214  55.5782700
  54.9338770  40.1594591  54.7312737  55.3940344  40.9128284  55.3706455
  55.4510880  40.5104542  53.3348036  56.5262032  41.1680508  53.2674170
  54.7339869  40.1694012  52.2732353  53.8063717  39.7945476  52.4115038
  55.0246811  40.5888224  50.8850765  56.0992956  40.4747295  50.7426357
  54.1436434  39.7143054  49.8932457  54.3727493  38.6615038  50.0582218
  53.0892801  39.9787331  49.9737978  54.3673038  39.8836780  48.4343433
  54.3142366  40.9319115  48.1402349  55.7629681  39.3348932  48.0173397
  56.5353346  39.9407816  48.4911060  55.9842825  38.3473873  48.4222507
  56.0696411  39.3485093  46.9714594  53.4543133  38.9453673  47.6059151
  52.3855925  39.0692949  47.7807760  53.5108137  39.2180967  46.5521002
  53.7899590  37.9171991  47.7412367  54.7058535  42.0894480  50.6504440
  55.5081940  42.7333975  50.0762272  53.6841965  42.6978350  51.2181997
  53.0206633  42.1626997  51.7599154  53.5379076  44.2263079  51.1652613
  53.6364460  44.4985342  50.1144123  52.0761538  44.6795940  51.3761854
  51.7762518  44.5562363  52.4168348  52.0388317  45.7648993  51.2822819
  51.0793543  43.9426088  50.4430294  50.2521849  44.6524620  50.4442644
  51.4254189  43.9351606  49.4094467  50.4896164  42.5761223  50.8304787
  50.0621796  41.7963266  49.9405766  50.3151417  42.3671389  52.0771742
  54.5856380  44.9539423  52.0031977  55.1933384  45.9275913  51.5795374
  54.8795223  44.4582224  53.1807423  54.3969679  43.6344147  53.5102510
  55.9777975  44.9826574  54.0477800  55.6974173  45.9669685  54.4227695
  56.1688185  44.1558886  55.2728653  55.2459383  44.0715599  55.8467007
  56.5594482  43.1738853  55.0060654  57.2053432  44.7071123  56.1102247
  57.7269030  43.9974070  56.4921856  57.2935581  45.1413488  53.2411528
  57.8598118  46.1938238  53.0951309  57.7471447  44.0049267  52.6750517
  57.1289730  43.2102489  52.7553701  58.8731623  43.8620377  51.7362499
  59.7179747  44.1809511  52.3467302  59.0923309  42.4141932  51.3690853
  59.6865368  41.9417953  52.1512985  58.1517982  41.8697071  51.2852335
  59.8652029  42.1369267  50.0679731  59.4252396  42.6953697  49.2417288
  61.2992001  42.6620960  50.1254606  61.8920946  42.0370340  50.7932043
  61.8779135  42.7254200  49.2039490  61.3817120  43.6860847  50.4898024
  59.9821043  40.6297731  49.6486235  59.0127134  40.2372980  49.3414688
  60.6322479  40.4152346  48.8004589  60.3061676  40.0359583  50.5033016
  58.7029600  44.7559595  50.5429316  59.6607351  45.4375362  50.1745939
  57.5157881  44.8370504  49.9525213  56.7236042  44.2800808  50.2394533
  57.2759533  45.6690121  48.8011026  58.0130625  45.4390717  48.0317450
  55.8610058  45.4783392  48.2749653  55.1284122  45.6060982  49.0718889
  55.6182289  46.1778975  47.4751043  55.7545328  44.4433784  47.9499769
  57.5993824  47.1673012  49.1168976  58.2505322  47.7848673  48.3074141
  57.1754456  47.6152039  50.2852964  56.6155958  47.0614719  50.9177923
  57.5633621  48.9575958  50.6507015  57.3534346  49.6442270  49.8305988
  56.9055033  49.3585920  51.9439697  55.8827019  48.9951801  52.0435190
  57.4885178  48.9104414  52.7485561  56.7811966  50.8379507  52.0603418
  57.4491262  51.6292763  53.0130053  58.1076002  51.3042307  53.8049316
  57.1831322  52.9143810  52.7170086  57.6827717  53.6289549  53.2267618
  56.4256954  53.0793333  51.6321564  56.0075045  54.2130423  50.9415770
  56.4369535  55.1777983  51.1679173  55.1845455  54.1352034  49.7877359
  54.9466467  55.0473738  49.2607164  54.7265863  52.7978659  49.3988037
  54.1297388  52.6097584  48.5185814  55.2161980  51.6604757  50.1034498
  54.9437189  50.6890249  49.7181606  56.0549593  51.7539406  51.2307930
  59.0808010  49.0836954  50.8531904  59.6343994  50.0750017  50.3918648
  59.7458601  48.0617714  51.3442993  59.1777802  47.2541237  51.5566492
  61.2245131  48.0129576  51.4124250  61.6129112  48.9114046  51.8920422
  61.6528130  46.9069529  52.3677015  61.1979008  45.9376049  52.1639347
  62.6965094  46.6847324  52.1453857  61.3009501  47.3376751  53.7859011
  61.5850401  48.3678627  54.0006256  60.2281046  47.1887636  53.9080572
  62.1176815  46.5561771  54.8483610  62.8523779  45.6330776  54.5513773
  62.0388174  46.9031096  56.1549091  62.5985098  46.4456463  56.8602991
  61.4599848  47.6937914  56.3996029  61.8968344  48.0032539  49.9591732
  62.8226900  48.7234926  49.6691656  61.3461161  47.2372055  49.0133667
  60.4401064  46.8751526  49.2744541  61.7652845  47.1619272  47.5850964
  62.7885437  46.7931223  47.5142145  60.9981871  46.0341215  46.8201017
  59.9363422  46.0361671  47.0662451  61.0629272  46.1549616  45.2609396
  60.4064798  45.4348326  44.7724867  60.6835794  47.1678400  45.1257420
  62.0384073  46.2408304  44.7822285  61.5712452  44.6237516  47.1998310
  61.4531851  43.8857937  46.4063692  62.6101065  44.7267962  47.5132799
  60.9072590  44.2289257  47.9688120  61.6317415  48.5931063  47.0215225
  62.5355816  48.9916325  46.3197517  60.5002689  49.3221092  47.2831392
  59.7403288  48.8413572  47.7430010  60.3779030  50.7276440  46.8316984
  60.5126715  50.6669855  45.7517624  59.0687084  51.3029814  47.2956467
  58.2330227  50.6186247  47.1494102  59.1568708  51.4055681  48.3772278
  58.9363623  52.6915550  46.6957569  59.8707581  53.2457304  46.7845774
  58.6516285  52.5521660  45.6528711  57.8376818  53.4643936  47.3979282
  56.9744158  52.7989435  47.4047756  58.1796217  53.6986446  48.4060478
  57.4278545  54.8083925  46.7302704  56.9505501  54.5571661  45.7830811
  56.7212391  55.2257967  47.4476099  58.6401653  55.7177687  46.6413116
  59.3796158  55.3385544  46.0672855  58.3734179  56.5949154  46.2175608
  58.9484453  55.8885670  47.5878286  61.5317011  51.6200209  47.4233437
  62.1471262  52.4116278  46.6942930  61.8827438  51.4433002  48.7098312
  61.3333464  50.8047581  49.2670774  62.8869200  52.3514986  49.3521023
  62.6901054  53.3985662  49.1218472  62.8126383  52.1140671  50.8544588
  62.9636097  51.0775995  51.1561966  63.5655355  52.7060270  51.3748741
  61.2175894  52.7120638  51.4954805  60.4622412  51.7771673  50.9121180
  64.2903423  52.0336914  48.8541126  65.0555944  52.9813623  48.5907888
  64.6544123  50.7327843  48.7022257  64.1062212  49.9626589  49.0578938
  65.8872080  50.2020979  48.1001472  66.7312288  50.4547596  48.7419319
  65.6739807  48.6443996  48.0187321  65.7970572  48.1813335  48.9977741
  64.6812630  48.3175373  47.7092552  66.6231441  47.9013681  47.0902729
  66.4669895  48.3868361  46.1269236  68.0099344  48.0172396  47.5635052
  68.6660910  47.4353361  46.9162464  68.3249712  49.0600491  47.5259399
  68.2245016  47.5418854  48.5206318  66.1553907  46.4589310  46.7604971
  66.0590029  45.8395958  47.6522541  65.2624273  46.5864563  46.1485672
  66.9468880  46.0663843  46.1221123  66.2301207  50.8512926  46.7262793
  67.2868824  51.4358521  46.4533997  65.2356863  50.8442497  45.8294201
  64.4512939  50.2689171  46.1011219  65.2516890  51.3581133  44.4332457
  66.1809301  50.9218121  44.0668488  64.1025877  50.8175802  43.6368179
  63.2197714  50.8814812  44.2729425  63.9748144  51.4664888  42.7703953
  64.2660618  49.3602657  43.2003689  64.5399475  48.7999249  44.0942955
  62.9319572  48.8123178  42.7029514  62.1424866  48.9928293  43.4325075
  62.6219749  49.3591690  41.8124676  63.0984211  47.7375793  42.6299524
  65.2979803  49.2238379  42.1032429  66.2454796  49.2256832  42.6420784
  65.2013350  48.2612514  41.6010666  65.3390121  50.0930214  41.4467859
  65.5578709  52.8149605  44.1529799  66.0052538  53.1218481  43.0460548
  65.4847860  53.6335421  45.2194071  65.0265217  53.3583689  46.0763645
  65.8666706  55.0394821  45.2131414  65.2635527  55.7361078  44.6308470
  65.6234264  55.3852797  46.6280222  64.5492125  55.2727365  46.7746449
  66.1838293  54.6989536  47.2628450  65.9240246  56.8528414  47.1214485
  66.9638348  57.0510769  46.8614531  65.3261328  57.4978924  46.4776039
  65.7644606  57.1877623  48.6380911  66.1144114  58.2090330  48.7885475
  64.7821999  57.0523834  49.0907860  66.7546272  56.3435555  49.5022202
  67.5982285  55.9777784  48.9168596  67.0473194  57.0616627  50.2682161
  66.0663939  55.2596617  50.2364111  65.9627247  54.4182777  49.6873808
  66.6053057  54.9590635  51.0359812  65.1621485  55.5913973  50.5403757
  67.2721529  55.2699089  44.7713518  67.4809217  56.3338995  44.2088890
  68.1896353  54.3759203  45.2126980  67.7786732  53.5745001  45.6697989
  69.6051931  54.4173431  44.9141121  69.9452257  55.4481030  44.8140001
  70.4353666  53.6398363  45.9737873  70.3039408  52.5592422  45.9176683
  71.5026712  53.8282633  45.8577824  70.0645590  53.9464855  47.3675585
  70.4990482  55.1733780  47.8969860  70.9534740  55.9814119  47.3429251
  70.2287054  55.5081415  49.2556620  70.5388260  56.4777231  49.6164131
  69.5621157  54.6496153  50.1124525  69.5011139  54.9229622  51.4602041
  68.7234402  54.4958115  51.8267632  69.1529226  53.3998680  49.6060562
  68.6828756  52.7041817  50.2853870  69.3385315  53.0994511  48.2482100
  69.0583849  52.0997715  47.9506111  70.0584984  53.8705254  43.5376501
  71.1112595  54.2434597  42.9574680  69.2832661  53.0042934  42.8764391
  68.3006811  52.9553318  43.1049967  69.6195984  52.5558949  41.4987040
  70.6729937  52.2868443  41.4207602  68.6799240  51.3450909  41.1449003
  67.6323795  51.6125822  41.2834597  68.7790632  51.0218430  40.1086617
  68.8631678  50.3177595  42.0477915  69.7995567  50.1067877  42.0639801
  69.3542099  53.7087488  40.5478764  68.2110643  54.0657187  40.3190088
  70.3651047  54.4460964  40.1109076  71.2668467  54.4163418  40.5648613
  70.0879192  55.6830931  39.2492604  69.2273283  56.1931992  39.6820116
  71.3606787  56.5752125  39.3173814  71.2105179  57.4872923  38.7397408
  71.7159653  56.9938469  40.7269192  72.0462036  56.0661268  41.1942291
  72.5359011  57.7115440  40.7538414  70.7979202  57.3109007  41.2216568
  72.4466610  56.0375977  38.7123251  72.2809124  56.0185909  37.7669334
  69.6701908  55.2872133  37.9221392  69.2671156  56.0990143  37.1057439
  69.7968864  54.0118361  37.5763369  70.1359129  53.3378410  38.2478166
  69.3209076  53.3366919  36.4319539  69.7214174  53.6655569  35.4730201
  69.6890259  51.8365955  36.6202521  69.3204451  51.2241793  35.7973313
  71.1915874  51.6159248  36.6238070  71.4832830  51.9888735  37.6056027
  71.3809729  50.5473423  36.7256451  71.7667770  52.1199894  35.8471632
  69.0812397  51.3165760  37.7591896  69.1034031  50.3630543  37.6500726
  67.8200817  53.3744717  36.3452244  67.4205399  53.2920408  35.2163172
  67.1590853  53.3967972  37.5158882  67.7301407  53.3951950  38.3489537
  65.7185459  53.1551647  37.6811552  65.4168892  52.3884964  36.9674873
  65.3299713  52.7008247  39.0748143  66.0173225  51.9586086  39.4807339
  65.3644657  53.5762596  39.7232938  63.9429808  52.0539331  39.1849494
  62.9736757  52.4576759  40.0042391  63.0981398  53.3079815  40.6583786
  61.8915129  51.6567421  39.9282646  61.0615635  51.8316507  40.4766178
  62.1315336  50.5002689  39.1309571  61.4521027  49.3200397  38.9361930
  60.5659628  49.1587353  39.5321298  62.2084856  48.3706617  38.3111978
  61.8057537  47.3707533  38.3774638  63.4534264  48.5672140  37.7490044
  63.9858341  47.6717615  37.4642229  64.1403341  49.7314930  37.9767418
  65.2018929  49.8171091  37.7974272  63.4599257  50.7664776  38.6866021
  64.8925638  54.3862915  37.2708559  65.1734018  55.4379559  37.7905488
  63.8429976  54.2651701  36.4706326  63.7753391  53.3294058  36.0966492
  62.8407907  55.2443838  36.1386681  63.1275558  56.2310219  36.5025544
  62.8482628  55.2813435  34.5422411  62.5863218  54.2941761  34.1614604
  62.1367788  56.0761929  34.3184042  64.1894054  55.8091164  34.0003157
  64.5139456  56.7257214  34.4928813  64.9489307  55.0618124  34.2300129
  64.1014910  56.0862207  32.4705839  63.9363861  55.1338816  31.9667053
  63.2211447  56.7044830  32.2949529  65.3700686  56.7549038  31.8649769
  65.5386829  57.7842855  32.1812797  66.2079477  56.0739613  32.0145750
  65.1164675  56.7881775  30.3870940  64.4037104  57.4701071  30.1701736
  65.9598684  56.9944334  29.8711181  64.6996021  55.9102678  30.1121330
  61.4320326  54.7934389  36.6233516  60.6473541  54.0605021  35.9669280
  61.1166143  55.1652479  37.8895330  61.9383144  55.9731770  38.8211846
  62.3696947  56.8903685  38.4202337  62.7590370  55.4124832  39.2685556
  60.9181213  56.3413334  39.8965096  60.2803993  57.1910191  39.6526861
  61.4760351  56.5948153  40.7979488  60.0286007  55.1013041  39.9465823
  59.0821743  55.2823305  40.4560995  60.5824661  54.3080664  40.4486942
  59.8502111  54.7918177  38.4824252  59.8094273  53.7057829  38.3989334
  58.6082268  55.5489874  37.9800916  58.7885761  56.6310024  37.4317384
  57.4041367  54.9991274  38.1309485  57.3761845  54.0860367  38.5617447
  56.1921692  55.6255579  37.6899958  56.2734938  55.8579350  36.6281629
  55.0326443  54.6384811  37.8018022  55.1931381  53.9029503  37.0135546
  55.0561047  54.2639065  38.8251495  53.6518431  55.2024364  37.5343370
  53.3797693  55.9968376  38.2293200  53.6215115  55.7998848  36.1504698
  52.5721407  55.9140730  35.8786654  54.0588093  56.7974806  36.1913848
  54.0742350  55.1284361  35.4208803  52.5490856  54.2143583  37.7750254
  52.6628494  53.5154247  36.9463754  52.6690006  53.6336613  38.6896372
  51.6419268  54.8101568  37.8759360  56.0940695  56.9015789  38.5093641
  56.1359978  56.9793415  39.7908020  55.7989216  57.9832506  37.8340530
  55.5832100  57.8690052  36.8539929  55.4827404  59.3111610  38.4831953
  56.3252783  59.5607996  39.1281033  55.3260994  60.3578758  37.3589778
  56.2957859  60.3881216  36.8620944  54.6093798  60.0608683  36.5933394
  55.0675917  61.8668699  37.6787972  54.4557142  62.2233105  38.7292600
  55.3977251  62.6975584  36.7204690  55.0345755  63.6297083  36.8594623
  55.8658075  62.4228811  35.8686757  54.1484690  59.2523432  39.3247890
  53.1252050  58.8226843  38.8356018  54.0496254  59.7564793  40.5338001
  55.2962160  60.0951052  41.3170910  55.7316637  61.0728025  41.1107254
  56.0475016  59.3143702  41.1982727  54.9476433  60.0960112  42.7814054
  55.4310417  60.8421516  43.4120417  55.0260019  59.0882778  43.1893778
  53.4993124  60.5038500  42.6594496  53.3464479  61.5802145  42.5808430
  52.9831219  60.1339436  43.5453510  52.9185390  59.7996807  41.4368343
  52.6450348  58.7734032  41.6818857  51.7282248  60.5924129  40.9163857
  50.6504679  60.4478836  41.4151478  51.9502354  61.4067602  39.8595071
  52.9147053  61.5687656  39.6072078  50.9872580  62.1873569  39.1122842
  50.2060556  62.4576569  39.8227525  51.5488005  63.4738255  38.5861921
  52.3564100  63.3023405  37.8745341  50.7386875  64.0659523  38.1605053
  52.0664692  64.5134783  39.6210003  51.4017725  65.4335070  40.0467253
  53.2224369  64.3185902  40.2353430  53.4500217  64.8769426  41.0456276
  53.7093592  63.4740257  39.9713016  50.3020525  61.3481426  38.0656981
  49.2833853  61.7785311  37.5859237  50.8267355  60.2152777  37.5553131
  51.7443037  60.0052166  37.9214454  50.0783253  59.0757132  36.9449878
  50.0467730  59.1883802  35.8612847  50.8450127  57.7677011  37.0068169
  51.6893244  57.9175949  36.3339305  51.1851645  57.4166059  37.9810500
  49.9608421  56.7181444  36.6273761  49.9855757  56.6935444  35.6680083
  48.6822605  58.8719130  37.5342035  48.5059023  58.8128376  38.7486935
  47.7269125  58.7640381  36.6115022  48.0156851  59.0039158  35.6738591
  46.3071966  58.6229992  36.7815566  45.8383417  59.4263840  37.3497534
  45.6606865  58.8190222  35.3613973  44.5969009  59.0522575  35.4068494
  46.1211729  59.7372675  34.9968672  45.6944036  57.6877546  34.4176149
  46.7843246  57.3272324  33.7593603  47.6960468  57.9060316  33.7718487
  46.5261030  56.1583138  33.0062699  47.2303247  55.6056833  32.5385427
  45.2296209  55.7569265  33.1753969  44.4397497  54.6978378  32.7556276
  44.9333715  53.9306307  32.1775866  43.1711674  54.4039249  33.3214188
  42.6849985  53.4542179  33.1538010  42.6992655  55.2451944  34.3504167
  41.7424202  55.0462723  34.8100662  43.3917904  56.3746262  34.8119116
  42.9498863  56.9187307  35.6335378  44.6705723  56.6384649  34.2190123
  45.8942556  57.2829103  37.3673296  44.8645782  57.1174860  37.9881644
  46.7663860  56.3126707  37.3801255  47.6922417  56.4944744  37.0197964
  46.5946531  54.9960995  38.1087422  45.6143808  54.6350288  37.7976322
  47.6164055  53.8970423  37.6086164  48.6219025  54.2578125  37.8252292
  47.3799038  53.0298662  38.2252002  47.5946331  53.6485624  36.1182451
  47.8181505  54.5358706  35.5259466  48.7378311  52.7408266  35.7776427
  48.5646009  51.7392397  36.1712265  48.7939930  52.6088810  34.6971178
  49.6627378  53.1373835  36.1964488  46.2428284  53.1279707  35.7266164
  46.2539625  52.8514576  34.6723342  45.8984804  52.2394848  36.2558818
  45.4481173  53.8660240  35.8353233  46.5059805  55.0615692  39.6080899
  45.5983591  54.4849968  40.1394129  47.3141432  55.8705378  40.2590847
  48.0737543  56.4069271  39.8649096  47.1747160  56.0924101  41.6770077
  47.2329187  55.1120806  42.1499443  48.3204937  56.8997812  42.2938538
  48.2559633  57.9539633  42.0243311  48.1643581  56.9855118  43.3692026
  49.6336031  56.2790966  41.9955397  50.1307487  55.2093887  42.7377987
  49.4278240  54.8180914  43.4583426  51.4231968  54.7764635  42.4522400
  51.8309450  53.9665556  43.0389166  52.2032547  55.3750563  41.4592171
  53.5076618  54.9302435  41.2396383  53.5618544  53.9758396  41.1514473
  51.7346621  56.4854717  40.7232904  52.3054218  56.9063234  39.9087238
  50.4708815  56.8766689  40.9861803  50.0361729  57.6138735  40.3274250
  45.8438730  56.7928267  41.9083500  45.1167488  56.3446093  42.7940416
  45.5092144  57.8534937  41.2444115  46.2228203  58.2136631  40.6270361
  44.3652105  58.6605263  41.3456106  44.2971277  58.6641550  42.4334717
  44.6213055  60.1029778  40.6897211  44.7498417  60.0218344  39.6103716
  43.7147999  60.6701851  40.9009743  45.8469296  60.6877708  41.3556528
  45.9599209  60.8261108  42.7282524  47.2754240  60.9057808  42.9884863
  47.7019358  60.8464718  43.9789248  48.0071402  60.8725548  41.8868876
  48.9563894  60.5293608  41.9222498  47.1044016  60.7017851  40.8464432
  47.3917770  60.4596329  39.8339343  43.0273819  57.9158115  40.9017515
  41.9875288  58.2211828  41.4916754  43.0636263  56.8463278  40.0631285
  43.9247990  56.5564919  39.6221304  41.9551992  55.9598494  39.8003078
  41.0251856  56.5216780  39.8870683  42.0734501  55.5536413  38.2790875
  41.4329958  54.6824408  38.1415129  41.8366051  56.4396715  37.6900578
  43.1224203  55.3896666  38.0323720  41.8147373  54.7926378  40.8530807
  40.8946943  53.9799738  40.8290911  42.8280020  54.6452856  41.7522240
  43.5539055  55.3474760  41.7422676  42.9381037  53.7199545  42.9029608
  43.6882210  54.1828442  43.5441780  41.5247965  53.6618662  43.7414074
  40.7665825  53.1881666  43.1178522  41.7887211  53.0635309  44.6134377
  40.8854103  54.9345779  44.1645145  40.6921768  55.5677366  43.2985640
  39.9325085  54.7226143  44.6494532  41.7389917  55.7747936  45.1759195
  41.4102077  55.7317734  46.2142658  42.7300978  55.3248501  45.1180029
  41.8402529  57.2343683  44.7566986  42.6153755  57.1093607  44.0006161
  40.9549570  57.6617336  44.2858362  42.4479246  58.1672621  45.7129860
  41.9103384  58.0948544  46.5649605  43.4345341  57.9870892  45.8323336
  42.1702003  59.0734243  45.3639364  43.3660221  52.2968769  42.4745989
  43.3724308  51.3436508  43.2299995  43.6165905  52.1197176  41.1504364
  43.4080172  52.9590225  40.6287384  44.2049170  50.9450197  40.4605246
  43.6631346  50.0128222  40.6204653  44.2700481  51.1523008  38.8924932
  45.0819445  51.8497419  38.6863279  44.5093775  50.2838469  38.2788014
  42.8828764  51.7315769  38.3919883  42.9085541  52.8008986  38.6017346
  42.8794575  51.5906620  36.8615818  43.7621975  52.1072054  36.4846730
  42.9215384  50.5339622  36.5975165  41.9788504  52.0863962  36.4992929
  41.6063452  51.0549164  38.8724947  41.6294003  49.9755955  38.7220407
  41.4721394  51.1985159  39.9446273  40.7751989  51.4973688  38.3233714
  45.5954313  50.6534100  40.9889030  46.1439753  49.5562410  40.8156872
  46.2805557  51.6109133  41.5643263  45.7814932  52.4880743  41.6045666
  47.4497700  51.4734840  42.3879385  47.6557302  50.4399300  42.6662159
  48.6993837  52.0996857  41.7534113  48.4837627  53.1475925  41.5448475
  49.5934010  51.8927193  42.3416376  49.0309811  51.6225672  40.3519869
  48.1314898  51.7454958  39.7487450  50.0589323  52.5391245  39.6769047
  51.0119200  52.5183964  40.2055693  50.1051760  52.2218800  38.6351180
  49.7602224  53.5849667  39.7482014  49.5170879  50.1688957  40.2409697
  49.6453333  49.8836660  39.1967916  50.4850626  50.0177097  40.7187414
  48.7740612  49.5162439  40.6992865  47.1330214  52.1658802  43.7655830
  46.5972805  53.2983637  43.8178349  47.3740625  51.4548683  44.8352289
  47.6133871  50.4985380  44.6155357  46.9466925  51.7228079  46.2043715
  46.5491199  52.7295542  46.3328362  45.8167696  50.7861042  46.6310978
  44.9536800  50.9800339  45.9942579  46.0959816  49.7382402  46.5210199
  45.4251432  51.0527754  48.0565023  45.5373383  52.2306252  48.5172606
  44.8288298  50.1900244  48.7238884  48.1624317  51.5721369  47.1065569
  48.4503841  50.4644632  47.4763870  48.8146591  52.6550436  47.5987053
  48.7212229  53.9201403  47.0286655  47.9028559  54.3818521  47.5811100
  48.4468889  53.9962959  45.9765053  49.9911356  54.6452665  47.3284578
  49.9277544  55.7321167  47.3817587  50.6344175  54.4590712  46.4684439
  50.4809570  53.9356041  48.6057615  50.0091314  54.4841814  49.4209528
  51.5678644  53.9080620  48.6830997  49.8398924  52.5525618  48.6103201
  50.6675529  51.9349146  48.2616091  49.3698597  52.1720839  50.0254631
  50.1660681  51.7281961  50.8558702  48.0375338  52.3180532  50.2734852
  47.4754095  52.5686312  49.4726562  47.4600697  51.9022942  51.5135908
  48.1037712  52.3691988  52.2590780  46.0191393  52.4801207  51.6897249
  46.0616302  53.5668755  51.7622614  45.4686785  52.1065187  50.8262968
  45.3844976  52.0062160  52.8506088  45.0589943  51.1132956  52.7151680
  47.5716829  50.3569365  51.8401098  47.8047419  50.0875950  53.0414867
  47.4713898  49.4931793  50.7800627  47.1234465  49.8861933  49.9171734
  47.9742861  48.1206226  50.8056021  48.3579445  47.8469133  51.7884588
  46.8821812  47.0157385  50.5578089  46.4000940  47.1761465  49.5934629
  47.3900509  45.6227255  50.5807209  46.5785360  44.9280357  50.7973957
  47.8331900  45.5076885  49.5915270  48.1830072  45.4984474  51.3182020
  45.8730698  47.1116018  51.5637493  45.4040146  47.9395390  51.4368439
  49.0142632  47.8986788  49.6943855  48.7469721  47.4610472  48.6015368
  50.3381968  47.9903555  50.0498438  50.9026384  48.4905672  51.2781954
  50.8125305  47.7554512  52.0779371  50.3909779  49.4104481  51.5612507
  52.3219919  48.9451599  51.0996675  52.9193211  48.0693722  51.3532352
  52.5400591  49.8324251  51.6940594  52.2683096  49.3489885  49.6308088
  53.2509136  49.5095253  49.1871643  51.7458820  50.2906132  49.4619703
  51.3336134  48.3482409  48.9506149  50.8403397  48.8303518  48.1065989
  51.9897366  47.0864964  48.3544636  53.2055140  46.9027901  48.5375357
  51.1386728  46.2513971  47.7354622  50.1725054  46.5344238  47.8162289
  51.5753889  45.2882004  46.6660261  52.5588322  44.9071693  46.9412518
  50.6495476  44.0770531  46.6592932  50.3868961  43.7313175  47.6590824
  49.4051027  44.0821695  45.7285595  48.6671400  44.6324301  46.3122797
  49.6224833  44.5980692  44.7933054  48.9969921  43.0764055  45.6286192
  51.4548349  42.8347492  46.1454487  50.9242296  41.8844032  46.2037992
  51.6819859  42.9164267  45.0825167  52.3641825  42.7563810  46.7412996
  51.6772032  46.0298729  45.3018856  52.2766590  45.4923296  44.3481874
  51.1818504  47.2419024  45.1984167  50.6089163  47.5639868  45.9652948
  51.2268400  48.1299877  44.0489435  50.5089569  47.7737856  43.3101130
  50.6597281  49.4943333  44.3149900  50.4239702  50.0502491  43.4075308
  49.7551107  49.2946434  44.8893595  51.4992905  50.3804445  45.2281666
  51.9994736  50.0335884  46.4153004  52.6514673  51.0670614  46.8545914
  53.1662321  50.9109592  47.7911043  52.6123762  52.0682716  45.9853363
  52.8347349  53.0416346  46.1377239  51.8705702  51.6697788  44.9372196
  51.7290497  52.1900082  44.0014172  52.5999880  48.4149170  43.4921408
  52.7671814  48.5310268  42.2875690  53.6484909  48.3161402  44.3140793
  53.4726191  48.1783628  45.2990580  55.0766945  48.3307552  43.9027405
  55.3038454  49.2846155  43.4266472  55.9453821  48.2549858  45.2220154
  55.7004738  47.3457670  45.7710648  57.4792862  48.0940294  44.9232006
  58.0165005  47.8469753  45.8388758  57.7217293  47.3257589  44.1889715
  57.8011274  49.0394163  44.4864416  55.6443787  49.3596935  46.2569284
  54.6520805  49.2071390  46.6813898  56.3115358  49.2273426  47.1086836
  55.6838322  50.8275509  45.7924557  55.3457165  51.4401150  46.6282463
  56.6350365  51.1528635  45.3711748  54.9036551  50.8839321  45.0333500
  55.3289032  47.1437502  42.9223967  55.8496761  47.3720694  41.8240309
  54.9391985  45.9326887  43.3257151  54.3823338  45.7566500  44.1497421
  55.0148487  44.7878933  42.4179125  56.0067177  44.6547318  41.9859838
  54.8535633  43.5344648  43.3310556  53.8169050  43.4853268  43.6642504
  55.1091909  42.7343750  42.6363516  55.7996750  43.5680580  44.5765114
  55.3876495  44.2746925  45.2969360  55.9365797  42.1467972  45.2100182
  56.3697004  42.3361540  46.1921835  54.9749422  41.6384745  45.2804565
  56.3918447  41.5432167  44.4248199  57.2760916  43.9800024  44.3922424
  57.8141642  43.6829805  45.2924395  57.7303076  43.4476614  43.5565376
  57.3108959  45.0536728  44.2075205  53.9796829  44.8346567  41.2480402
  54.3183756  44.4884396  40.1420450  52.7787399  45.4123163  41.4164686
  52.4363565  45.5815935  42.3514652  51.8516397  45.7154179  40.3050327
  51.4907265  44.7602797  39.9235201  50.5278206  46.5161705  40.8259678
  50.6857014  47.5082350  41.2490225  49.9535179  46.6850519  39.9150538
  49.6349096  45.5854797  41.6131926  49.4769812  44.7078276  40.9863853
  50.1081848  45.2655077  42.5414896  48.2446241  46.1741447  42.0928860
  47.6083469  45.4109859  42.5410318  48.4809494  46.8956232  42.8750086
  47.4602842  46.9037962  41.1023569  47.3585129  47.8850842  41.3187361
  47.0098639  46.5806818  39.9143600  47.0693731  45.3711796  39.5048666
  47.3072624  44.6081161  40.1223183  46.8184042  45.0711250  38.5736942
  46.4961290  47.4787712  39.0622759  46.3988829  48.4025145  39.4589400
  45.9676456  47.1054792  38.2867408  52.5621033  46.5200663  39.1875935
  52.4673843  46.2077236  38.0092907  53.2957745  47.5891829  39.5061445
  53.3815670  47.9191828  40.4568481  53.9775944  48.4585619  38.5087538
  53.1632948  48.8639879  37.9082131  54.4865894  49.7168827  39.1680121
  55.2375937  49.4100189  39.8959732  55.1229095  50.2275801  38.4452438
  53.5563803  50.7357883  39.8067760  52.9355907  51.1915779  39.0354276
  52.8005886  50.2128649  40.3928137  54.2519331  51.8213463  40.7040644
  55.4742908  52.0542288  40.4662657  53.5707331  52.4463892  41.5575171
  55.0925016  47.7267408  37.6805258  55.0104713  47.7438498  36.4485288
  56.0157919  47.1380377  38.4457183  56.0548592  47.3600483  39.4302440
  57.0280933  46.1986351  37.8883505  57.6921606  46.7530107  37.2251892
  57.8293896  45.5951071  39.1450047  57.1472549  45.3154469  39.9478650
  58.5361671  44.3067360  38.8991427  58.8973093  43.8367128  39.8138881
  57.7541685  43.6542130  38.5108304  59.2939281  44.3768501  38.1187677
  58.9600134  46.5832186  39.6710992  59.8997688  46.4850140  39.1276717
  58.5121202  47.5552797  39.4647479  59.1765165  46.4990997  41.1597586
  59.6556425  47.4277258  41.4699173  58.2099056  46.5793705  41.6570759
  59.8313999  45.6619930  41.4015770  56.4497519  45.0930405  36.9982910
  56.8648195  44.8432016  35.8753848  55.3553963  44.5298624  37.5263190
  55.0981045  44.7913504  38.4673452  54.5247793  43.5230494  36.7870450
  55.1936913  42.7460957  36.4169121  53.7764978  43.0960798  37.4547744
  53.9043283  44.0235043  35.4567242  53.8203001  43.3143997  34.4786906
  53.5240221  45.2665710  35.4335237  53.6327505  45.7445765  36.3165832
  52.9387331  46.0321808  34.2949629  52.3691702  45.2712202  33.7614465
  51.9049931  47.0020103  34.9502373  52.4561834  47.5961828  35.6791067
  51.5271568  47.6393652  34.1507888  50.6835127  46.3568020  35.5949116
  50.9208870  45.4864454  36.2066627  49.8569441  47.3296309  36.4977789
  49.4591522  48.0941153  35.8303785  49.0252829  46.7255306  36.8604088
  50.4809237  47.7364922  37.2935271  49.6633101  45.8530474  34.5558476
  50.0375414  44.9992752  33.9909363  48.7595940  45.5555677  35.0877380
  49.4416046  46.5522385  33.7495732  53.9773417  46.7552042  33.3852291
  53.5265779  47.2407436  32.3077369  55.2642632  46.8900204  33.7513304
  55.5101204  46.5315533  34.6630073  56.3256073  47.6194668  33.1025553
  57.2256136  47.3256111  33.6426830  56.4770603  47.2298288  31.6185546
  55.5984449  47.3612070  30.9869862  57.1846104  47.8800106  31.1040330
  56.9289589  45.7889652  31.4517021  57.7389240  45.5233049  32.1310234
  56.0814238  45.1351643  31.6574430  57.2988129  45.4370594  29.9928737
  57.0193577  44.3884039  29.8912573  56.7779207  46.0308361  29.2417431
  58.7399912  45.5178213  29.7989035  59.3132734  44.9317646  30.3888059
  59.3263769  45.8712578  28.6337972  58.6603451  46.3459778  27.5887823
  57.6828718  46.5530348  27.7363348  59.2508793  46.6722727  26.8371797
  60.5557013  45.5157518  28.4968638  61.0987568  44.9400568  29.1243744
  60.9464598  45.7481241  27.5949717  56.2563133  49.1355801  33.3483171
  57.0249033  49.8873758  32.7344942  55.4617310  49.6300983  34.2497969
  55.0604486  48.9151859  34.8396873  55.3544092  51.0463858  34.6322393
  55.4237938  51.5660477  33.6766052  54.0687561  51.3242054  35.4421830
  54.1573954  51.1554098  36.5153790  53.8384819  52.3895645  35.4326272
  52.7745485  50.6009054  34.8900342  52.9791069  49.5311403  34.9331474
  51.6110468  50.8442163  35.8361125  51.3134575  51.8926239  35.8165479
  50.8225393  50.1713705  35.4990149  51.7778349  50.5832052  36.8811750
  52.5443363  50.9966707  33.4429073  53.4026527  51.0051632  32.7710986
  51.7350626  50.3838253  33.0459237  52.1271372  51.9953680  33.3139038
  56.5094519  51.6642570  35.3710914  56.7169476  52.8421402  35.2776980
  57.2700262  50.7709408  35.9373927  56.7595816  49.9062300  36.0461330
  58.5181522  51.1074829  36.6798902  58.8103342  52.1376467  36.4761949
  58.3637524  50.9897327  38.2376623  58.0243349  49.9963045  38.5309124
  59.2576885  51.2305832  38.8129663  57.4153662  51.9769192  38.4670424
  56.7976189  51.8976784  39.1975975  59.5839548  50.0314569  36.3323808
  59.3092394  48.8201952  36.4029264  60.7306385  50.5456829  35.8531284
  60.9005022  51.5338612  35.9745646  61.6832113  49.9093199  34.9855661
  61.8216181  48.9160490  35.4126048  61.1887074  49.7027063  33.5624766
  61.8031836  49.0272093  32.9673147  60.2306080  49.1836882  33.5901737
  60.9750938  50.9153271  32.7553296  61.8267250  51.5719032  31.8784857
  61.1650276  52.6787233  31.4232898  61.6564989  53.4343815  30.8284354
  59.9890995  52.7404118  32.0656300  59.3634701  53.5326338  32.0328283
  59.8369980  51.6498661  32.8556800  59.0526056  51.3795519  33.5471010
  63.1357956  50.3916025  34.9756455  63.3726406  51.5441418  35.3618717
  64.0091753  49.5100212  34.5337486  63.6234140  48.6017227  34.3186212
  65.4790640  49.5570898  34.4920635  65.8184576  50.2505350  35.2615094
  65.9526443  48.1175375  34.8124766  65.9311867  47.4536991  33.9482045
  65.4206181  47.7589035  35.6936288  67.7202988  48.2720423  35.2512193
  66.0569382  50.0563288  33.1680369  66.1749506  49.2673922  32.2430587
  66.7765951  51.1892843  33.1911206  66.7894697  51.7360401  34.0402365
  67.7055979  51.5717602  32.1036029  67.3650646  51.1165762  31.1735797
  67.8518105  53.1328249  31.9976377  68.3948278  53.3685207  31.0823870
  66.8455553  53.5377598  31.8900037  68.5182142  53.7725973  33.0228758
  68.0495167  53.6354303  33.8493824  69.1418409  50.9531689  32.2451806
  70.0467300  51.3439894  31.5102339  69.3898058  49.8958015  32.9990625
  68.6776686  49.4243193  33.5381961  70.6544828  49.0680647  32.8548717
  71.4059114  49.5745182  32.2490978  71.2795162  48.6587906  34.2338181
  71.6566515  49.5816374  34.6745205  70.5894089  48.2332134  34.9623346
  72.5185347  47.8109360  34.0973544  73.7926149  48.2465172  33.8379979
  74.5261002  47.1440506  34.0469480  75.6001377  47.0750237  34.1369081
  73.7634087  46.1048079  34.3114805  74.0443087  45.1564884  34.5161438
  72.4591875  46.5243387  34.3828630  71.5600204  46.0183668  34.7020578
  70.2538395  47.8157520  32.0750451  70.8199978  47.6617193  31.0018039
  69.3352413  46.9889593  32.4821115  68.8264132  47.2603321  33.3112955
  68.8376713  45.8696890  31.7467356  69.6389484  45.2122545  31.4093423
  67.9738617  45.1858568  32.8387380  67.4424553  44.4138479  32.2822094
  67.2031736  45.8280039  33.2650995  69.0244484  44.5081902  34.1998410
  68.0726671  46.2143040  30.4648924  68.1723118  45.4685211  29.4432187
  67.1867466  47.2374916  30.4683328  66.8730259  47.5665569  31.3702178
  66.3392258  47.4980736  29.2553711  66.8095398  47.0696878  28.3702779
  65.0221872  46.8096304  29.4265604  64.5344067  47.2444439  30.2989745
  64.0762091  47.0084953  28.2189178  63.4317589  47.8498650  28.4736538
  64.6068764  47.2104597  27.2884870  63.3239126  46.2220144  28.1588817
  65.0596762  45.3104830  29.6817327  65.4425478  45.2875948  30.7020211
  64.0801525  44.8372555  29.6132588  65.7186127  44.8221684  28.9637804
  66.2454224  49.0440559  28.9370275  65.1678944  49.7239923  28.9110088
  67.3172855  49.6735907  28.5082459  68.5943508  49.0263414  28.2428551
  68.5698175  48.1697798  27.5692105  69.0146399  48.6696672  29.1831970
  69.4168043  50.0988770  27.5378513  69.1477680  49.9498749  26.4921379
  70.5018520  50.0557375  27.6322913  68.8973427  51.4709616  27.9479599
  69.0298176  52.2469091  27.1939969  69.3859816  51.8705463  28.8365889
  67.4453926  51.1612654  28.3320022  67.2598124  51.6159439  29.3051052
  66.5761471  51.7884731  27.2766495  66.2724590  53.0249786  27.3202467
  66.0588884  50.9886789  26.2942743  66.2953997  50.0082779  26.3488460
  64.9824715  51.4430571  25.3527498  65.0482273  52.5290537  25.4190612
  65.2524805  51.0046864  23.8801336  65.1547575  49.9195623  23.8475323
  64.5882845  51.5282917  23.1925488  66.7159224  51.2715197  23.3357644
  67.4210167  50.7905197  24.0136886  66.8013287  50.7919312  22.3606753
  66.9251680  52.7883005  23.2572818  66.2488937  53.3406162  22.6048207
  66.8145466  53.2891273  24.2190695  68.4106445  53.0165863  22.7973628
  68.6096430  54.0867949  22.8535795  69.0252495  52.6427078  23.6162496
  68.6436605  52.6007795  21.4030671  68.4096766  51.6349840  21.2225270
  68.0788136  53.1614542  20.7812166  69.6214819  52.6721144  21.1604166
  63.6423349  51.0303640  25.8663654  63.1315231  49.9931002  25.4948354
  63.0685472  51.9911718  26.5531468  63.5844660  52.8126955  26.8342686
  61.6399813  51.9712067  26.9130111  61.0752153  51.6526127  26.0368562
  61.4091873  50.9323931  28.0649900  62.0013142  50.0756979  27.7431846
  62.1120930  51.1983538  28.8544774  60.0373697  50.7085180  28.6424565
  59.8540783  51.6364002  29.1842556  58.8587141  50.4329109  27.6384068
  58.4617138  51.3887978  27.2966909  59.2415333  49.8458719  26.8035769
  57.9643297  49.9740219  28.0598378  60.0758266  49.5036364  29.6042061
  60.9128618  49.8071718  30.2329636  59.1806078  49.3593311  30.2090669
  60.3418970  48.5738039  29.1014934  61.1267567  53.3715534  27.2947240
  61.8559217  54.0942192  27.9859161  59.9516487  53.7209606  26.7200208
  59.3961048  52.9758310  26.3247371  59.3664503  55.0136995  26.8622160
  60.1003456  55.7940006  27.0637989  58.6806679  55.4099369  25.5169272
  59.3256807  55.1866341  24.6671104  57.8295374  54.7681236  25.2894068
  58.2538652  56.8886518  25.4849792  57.4530840  56.9724369  24.7502494
  57.8863382  57.2348595  26.4509845  59.5065641  57.7818823  25.1220655
  59.8020124  58.6415958  25.9794402  60.2502394  57.4692106  24.1471004
  58.3415937  54.9731493  27.9797316  57.3747873  54.2053461  27.9090476
  58.3819246  55.8817339  28.9604688  59.5625830  56.5364790  29.3601584
  59.6341705  57.4286509  28.7380624  60.4638338  55.9280062  29.2852688
  59.4501019  56.9234991  30.8290458  60.0310755  57.8097057  31.0843968
  59.7784567  56.0171080  31.3377094  57.9807138  57.1109295  30.9430838
  57.6543283  58.0716658  30.5448890  57.6205826  56.9709206  31.9623017
  57.4258995  56.0925484  30.0355482  57.2899675  55.1666832  30.5944753
  56.0062599  56.4560509  29.6259046  55.8465576  57.2483540  28.6538839
  55.0002718  55.9431267  30.2580428  55.0811863  55.5668068  31.1918187
  53.6363697  56.3350582  29.9306679  53.5145617  56.2458563  28.8511753
  52.5390863  55.2968693  30.5113816  51.5616083  55.5887461  30.1273966
  52.7964926  53.9832354  29.8007464  52.9612923  54.1488552  28.7360787
  53.7828016  53.5770559  30.0250506  52.0745277  53.2012320  30.0359941
  52.4171734  55.0085545  32.0079732  53.1467390  54.2086411  32.1343684
  52.5994730  55.9504509  32.5253630  51.0975075  54.4762707  32.5222111
  51.1982107  54.2866898  33.5908628  50.3663731  55.2636051  32.3387885
  50.7860136  53.5796881  31.9862795  53.2626677  57.7212095  30.3874612
  53.8912487  58.2383537  31.3331056  52.5344610  58.4911203  29.5310330
  51.8765068  57.9759264  28.3089399  51.4421368  57.0060539  28.5513687
  52.5161886  57.7687454  27.4510455  50.8467054  58.9487743  27.8854156
  49.8880196  58.5787439  28.2488704  50.8786154  59.1256046  26.8103290
  51.1960220  60.2700806  28.5803986  50.3006601  60.8188963  28.8723516
  51.6526127  60.9828424  27.8936696  51.9986534  59.8298931  29.8032403
  52.8386831  60.5059242  29.9627090  51.0649252  59.7925425  31.0402203
  50.3697729  58.7713766  31.2984276  51.1085749  60.8457851  31.8603301
  51.4324427  61.7002201  31.4300346  50.6328344  60.8708382  33.2768965
  50.9077120  59.9091625  33.7101698  51.1490631  62.0146275  34.1455698
  51.2138081  62.9391479  33.5718322  50.4128313  62.2609997  34.9106622
  52.4915361  61.7962170  34.8618722  52.6268673  62.6039648  35.5811286
  52.4506378  60.8733606  35.4404616  53.6104155  61.7195654  33.7822413
  54.3526268  60.6904507  33.8519764  53.7836456  62.5785923  32.9376245
  49.0495062  60.8884096  33.3014131  48.5647297  60.2212524  34.1948318
  48.3273411  61.4202833  32.3195386  48.7847710  61.9127274  31.5656447
  46.8947172  61.6950369  32.4486470  46.4341116  61.0115480  33.1619453
  46.7233562  63.1289673  33.0258536  47.5284100  63.3463955  33.7277913
  46.8215466  63.8264608  32.1940112  45.4538345  63.3467865  33.7637424
  44.2551994  63.7158012  33.2996058  44.1002417  63.9593697  32.2589040
  43.3835030  64.0447378  34.3360233  42.5165081  64.5415926  34.1892123
  44.0280485  63.7354708  35.5408835  43.5528708  63.7568045  36.9018412
  42.5688028  64.1223383  37.1556067  44.3546534  63.2465649  37.9523253
  44.0209436  63.3219957  38.9767003  45.5738831  62.7300882  37.6873660
  46.2232494  62.2667074  38.4153771  46.0346937  62.6970339  36.3421059
  47.0172691  62.3175716  36.1034584  45.2925825  63.1989527  35.2526903
  46.1523438  61.6334867  31.1076808  46.5166426  62.2473383  30.0965667
  45.0284338  60.8490372  30.9896493  44.5927715  59.8675203  31.9821525
  43.9452362  60.3307009  32.7266383  45.4634380  59.3786478  32.4192381
  43.6154318  58.9046288  31.3634038  42.8793383  58.5379744  32.0788288
  44.1166830  58.0151081  30.9818244  43.0915117  59.7631598  30.2650499
  42.2129011  60.3056002  30.6141973  42.8375196  59.2538261  29.3354416
  44.1197109  60.8089304  29.9047899  44.6524763  60.5188322  28.9991856
  43.4707117  62.1907091  29.5994902  43.1656599  62.9147053  30.5425477
  43.2914162  62.6045656  28.3466172  43.5826969  61.8458509  27.1438551
  43.1170559  60.8606577  27.1697998  44.6725512  61.8621588  27.1364427
  43.2597208  62.7317715  25.9081149  42.3782253  62.2834492  25.4497743
  44.1189909  62.7559137  25.2379084  42.9163694  64.1287041  26.3641834
  41.9972420  64.4711971  25.8887935  43.7965012  64.7559643  26.2227082
  42.7146053  63.9136362  27.8828430  43.3034992  64.6479988  28.4324050
  41.2022924  64.0009069  28.3517957  40.6863356  62.9717636  28.7484932
  40.6046629  65.2202606  28.2549214  41.1879015  66.0365057  28.1379914
  39.1996980  65.5569744  28.6480165  39.0994024  65.2990246  29.7022939
  38.9363575  67.0680571  28.4056926  39.1912985  67.2970200  27.3709512
  37.9049063  67.3435020  28.6255550  39.5501781  68.0656958  29.4544435
  40.5621099  67.6991081  29.6268153  39.3933964  69.4270468  28.7191486
  40.0370407  69.4904327  27.8417659  38.3566189  69.5355511  28.4006858
  39.6719623  70.2450514  29.3834972  38.6772442  67.9153109  30.7302356
  38.6055636  66.9178820  31.1639380  39.1108418  68.5497808  31.5032434
  37.7004552  68.3747625  30.5789638  38.1851363  64.5934296  27.9609108
  37.1702170  64.1560555  28.5052729  38.5739517  64.2293596  26.7008543
  39.3590236  64.7448683  26.3293433  37.9086852  63.3281183  25.8022904
  36.9483852  63.7756777  25.5461287  38.7529016  63.3141184  24.5060182
  38.3497763  62.5207567  23.8766003  38.8249564  64.2901468  24.0261436
  39.7949314  63.0369806  24.6656132  37.7595472  61.9461966  26.3502955
  36.8991113  61.2037992  25.8282495  38.6495090  61.5728998  27.3236895
  39.2997694  62.2813368  27.6325393  38.7964606  60.1986551  27.7663660
  38.0678725  59.6254778  27.1930146  40.1884842  59.6505260  27.5212717
  40.8805656  60.1697493  28.1842375  40.2678108  58.6133385  27.8469324
  40.6709909  59.7983837  26.2221980  40.1383114  59.2566156  25.6353903
  38.4703040  59.9705839  29.2252636  38.2836246  58.8194466  29.5737481
  38.4793925  60.9526682  30.0605273  38.8784313  61.8518257  29.8316598
  38.2871103  60.8964634  31.5188336  37.6972985  60.0266027  31.8079305
  39.6621442  60.8060169  32.1572590  39.5361924  60.3556871  33.1418610
  40.1945639  60.1592684  31.4598775  40.4619646  62.4265003  32.1454501
  41.5101004  62.0511961  31.4069057  37.5122881  62.0590496  32.1538711
  37.2256303  61.8954277  33.3514094  37.1940684  63.1143618  31.4127755
  37.6755309  63.2747746  30.5395293  36.4633036  64.2571068  31.9371629
  36.1685252  64.7117853  30.9913969  35.5220795  63.9014149  32.3563099
  37.0377684  65.2083349  32.9010868  36.3016534  66.0857296  33.3841634
  38.3351660  65.0691175  33.2944274  38.8473916  64.3106604  32.8672647
  38.9273000  65.8297348  34.3271589  38.2889867  66.6468477  34.6632814
  39.1673279  64.9457121  35.6096125  39.6577692  64.0267324  35.2886033
  39.9300122  65.6483889  36.6583490  39.5146418  66.6380596  36.8483949
  39.8932385  65.1836395  37.6436210  40.9654713  65.7732964  36.3416052
  37.8617668  64.4829178  36.3390279  37.1748042  64.0243816  35.6277442
  38.0674601  63.8463545  37.1995997  37.4502277  65.3681993  36.8238139
  40.2811384  66.3650799  33.8358498  41.0582829  65.5834961  33.3237314
  40.5929613  67.6925611  34.0103960  39.6658492  68.7391472  34.3876052
  39.5654655  68.8470316  35.4675984  38.7044501  68.7041378  33.8751745
  40.3363132  69.9518347  33.7871265  40.1604271  70.9101677  34.2757630
  40.0304222  69.9187565  32.7414513  41.8408680  69.7488642  33.8917875
  42.2043467  70.2850533  34.7684193  42.3172235  70.0489235  32.9584336
  41.9939613  68.2050848  34.0833831  42.5850296  67.9163790  33.2142496
  42.8201914  67.8902674  35.3362918  42.3128128  67.7923632  36.4752626
  44.1524315  67.6477385  35.2320910  44.9873686  67.7998734  34.0050817
  45.1522064  68.8312054  33.6931682  44.5821714  67.1831131  33.2028794
  46.4454508  67.3097610  34.4324017  47.0124674  68.1828117  34.7554779
  46.9281816  66.6987181  33.6697078  46.2146950  66.5307665  35.7076859
  47.1221733  66.5230131  36.3114405  45.9587812  65.5234861  35.3790450
  44.9050522  67.0989513  36.3225484  44.3284941  66.3044119  36.7962456
  45.0934315  68.1567907  37.3924232  45.9152174  68.9930105  37.1768904
  44.4229460  68.0194283  38.5778046  43.7787819  67.2433615  38.6313891
  44.5190477  68.9270115  39.7131276  43.7254810  68.5431671  40.3542280
  45.8863688  68.7666845  40.3040504  46.6124153  69.2734861  39.6683526
  45.8792162  69.2744303  41.2685394  46.3846159  67.3487329  40.4751015
  45.8452463  66.4629173  41.5107155  45.1037264  66.8173075  42.2113991
  46.4107609  65.2420235  41.6758633  46.0068274  64.4893646  42.3367357
  47.3903990  64.7389984  40.7910299  47.7570105  63.7272358  40.8822727
  47.9111242  65.5508423  39.7846603  48.7367916  65.2116013  39.1767240
  47.4592781  66.8802786  39.6501756  48.0356359  67.5766230  39.0591431
  44.0208530  70.3685522  39.5045185  44.4668102  71.2965631  40.1020384
  43.0079079  70.5061388  38.6467409  42.7390432  69.6676254  38.1520629
  42.2743368  71.6801929  38.2025027  42.0903635  72.3743057  39.0225458
  42.9185867  72.3409557  36.9663668  43.2294226  71.4727545  36.3852358
  42.1517277  72.9403448  36.4757013  44.1992855  73.0817795  37.3233032
  44.2012262  73.5693169  38.2981944  45.0901842  72.4550581  37.2830153
  44.5200062  74.1719389  36.3605642  44.0703440  74.2163420  35.2405119
  45.3523397  75.1090193  36.6774130  45.4524088  75.8534050  36.0021544
  45.9370613  75.0094748  37.4949026  40.9009218  71.3109493  37.7162123
  40.6895161  70.1654720  37.2575116  39.9576426  72.3022318  37.8307056
  40.2505970  73.1870985  38.2196689  38.5407352  72.0295715  37.5460649
  38.4296823  70.9467363  37.6030540  37.6726985  72.6186323  38.6617422
  38.0668235  73.5568094  39.0523696  36.7285395  72.9058027  38.1989288
  37.4700212  71.6618204  39.8930454  36.6544223  70.9637165  39.7044992
  38.3678675  71.1027861  40.1565742  37.1287918  72.6393461  41.0583258
  38.0171371  73.1531096  41.4257336  36.4118028  73.4175730  40.7968187
  36.4999485  71.7015409  42.1017456  35.4997945  71.4304495  41.7636633
  37.1141291  70.8015490  42.0718002  36.4675736  72.2887611  43.4442282
  37.1953011  72.9679298  43.6152506  35.6147480  72.7401114  43.7426710
  36.5417528  71.5605354  44.1401386  38.1602693  72.4585962  36.1878705
  38.5821009  73.5544109  35.7781625  37.4193025  71.7090797  35.3594112
  36.6647840  70.5186367  35.5743217  35.9887576  70.7848167  36.3868713
  37.1833301  69.7065449  36.0839462  35.8517623  70.1661158  34.2819476
  34.8002076  70.4120827  34.4297004  35.9548664  69.1175985  34.0025115
  36.4920592  70.9849167  33.2491612  35.7439446  71.2813187  32.5139284
  37.2337437  70.3957033  32.7098680  37.0798349  72.1564531  33.9769292
  37.9924250  72.2841024  33.3947062  36.1294460  73.3622313  33.9022374
  35.1306105  73.4168196  34.6390462  36.4215231  74.2788601  32.9828501
  37.3721695  74.2296124  32.6452899  35.4729223  75.2745581  32.3678803
  34.7313237  75.6149530  33.0905581  36.1451054  76.4723396  31.8626285
  36.6402912  76.0933447  30.9686184  35.3564763  77.1338987  31.5041566
  37.1436262  77.3234367  32.6959872  37.9415727  76.7370653  33.1515598
  37.7659488  78.5077858  31.9424057  38.5685277  78.2179403  31.2642026
  37.0068860  79.0824890  31.4117074  38.3598375  79.1701937  32.5721812
  36.4732051  77.9202747  33.9453936  35.8239055  78.7602520  33.6985087
  36.0554147  77.1526623  34.5967984  37.2594309  78.3708906  34.5511127
  34.6268129  74.5907736  31.2805462  33.5729074  75.1158428  30.9765244
  35.1473308  73.6379957  30.5250025  36.0786891  73.4839010  30.8840680
  34.4317269  72.9252911  29.4453716  34.3108916  73.5637856  28.5702562
  35.1979041  71.6599941  28.9430594  35.0428963  70.7739544  29.5586967
  34.5762110  71.1863852  27.6577187  35.2180886  70.4111767  27.2392178
  33.5191941  70.9203339  27.6632142  34.6057916  72.0122766  26.9469953
  36.5348244  71.9061422  28.6226368  36.9239235  72.1428013  29.4677401
  33.0656123  72.4765062  29.9024677  32.8466821  72.0357370  31.0705972
  32.0089269  72.5903368  29.0451074  32.0928431  73.0781317  28.1647015
  30.5997133  72.3097706  29.4314551  30.4707098  72.9243898  30.3223538
  29.7075915  72.8642416  28.2979703  28.6695576  72.8351116  28.6292458
  29.9574947  73.9144278  28.1470990  29.8207140  72.1208763  27.1422863
  29.1694021  72.5547743  26.5862942  30.5073166  70.8350992  29.7458220
  31.0485673  69.9612665  29.0625286  29.5711660  70.5258322  30.6627536
  28.9260793  71.4315987  31.5399075  28.4603381  72.2219372  30.9512210
  29.5904541  71.7333746  32.3496222  27.8056502  70.6037474  32.1497297
  26.9620299  70.8386087  31.5006948  27.4610281  70.9049463  33.1389785
  28.2229209  69.1543961  32.0905995  27.3627019  68.4920359  31.9936395
  28.7974024  68.9771605  32.9998136  29.2004108  69.1366911  30.8940887
  30.0453186  68.4889889  31.1280060  28.6226940  68.5183811  29.6118569
  29.0918541  67.4120188  29.2506528  27.8447914  69.2406034  28.7559748
  27.3747087  70.0691223  29.0916562  27.4617887  68.7343884  27.3967862
  26.9013548  67.8077650  27.5208282  26.7275429  69.7795296  26.4610314
  27.4076581  70.6064415  26.2566566  26.5903449  69.2775583  25.5032730
  25.5733156  70.2619743  27.0867038  25.7356834  70.9062672  27.7796125
  28.7021661  68.2495546  26.5474558  28.7042999  67.0962191  26.2493968
  29.6990633  69.0854883  26.2242246  29.5416951  70.0765657  26.3386941
  30.8955479  68.7185478  25.4549050  30.5922771  68.2682419  24.5097327
  31.8234587  69.8933363  25.1775980  32.0792937  70.3286600  26.1435914
  32.6989961  69.4276571  24.7251916  31.1611915  70.9389353  24.2768264
  30.9158611  70.4731417  23.3223915  30.2063084  71.2369680  24.7098160
  32.0229030  72.2149992  24.1474342  32.2977138  72.6863194  25.0910640
  32.9151058  72.0098734  23.5558319  31.1651373  73.2050037  23.3905768
  30.1619482  73.1198406  23.4709477  31.5860605  74.2855358  22.8759193
  32.8170228  74.5423794  22.6759100  33.5733128  74.0410805  23.1195617
  32.8995395  75.4605865  22.2633743  30.7220602  75.1114273  22.4087548
  29.7377563  75.1199579  22.6349759  30.9874153  76.0322666  22.0897841
  31.6807842  67.5806284  26.0297203  32.0527673  66.6778517  25.3004074
  31.8465757  67.5862026  27.3539233  31.5622783  68.4298849  27.8308630
  32.5846982  66.5148497  28.0088663  33.5776591  66.4248228  27.5683856
  32.6794028  66.8917084  29.5345426  31.7131519  67.1709633  29.9546337
  33.0077362  65.9949398  30.0599957  33.7436795  68.1170416  29.7169495
  33.3696604  69.0956068  29.4159079  34.1349936  68.2034588  31.1662269
  33.2054782  68.3478165  31.7169237  34.5914412  67.2901392  31.5478110
  34.7887826  69.0677452  31.2831354  35.1197267  67.8844023  29.0360904
  35.9139180  68.5899973  29.2800117  35.4782367  66.8967056  29.3259645
  35.1128173  67.8293562  27.9475021  31.9176221  65.1971626  27.8470683
  32.5358653  64.1884136  27.4930882  30.5993748  65.1961660  27.9789805
  30.0907326  66.0670471  28.0333304  29.7242737  64.0281248  27.9816079
  30.2944088  63.2545853  28.4960818  28.4341431  64.3603373  28.7300038
  28.7370825  64.7092628  29.7172117  27.8052616  65.0085545  28.1197453
  27.7711511  63.0980492  28.9933038  28.2018781  62.6584244  29.7300601
  29.4393611  63.5447264  26.5559769  29.3766117  62.3476505  26.2963748
  29.2737770  64.4661808  25.5766249  29.1423774  65.4364395  25.8244896
  29.3049049  64.1633463  24.1320157  28.3475757  63.6688042  23.9675522
  29.4266844  65.4883814  23.3330846  28.5925460  66.1162901  23.6462021
  30.3237414  66.0725927  23.5382223  29.3520212  65.3519297  21.7780375
  29.9718928  64.5243502  21.4331102  28.3304119  65.1347351  21.4662051
  29.8711085  66.6428518  21.0818815  29.5773697  66.5298176  20.0383115
  29.3332815  67.5116634  21.4613795  31.3460970  66.8484879  21.1508083
  31.8320298  66.0279942  21.4836097  32.0353842  67.9982424  21.1640120
  31.6451454  69.1265440  20.7159591  30.7187819  69.1882181  20.3182817
  32.2493625  69.8631001  21.0513878  33.2153535  67.9935646  21.6306973
  33.7083602  67.1466064  21.8750596  33.7512136  68.8467693  21.7013526
  30.4685140  63.2654047  23.7957883  30.3301311  62.2855377  23.0210829
  31.6309237  63.5448170  24.3232322  31.6238546  64.3142223  24.9774981
  32.8986931  62.9584312  23.8758063  32.8134036  62.8068972  22.7997613
  34.1031098  63.9076900  24.0852904  34.1240954  64.2248869  25.1279068
  35.0673294  63.5202789  23.7562132  33.9234161  65.1072454  23.1246209
  33.2826304  65.0042915  22.0225883  34.6496820  66.0813904  23.3220148
  33.0709124  61.5414429  24.6270156  33.4476638  60.6046724  23.9465356
  32.6816463  61.3500404  25.8885694  32.3720002  62.1543407  26.4151859
  32.3625612  60.0654459  26.5346980  33.3295870  59.5699501  26.6210222
  31.8898129  60.3533792  27.9600453  30.9779620  60.9398127  27.8472304
  31.5345621  59.4098043  28.3742428  32.7906823  61.0807896  28.8981009
  32.4765038  61.1461687  30.2436757  33.4510684  61.8583679  30.8410048
  33.3646321  62.0680904  31.8969154  34.2769837  62.3806715  29.8818707
  35.0472283  62.9957724  30.1020503  33.8838434  61.8852997  28.6684680
  34.2293358  62.2053957  27.6965761  31.4102697  59.1173267  25.7655406
  31.6826558  57.9256821  25.6374502  30.3351521  59.6531963  25.2071643
  30.0497317  60.5932808  25.4414177  29.3302751  58.9353800  24.4356155
  29.1553640  58.0182600  24.9981046  28.0730891  59.7909784  24.3394685
  28.2448101  60.7367563  23.8255501  27.2847128  59.2555428  23.8104343
  27.7646923  60.0137043  25.3609300  29.7294140  58.2931995  23.0659771
  29.0165830  57.4516916  22.5559759  30.9054589  58.6910725  22.5572586
  31.5415525  59.2430973  23.1147146  31.5487647  57.9840851  21.3443947
  30.8591580  57.9274702  20.5021715  32.5901008  58.9352751  20.7357407
  32.9909945  58.4290075  19.8576307  32.0279765  60.3394794  20.2271652
  31.6329980  60.9070826  21.0697341  32.8285861  60.9188366  19.7673130
  31.2285256  60.1410627  19.5132935  33.6375690  59.2072916  21.6733027
  33.2910442  59.8410749  22.3056316  32.1045065  56.5721703  21.6833210
  32.1636319  55.6716156  20.8290505  32.5571632  56.3238192  22.9264235
  32.4928164  57.1035004  23.5652208  33.0461383  55.0625706  23.5415053
  33.8846374  54.6466541  22.9829049  33.5742736  55.4357815  24.9339747
  32.7702594  55.6837368  25.6269264  34.0711880  54.5546627  25.3399467
  34.4806838  56.6354656  24.9594355  33.7884045  57.4417448  24.7170353
  34.9909091  56.9174337  26.4145923  34.2448997  56.5998459  27.1430969
  35.7677746  56.1885834  26.6455984  35.2736211  57.9651165  26.5172243
  35.6760049  56.5879869  24.0127444  36.4282560  57.3233700  24.2981052
  36.1574864  55.6108046  24.0498352  35.3546858  56.7963743  22.9922366
  31.8439889  54.0986252  23.6863279  30.7363820  54.5095253  24.0770507
  32.1351504  52.8194094  23.5783291  33.0998611  52.5285482  23.5087943
  31.1197305  51.7812538  23.7323570  30.3480792  52.0660925  23.0171466
  31.7478299  50.4137278  23.3970475  30.9870386  49.6361876  23.4658194
  31.9251990  50.3787422  22.3221421  32.9856539  50.0666475  24.1872454
  32.8906631  49.6559525  25.3444600  34.1831112  50.2473974  23.7223220
  34.9289989  49.7647381  24.2027330  34.4236779  50.6474733  22.8266835
  30.4690361  51.7748785  25.1298666  31.1169910  52.3627090  26.0581398
  29.2529202  51.2379694  25.2366447  28.8327074  50.9773111  24.3559718
  28.4647655  51.3042927  26.4701366  28.0748725  52.3211765  26.4250970
  27.5954342  50.6468725  26.4572215  29.2050982  50.8744860  27.7440691
  29.0907359  51.6462326  28.7158251  29.9751186  49.8249006  27.7925420
  30.0975585  49.1530704  27.0483899  30.7115221  49.5483065  29.0289807
  29.9504709  49.4827890  29.8065472  31.2879062  48.1006241  28.9543462
  30.4913425  47.4138308  28.6681771  32.1027684  48.0421495  28.2327652
  31.6158056  47.7821732  29.9438715  31.8451929  50.5749130  29.3324661
  32.1322227  50.8830738  30.5132318  32.5811219  50.9986591  28.2650924
  32.2975755  50.6709099  27.3527932  33.7167835  51.9110012  28.4832883
  34.3687797  51.5777731  29.2907310  34.4789076  52.0298290  27.1432519
  34.8752904  51.0215759  27.0232296  33.8942575  52.3317480  26.2742686
  35.6743169  53.0524206  27.1449304  35.3177977  54.0542030  27.3845673
  36.6173673  52.6747751  28.2279730  36.7956805  51.6072750  28.0985308
  37.6263618  53.0787659  28.1453872  36.2486434  52.7679491  29.2494750
  36.3378024  52.8391075  25.8120513  37.2542310  53.4287643  25.7885098
  36.6250014  51.8316746  25.5108929  35.6668162  53.1171894  24.9993110
  33.2099152  53.2898521  28.8524127  33.8254952  53.9937162  29.6250153
  32.0575666  53.7318373  28.2791901  31.5814972  53.1340504  27.6187992
  31.3748288  54.9873638  28.6765337  32.1003580  55.8001947  28.6447001
  30.2771020  55.4426956  27.7362490  30.6958199  55.4624796  26.7300749
  29.5878077  54.6136999  27.5758100  29.5989323  56.7639780  28.0708838
  30.0816512  57.2949362  28.8913488  29.5800328  57.3861170  27.1760702
  28.1421280  56.5359163  28.4115839  27.8212881  56.7199373  29.6022177
  27.2704697  56.0990953  27.5479245  26.3229322  56.0704041  27.8964281
  27.4991131  55.9037971  26.5837240  30.9822273  54.9430704  30.1901793
  31.2355638  55.8405590  31.0221148  30.3745770  53.8202858  30.6790447
  30.1596522  53.0733299  30.0340939  30.2377892  53.5171890  32.0879364
  29.5649576  54.2409325  32.5479293  29.4615936  52.1401548  32.1808434
  28.5010219  52.4470711  31.7670751  29.8227429  51.3092661  31.5747952
  29.2636633  51.6919899  33.6007667  28.0366993  51.8996334  34.2186952
  27.1935725  52.3791981  33.7437582  27.8852129  51.4596510  35.5396557
  26.9511437  51.6868067  36.0319066  28.9504862  50.7919121  36.2263942
  28.7809825  50.3132296  37.1795630  30.2215552  50.6177902  35.6065345
  30.9796667  50.0442362  36.1190844  30.3534627  51.0312223  34.2677617
  31.2318206  50.7971382  33.6845875  31.5006137  53.5932446  32.9350924
  31.5631294  54.3133354  33.9019895  32.6018095  52.9137754  32.5247049
  32.5698733  52.3880672  31.6628981  33.9226031  52.9544544  33.1505752
  33.8819289  52.5883389  34.1764426  34.9080372  52.1273422  32.3590946
  34.2970181  51.3099527  31.9761753  35.3693271  52.7385569  31.5833783
  35.6144118  51.5804815  32.9836583  34.4123816  54.4270992  33.2386851
  34.8459053  54.9021816  34.2846131  34.2039227  55.2415800  32.2027898
  33.7210178  54.8044729  31.4308834  34.5448327  56.5894032  32.1354914
  35.6035495  56.6575241  32.3856473  34.5138192  57.0609760  30.6462884
  33.5325766  56.9428253  30.1866078  34.8775148  58.5696983  30.5861139
  34.9976087  59.0227222  29.6020222  34.1072845  59.2175674  31.0045791
  35.8331370  58.7057924  31.0924268  35.5109000  56.3103867  29.8966527
  35.0396013  55.4888916  29.7397256  33.7408257  57.5160885  33.1176996
  34.3646908  58.3454514  33.7606311  32.3916864  57.2804976  33.4270072
  31.9191456  56.5879726  32.8637910  31.6884637  58.1355476  34.3605113
  31.9178581  59.1811609  34.1551566  30.1784706  58.0218172  34.1780448
  29.8064756  57.0200777  34.3930745  29.6587014  58.6205912  34.9259877
  29.7552037  58.5553503  32.8014112  29.8415112  59.6418428  32.8149080
  30.3637457  58.2649755  31.9449878  28.2848930  58.2073832  32.5410533
  28.0494380  58.4715128  31.5100837  28.1690025  57.1304083  32.6627159
  27.3671961  59.0108442  33.4250951  27.4499631  58.7411976  34.4779706
  27.7015495  60.0475025  33.3845234  25.9672952  58.7881422  32.9824281
  25.7562757  57.8031588  33.0558157  25.3702402  59.3612719  33.5613465
  25.9042263  59.1023207  32.0246124  32.0757413  57.9028702  35.7994342
  32.1984339  58.8405657  36.5690589  32.4188232  56.6788435  36.1515307
  32.1975803  55.9331703  35.5072331  32.9862237  56.3648367  37.5028253
  32.3867273  56.8609858  38.2660699  32.9195809  54.8055840  37.6869798
  31.8509388  54.6173429  37.7902818  33.3523321  54.3422556  36.8003273
  33.5951376  54.3112803  39.0130877  34.6570945  54.5343304  39.1160274
  33.1623054  54.8322821  39.8670888  33.4622192  52.7630901  39.2600298
  33.5833097  51.9657183  38.3649635  33.2704973  52.3723221  40.4880857
  33.1846571  51.3686609  40.5614996  33.3537889  53.0055523  41.2705088
  34.4591689  56.8909025  37.6322055  34.8336077  57.4519253  38.6599183
  35.2207923  56.7794037  36.5507793  35.0049806  56.1622477  35.7809448
  36.5056896  57.4811697  36.4168954  37.1321893  57.1063471  37.2262812
  37.1735907  56.9712162  35.1159143  37.0865631  55.8856630  35.0700879
  36.7390347  57.5263262  34.2845798  38.6782885  57.3084354  34.9873424
  38.8404012  58.3509159  35.2613258  39.6115112  56.5864420  35.8923531
  39.5774317  55.5011892  35.7965660  40.6001472  57.0017529  35.6968498
  39.3253064  56.8663645  36.9061756  39.1957140  57.0986938  33.5307360
  39.1630316  56.0642481  33.1887460  38.5252452  57.6757336  32.8938723
  40.2370310  57.4202251  33.5112023  36.5111065  59.0009499  36.5887833
  37.3285055  59.5326710  37.3513436  35.5780578  59.7921324  36.0162854
  34.8722982  59.3671274  35.4320145  35.6319475  61.2593794  36.2005901
  36.6221833  61.6594076  35.9826183  34.6947432  61.8372345  35.1219988
  34.6938133  62.9266214  35.1585650  35.0331569  61.5549564  34.1250539
  33.3769107  61.3053226  35.3944230  33.0087471  61.9527721  36.0001183
  35.2523565  61.6555262  37.6353216  35.9224558  62.4691629  38.2913613
  34.2954516  60.8963490  38.2523537  33.8085866  60.2060461  37.6986814
  33.9837193  61.0154152  39.6323919  33.7144661  62.0581436  39.8006868
  32.8549123  59.9737549  39.9447703  31.9832516  60.2041006  39.3321896
  33.1611514  58.9867640  39.5981216  32.4968529  60.1199007  41.4476538
  33.0321145  59.4117260  42.0801878  32.5369000  61.1978769  41.6040516
  31.0520101  59.6743488  41.6509771  30.7075644  59.9968243  42.6335573
  30.5024457  60.1824236  40.8585501  30.8559036  58.1908655  41.4811707
  31.0577440  57.6718473  42.3237753  30.2862048  57.5669765  40.4563379
  29.6416092  58.1936312  39.5673394  29.3974710  59.1660166  39.6896696
  29.1025758  57.6322937  38.9235663  30.3318357  56.2857914  40.3700733
  30.9025788  55.8669519  41.0904408  29.9760127  55.9365988  39.4916940
  35.2227354  60.7472229  40.5077124  35.4052901  61.4193726  41.5211058
  35.9919596  59.6990871  40.2020693  35.7298279  59.1393709  39.4032550
  37.1766806  59.2645597  41.0137463  37.0010471  59.2194796  42.0885611
  37.5967598  57.8626728  40.6127405  37.8639913  57.9439783  39.5591354
  38.7190056  57.2060776  41.4230680  38.5452318  57.2419834  42.4985266
  38.8736892  56.1646986  41.1407518  39.6363449  57.7366209  41.1679077
  36.5130520  56.8939495  40.7918072  35.8555245  57.0383167  40.1073933
  38.3809686  60.1150656  40.8658457  39.0168667  60.4181671  41.8569517
  38.6637354  60.6669760  39.6704674  37.9605246  60.4955959  38.9660358
  39.9005151  61.4553356  39.3898153  40.7765865  61.0227728  39.8730206
  40.3006506  61.4914036  37.8794146  39.5226002  61.9752979  37.2890043
  41.1506605  62.1719885  37.8304529  40.7613182  60.2106285  37.1304989
  39.9466658  59.4935369  37.2316432  41.0387564  60.6023693  35.7075834
  40.0628471  60.8260965  35.2766991  41.7582464  61.4211130  35.6977010
  41.4302349  59.7852755  35.1016116  41.9684219  59.6041584  37.7647066
  42.7746439  60.3350544  37.8271365  41.7282152  59.4039774  38.8088965
  42.3762321  58.6709213  37.3763013  39.7076559  62.9021358  40.0259972
  40.5977869  63.4944582  40.5951691  38.5389972  63.5228920  39.8953247
  37.8674507  63.0155468  39.3369985  38.0941916  64.8492336  40.4502773
  38.7342644  65.5934668  39.9764371  36.6908598  65.2716780  39.9866509
  36.5131950  66.2964916  40.3126860  36.8479800  65.3990602  38.9155793
  35.7003903  64.3375492  40.3552866  35.9648395  63.6305904  39.7620964
  38.1282592  65.0037861  41.9612789  38.0303240  66.1098862  42.4954319
  38.3057904  63.8365030  42.5940657  37.9450703  63.0986071  42.0062828
  38.5371161  63.7192345  43.9812040  37.9730463  64.5495129  44.4061279
  37.8947616  62.4053049  44.4815683  36.8290806  62.3585844  44.2574024
  38.4157419  61.5535736  44.0442657  37.9179978  62.3031044  46.0144043
  38.9303732  62.2298479  46.4116859  37.4795794  63.2022524  46.4473200
  37.1353865  61.0268307  46.5768290  37.5758457  60.1200485  46.1622906
  37.3173022  60.9758329  47.6503325  35.7005191  61.0736322  46.3673735
  35.1242018  61.8091583  46.7507267  34.9920392  60.2645922  45.6353331
  35.4344511  59.1531610  45.0865698  36.2099743  58.6647654  45.5110025
  34.9010253  58.5803413  44.4482660  33.7823915  60.6536722  45.3703308
  33.3713484  61.4137077  45.8932972  33.1749058  59.9101019  45.0570250
  40.0355577  63.8939428  44.3917274  40.3619671  64.2845964  45.4850626
  40.9738541  63.6459970  43.4968090  40.6850719  63.2341528  42.6209736
  42.4066734  63.7256575  43.7596941  42.6603174  63.0291414  44.5588398
  43.0286741  63.1345129  42.4821329  42.7380943  63.8395786  41.7033291
  44.1176558  63.1054211  42.5192881  42.5217485  62.2035933  42.2281313
  42.9649162  65.1723099  44.0375042  42.6212454  66.1267900  43.2849789
  43.8124371  65.3018618  45.0667000  44.0812588  64.4678926  45.5690241
  44.4826174  66.5366697  45.4832745  44.0799332  67.4168491  44.9820423
  44.1915560  66.8511343  46.9545698  44.6082354  67.8391600  47.1502352
  42.7655888  66.7039871  47.5238657  42.7777672  66.7716360  48.6116934
  42.1295547  67.4825478  47.1026659  42.3255396  65.7626963  47.1945763
  44.8745155  65.8819151  47.7678299  45.7676411  66.1511326  47.9946470
  46.0132551  66.4870596  45.1637840  46.5787315  65.3677988  45.2714348
  46.5907145  67.5970697  44.7312403  46.0258722  68.9445639  44.6513367
  45.4644299  69.0673447  45.5775213  45.5645418  69.1395855  43.6832237
  47.1874857  69.9337626  44.6724606  47.6884699  70.0991392  45.6262779
  47.0599890  70.9263659  44.2405033  48.1680489  69.1841412  43.7806749
  49.2088366  69.4465494  43.9704275  47.9591846  69.3919706  42.7312565
  47.9399347  67.7114964  44.0934944  47.9294729  67.1914482  43.1356096
  49.1145706  67.0250416  44.8009968  49.1837835  66.8454552  46.0038567
  50.1156235  66.6012859  44.0551329  50.0859118  66.6680336  43.0477762
  51.1085510  65.6355858  44.5790815  51.1601591  65.6786585  45.6670046
  50.5312967  64.1899252  44.3194008  49.4819927  64.1585159  44.6127796
  50.4509544  63.9224768  42.7542639  49.9378777  64.7467422  42.2588539
  51.4674807  63.8413715  42.3692846  49.8805618  62.9954767  42.6957941
  51.3695717  63.1176090  45.0878859  52.4181652  63.1357431  44.7908592
  51.3415623  63.2638884  46.1676693  50.8705997  61.7129087  44.8587942
  49.8226547  61.6359997  45.1486015  51.0421991  61.3090611  43.8610172
  51.5232611  61.1608505  45.5350828  52.4756908  65.9559250  43.9257240
  52.4838305  66.2937069  42.7353477  53.5674572  65.9108973  44.6364403
  53.7058401  66.0742998  46.1298752  53.1546545  65.4247618  46.8098736
  53.4916067  67.1217108  46.3423204  55.2359200  65.9333658  46.3718319
  55.4135609  64.8591900  46.4237499  55.5681562  66.4308214  47.2830153
  55.7875395  66.6083574  45.1159716  56.8166256  66.2671041  45.0036097
  55.7410955  67.6785564  45.3174925  54.8316765  66.1237192  44.0545273
  54.6897984  66.9331121  43.3383894  55.3552055  64.9636507  43.2630491
  55.1818514  63.8073397  43.7326288  55.9660673  65.3108835  42.1203279
  56.2122393  66.2858486  42.0257711  56.9362164  64.4762659  41.3765526
  56.6106510  63.4369564  41.3324547  56.9805050  64.9147415  39.8986101
  57.3747587  64.1365528  39.2450905  55.9323454  64.9895954  39.6090317
  57.7917147  66.2008858  39.5545864  57.6027250  67.0279980  40.2388906
  58.8706398  66.0821486  39.6542120  57.5663090  66.7807388  38.2036376
  57.2660875  67.9858971  38.0347633  57.6854372  66.0886908  37.1644664
  58.2289743  64.3807602  42.2330236  58.4308434  65.1424360  43.1430292
  59.0010452  63.3672428  41.8621254  58.6935282  62.8163910  41.0733938
  60.3004885  63.0607748  42.4601316  60.3439617  63.3779287  43.5020685
  60.8666420  61.7356968  42.1728802  60.9090233  61.7141151  41.0839176
  61.8026781  61.6834784  42.7289486  59.9753094  60.6327724  42.7096701
  59.7828150  60.4274321  44.0868139  60.1883602  61.1384916  44.7913170
  58.9588261  59.3359709  44.5763779  58.8068771  59.1061544  45.6206512
  58.3545780  58.5477304  43.6269665  57.6319504  57.3773766  43.9489269
  56.7607355  57.4343157  43.5497427  58.5394478  58.6830091  42.1602297
  57.9541588  58.1113386  41.4552259  59.3893099  59.7538900  41.7421579
  59.5440340  60.0338745  40.7106209  61.3109303  64.0210199  41.8946075
  61.4340878  64.0963936  40.6283617  62.1256018  64.7958374  42.6784754
  61.8859577  64.6862316  43.6534929  63.3158731  65.5746508  42.3199320
  63.0030441  66.2099981  41.4913321  63.5821342  66.5913105  43.4200335
  63.6806107  66.0400867  44.3552113  64.5310640  67.0888186  43.2197380
  62.4222422  67.7086639  43.4869862  61.4774132  67.2199869  43.2490969
  62.5764179  68.4981966  44.7695017  63.5742664  68.9325953  44.8302841
  61.8373299  69.2817211  44.6023321  62.1766329  67.9253578  45.6062412
  62.7017498  68.7558460  42.2850609  63.6379671  69.3016005  42.4023151
  62.7908516  68.2549047  41.3211012  61.9342852  69.5222902  42.1770668
  64.4826078  64.7046041  41.9051409  65.4117250  65.1880693  41.2670612
  64.5281601  63.4489584  42.3948812  63.8461971  63.1980133  43.0963516
  65.6665516  62.5054598  42.0707130  65.6937313  61.6888714  42.7922010
  65.3087330  61.9127464  40.6993103  64.2504978  61.8182468  40.4557753
  65.6739664  62.5862408  39.9239898  65.8692312  60.5209064  40.6746578
  66.9476366  60.5802059  40.8217096  65.4189301  59.8954582  41.4454603
  65.7147312  59.7158813  39.3351960  64.6557713  59.7774601  39.0843725
  66.3539886  60.1241493  38.5524011  66.2404203  58.2280397  39.4476628
  67.0615530  58.1663990  40.1618385  65.4312468  57.6398420  39.8805118
  66.6740799  57.6789093  38.0943084  66.1127996  58.0014086  37.3190260
  67.6367617  57.9323578  37.9236841  66.5346336  56.6794443  38.0527258
  67.0828724  63.1073284  42.1728516  67.9267502  62.9209852  41.2916231
  67.3830318  63.8330889  43.2575464  66.7353964  63.8211203  44.0324831
  68.7297487  64.3888855  43.4626436  69.2712784  64.4228888  42.5172901
  68.5884237  65.8521652  43.9505911  67.8589344  65.7599926  44.7552395
  69.5772409  66.1444759  44.3039942  68.0396700  66.7939520  42.8742027
  68.5018301  66.5752459  41.9115639  66.9890213  66.5572214  42.7062750
  68.1993055  68.2672644  43.2042027  68.2375813  68.7843370  44.3501997
  68.1948853  69.0909052  42.2344828  68.1657219  70.0649548  42.4999666
  68.0292940  68.7930822  41.2837029  69.5506096  63.5621452  44.4493151
  69.8180056  63.9614201  45.6228590  69.9041176  62.3399019  43.9961243
  69.6580172  62.1340799  43.0384350  70.5991268  61.3369942  44.8074722
  69.8670626  61.2445688  45.6097412  70.6967163  59.9662304  44.0526867
  71.1014128  60.1611042  43.0595398  71.8095493  59.0722370  44.6604586
  71.5733385  58.8721180  45.7055712  71.8504143  58.1021500  44.1651154
  72.8066778  59.5107317  44.6210146  69.3900728  59.2299700  43.9553928
  69.7118711  58.1957626  43.8331032  68.8393116  59.2612791  44.8954916
  68.5328293  59.6040487  42.7431774  69.1392708  59.5674849  41.8381929
  67.8121948  58.8003016  42.5922680  68.0202198  60.5612230  42.8388596
  71.9702816  61.9425154  45.2712202  72.6430941  62.5173998  44.4244385
  72.3506784  61.8968296  46.5969944  71.5475988  61.4686728  47.7171612
  71.4918280  60.3804016  47.6916170  70.5298328  61.8588686  47.7148867
  72.3395681  61.9708872  48.9547443  72.0537329  61.2167215  49.6879816
  72.0710421  62.9996586  49.1947794  73.7864780  62.0403385  48.5816383
  74.2732954  61.0778713  48.7390041  74.3443155  62.8265810  49.0903091
  73.6826181  62.3122501  47.1122169  73.7971640  63.3911324  47.0073509
  74.7444439  61.6159964  46.2830591  74.5543575  60.4386568  46.0619402
  75.8151436  62.3244286  45.9327888  75.8749723  63.3072376  46.1577702
  77.0195818  61.6972923  45.3269911  76.6966820  61.2847900  44.3711233
  78.0545855  62.7919340  45.0131035  78.4809065  63.1325483  45.9566736
  78.8145161  62.3634195  44.3596649  77.4549818  63.9021111  44.1871881
  76.5890789  63.7197924  43.3528805  78.0846882  65.0573301  44.1646051
  77.8754091  65.8288670  43.5473251  78.8564491  65.2158928  44.7965431
  77.7093124  60.5315304  46.0762978  78.2726622  59.5960140  45.4492140
  77.7039814  60.5151272  47.4155188  77.2677803  61.3007927  47.8765678
  77.8118181  59.3488312  48.2549191  78.8595629  59.0549421  48.3178759
  77.5081348  59.7857523  49.7047901  77.6656055  58.9821482  50.4241800
  78.2075739  60.5434704  50.0579834  76.1259127  60.2520895  49.8285437
  75.9593201  60.3259611  50.7710886  76.9630766  58.1435490  47.7863884
  77.4856472  57.0509911  47.7916718  75.7327223  58.3103466  47.4225616
  75.3766823  59.2554951  47.4278927  74.6690035  57.1919107  47.2763491
  75.0075388  56.3967180  47.9405499  73.3914995  57.7992153  47.8979683
  73.0570459  58.6867762  47.3608685  72.5510836  57.1160889  47.7748871
  73.5482645  58.1704187  49.6525669  74.4948578  59.0965605  49.4761705
  74.4077778  56.6077757  45.8966923  73.5373783  55.7731390  45.7467365
  75.1033115  57.0198059  44.8261166  75.8036709  57.7294540  44.9873686
  74.9600506  56.5740061  43.4477663  73.9588213  56.8065548  43.0850410
  75.8022356  57.4109364  42.5256205  76.8105173  57.1273947  42.8274059
  75.6047583  57.0954227  41.0570288  74.5971537  57.2919464  40.6906796
  76.3073540  57.6182556  40.4080963  75.7668686  56.0324812  40.8782196
  75.4491949  58.9464664  42.7074051  75.8366966  59.5190525  41.8647432
  74.3745279  59.1085625  42.6242542  75.7551241  59.2666006  43.7034082
  75.2317524  55.0305176  43.2739353  76.1410093  54.5180035  43.9045477
  74.2969704  54.3222523  42.6576948  73.5453558  54.8110437  42.1926641
  74.4439220  52.8603029  42.5005102  75.4935455  52.5832653  42.5986767
  73.8074780  52.1596289  43.6934328  72.7303076  52.2295284  43.5420513
  74.0781927  51.1066866  43.6151648  74.1370010  52.7359915  44.9167967
  74.2930794  53.6768532  44.8071527  73.7249756  52.4045944  41.1966610
  73.0632401  53.1561804  40.5263186  74.0115023  51.1457825  40.8839130
  74.7325850  50.6450033  41.3832712  73.2401657  50.3992414  39.9080443
  73.0213308  50.9652805  39.0026093  73.9436579  49.6286631  39.5927453
  71.9060612  49.6933508  40.3684425  71.4677286  49.8497629  41.4938354
  71.3084793  49.0371180  39.4078398  71.8090391  48.7687492  38.5726643
  70.0751305  48.2330847  39.6832561  69.4086170  48.9554262  40.1545191
  69.4328976  47.9646349  38.3027983  69.5862961  48.8650799  37.7080083
  68.3665037  47.7520466  38.3783722  70.2570915  46.6559982  37.3122406
  70.1827002  47.0493937  40.7395887  71.2824869  46.5693808  41.2032461
  68.9976120  46.4884758  41.1056566  68.2053518  46.9751263  40.7111979
  68.7839603  45.3603745  42.0015478  69.7129917  45.1022768  42.5098658
  67.8374624  45.8866739  43.0850697  66.9321728  46.0877323  42.5122452
  67.7050543  45.1673555  43.8932467  68.3729982  47.3076630  43.9645767
  68.4601021  48.2445717  43.0161476  68.2428885  44.0462828  41.4710712
  68.1120682  43.0584764  42.1894169  67.7904510  44.0728712  40.1630020
  67.9958963  44.9197388  39.6524143  67.1201611  43.0438375  39.4404936
  66.0964012  43.1012821  39.8102522  67.0745230  43.4553385  37.9293013
  66.3496590  42.8778744  37.3555350  68.1084204  43.3010340  37.6205134
  66.4776278  45.1638412  37.4993014  67.6664829  41.6410208  39.5841765
  66.9188452  40.6790304  39.2691183  69.0062046  41.4762402  39.8257804
  69.5887804  42.2943068  39.9328947  69.5420456  40.0844479  39.7767854
  69.0393496  39.5174623  38.9932513  70.6254959  40.0084734  39.6847701
  68.9731550  39.4933057  41.0854530  68.4963560  38.3725882  41.0413599
  69.0304852  40.2232027  42.2307968  69.4383764  41.1430264  42.1433592
  68.8302088  39.6527100  43.5829163  69.1115379  38.5997629  43.5989714
  69.5680809  40.4739285  44.6574593  70.6312275  40.2539730  44.5604086
  69.3096542  41.5143585  44.4604254  69.2457867  40.1844120  46.0985947
  70.0154352  39.3234301  46.8317795  70.7890701  38.7251329  46.3735962
  69.4078827  39.0541244  48.0671597  69.7074509  38.3635926  48.7406015
  68.3437729  39.9344873  48.3080006  67.3804760  40.0832415  49.2837143
  67.4878979  39.4917679  50.1809406  66.3441944  41.0068560  49.0782022
  65.5052710  41.1549520  49.7420406  66.2477350  41.7777252  47.8801250
  65.4637241  42.5069046  47.7386093  67.1550322  41.5164709  46.8695307
  67.0215988  41.9029236  45.8699036  68.1997633  40.5963898  47.0288658
  67.2734118  39.7115850  43.7698555  66.7018127  38.8881588  44.4445086
  66.5865707  40.7844162  43.3400249  67.1528482  41.5044928  42.9146767
  65.0967693  40.8874273  43.3851480  64.7037649  40.9131384  44.4015074
  64.5193386  42.1916103  42.7482462  64.8503065  42.2512293  41.7114210
  63.4608793  41.9451523  42.8319979  64.7902489  43.5076141  43.5360146
  65.8747864  43.5808086  43.4551907  64.1844606  44.7070789  42.8057814
  64.7453451  45.5841970  43.1285238  64.3727922  44.6336651  41.7346859
  63.1098080  44.7746468  42.9750252  64.2859983  43.5044670  44.9781466
  64.8105812  42.6947165  45.4853201  64.4761181  44.5019960  45.3742456
  63.2223034  43.2725811  44.9243736  64.4230413  39.6474338  42.6924801
  63.6726665  38.9135170  43.3139086  64.7965860  39.4143343  41.3591719
  65.5469656  39.9177837  40.9079790  64.4458055  38.0650783  40.8258104
  63.3787394  38.2235909  40.6697798  65.1730204  37.6287341  39.5234895
  66.2117720  37.3305631  39.6655703  64.4592667  36.4121175  38.9012766
  63.4194899  36.6237593  38.6519337  65.0262451  36.2030745  37.9941201
  64.5831776  35.5643010  39.5750403  65.2420807  38.6722684  38.5737801
  65.8343840  39.3913960  38.8053679  64.5889854  36.8847513  41.8280029
  63.6369658  36.1944485  42.0631218  65.7606983  36.5508342  42.3764133
  66.4971161  37.2411919  42.3418474  66.0182142  35.3922391  43.3056450
  65.6062984  34.4792676  42.8756332  67.5198460  35.3109908  43.5940599
  67.9146242  36.2779999  43.9057398  67.7745771  34.5567942  44.3386412
  68.2118702  35.0042176  42.2849607  67.6758051  34.3135071  41.6340733
  68.4604263  35.9618759  41.8275642  69.5304775  34.2685986  42.5275040
  69.3431759  33.3463407  43.0774689  69.9255085  34.0339494  41.5390778
  70.5445290  35.1745701  43.1834841  70.7616806  35.9677315  42.4680471
  70.0587463  35.5092716  44.1000462  71.7442799  34.4193077  43.5881853
  71.6003323  33.8800359  44.4299555  72.1170139  33.8393259  42.8500843
  72.4530268  35.1338339  43.6731863  65.1943588  35.3893280  44.6193981
  64.6225405  34.3533778  45.0030851  65.1569176  36.4886999  45.2744198
  65.8311129  37.1327829  44.8861980  64.1783905  36.8647504  46.2937403
  64.4300747  36.2948608  47.1881580  64.2713213  38.3160830  46.6300344
  64.4577599  38.9153743  45.7388592  63.2081556  38.8027978  47.6306677
  63.3000803  38.3052206  48.5961056  63.4696198  39.8511863  47.7742910
  62.2182894  38.6577749  47.1979666  65.5545902  38.3834314  47.3258162
  66.1487198  39.0220666  46.9248676  62.7383137  36.4250922  45.9057331
  62.1378422  35.6160140  46.5686607  62.1769047  36.9409251  44.7522831
  62.8524160  37.3998213  44.1579723  60.7879019  36.5223360  44.3577576
  60.1470280  36.6465306  45.2306604  60.1595497  37.4443603  43.3047390
  60.7783937  37.6581454  42.4332905  58.7790966  36.9935584  42.7603340
  58.9281321  36.2022924  42.0256329  58.0607986  36.6220641  43.4911776
  58.3126068  37.8435373  42.2623110  59.9326944  38.7871289  43.9775515
  59.7598743  39.6022964  43.2748890  59.1959286  38.9018226  44.7726107
  60.9227896  39.1027999  44.3064356  60.7308197  35.0316215  43.9508438
  59.7654724  34.3669415  44.2274952  61.8000984  34.4572735  43.3859253
  62.5947618  35.0712061  43.2777977  61.8816280  33.0959177  42.9481173
  61.0569143  33.0587053  42.2363806  63.2275867  32.7955508  42.2591400
  63.3786345  33.6280560  41.5719604  64.0793228  32.6672530  42.9271173
  63.3341169  31.5642715  41.3848305  63.2069635  30.7616329  42.1112633
  62.5458717  31.5581131  40.6320095  64.7122097  31.3152671  40.7294178
  64.8594999  32.2131872  40.1292992  65.4956055  31.3033056  41.4872074
  64.7513199  29.9906325  39.8862290  64.0176916  30.0901437  39.0862370
  65.7268524  29.9803805  39.4000816  64.6875858  28.7929845  40.6926441
  64.6714163  27.9470968  40.1410007  65.4864645  28.7628150  41.3098764
  63.8236666  28.6824512  41.2040472  61.5266943  32.1022773  44.0163326
  60.5137157  31.4345217  43.8997936  62.3448706  32.1060157  45.0560951
  63.1694365  32.6869202  45.0036573  62.2116089  31.1968327  46.2093115
  62.0990038  30.1566482  45.9036350  63.4699583  31.2706423  47.0921755
  63.4253073  32.2603774  47.5466347  63.3703041  30.5054140  47.8619766
  64.7453499  30.9772325  46.2789774  64.8068190  31.4682102  45.3077602
  65.6434011  31.2525463  46.8319750  64.8105049  29.4744182  46.0253620
  64.4298220  29.1520810  44.8629570  65.0251484  28.6597896  46.9593620
  61.0178041  31.5048409  47.0266724  60.6249094  30.7978821  47.9194641
  60.4426003  32.6810884  46.8524981  60.8694935  33.3263779  46.2032938
  59.2100811  33.2330394  47.5418663  59.0150881  32.7822733  48.5149479
  59.3609381  34.7919559  47.5126457  59.4526720  35.1104712  46.4742661
  58.1037998  35.3811622  48.1392574  57.3108387  35.2816772  47.3980284
  57.8357077  34.8118401  49.0292597  58.2936621  36.4210105  48.4052801
  60.4665947  35.1348233  48.3611107  61.1978006  35.2306032  47.7464867
  57.9908752  32.8596210  46.7620850  56.9434786  32.6279330  47.4261808
  58.1271458  32.6382613  45.4515409  59.0152884  32.7396822  44.9814224
  57.0340633  32.0883775  44.5750141  56.0442019  32.3522305  44.9473715
  57.1323252  32.5875998  43.0939770  58.0464077  32.2166777  42.6303244
  55.9904623  32.2831249  42.1659231  55.0657797  32.5878739  42.6560211
  55.9976149  32.9673648  41.3174725  56.0331821  31.2443352  41.8385172
  57.1605492  34.0114141  43.2807064  57.9373217  34.2887115  43.7719631
  57.0305252  30.5566454  44.6277523  56.3450480  29.9576974  45.4441929
  57.6978588  29.8350120  43.6529922  58.3356428  30.4057074  43.1166697
  57.7205753  28.4471726  43.3677578  57.4234724  27.9627252  44.2978907
  56.6193724  28.0458760  42.3010635  56.9358444  28.4947276  41.3595343
  56.5568686  26.9832373  42.0665503  55.1728582  28.4271121  42.7302456
  55.2396584  29.4513965  43.0969572  54.5909357  28.5202718  41.8133020
  54.5793152  27.5065398  43.8464165  55.2660131  27.5178576  44.6928310
  53.6350060  27.9693198  44.1331577  54.4001007  26.1392808  43.4227800
  54.6993113  25.4607582  44.1084862  53.6583376  25.6297994  42.4408722
  52.9165983  26.4615870  41.7504978  52.8852081  27.4594760  41.9032383
  52.5178289  26.0797548  40.9047461  53.6780214  24.3662786  42.0674276
  54.1530704  23.6840892  42.6410580  53.0631208  23.9125752  41.4070129
  59.0577936  27.8350186  42.9550123  59.9276972  28.5399604  42.4293566
  59.2866373  26.5164661  43.1457281  58.6422157  25.9375453  43.6650276
  60.5703497  25.8553243  42.7580929  61.4067793  26.5114379  42.9989243
  60.8479643  24.6121120  43.6378002  60.7904911  24.9627423  44.6682692
  59.7330379  23.5696125  43.5883904  59.8134661  22.9571009  44.4864321
  58.7668753  24.0614200  43.4754467  59.8191833  22.9237962  42.7145481
  62.0676661  24.0445971  43.3786869  62.6218176  24.2455244  44.1364098
  60.6385422  25.4748440  41.2752438  59.7398090  24.9102139  40.6787109
  61.7027235  25.8126473  40.5776119  62.3743677  26.3982177  41.0531139
  61.8948841  25.5141687  39.1138291  61.4806318  24.5298839  38.8954759
  61.1515188  26.5635347  38.2611752  61.3388443  26.3530684  37.2082210
  60.1111937  26.2630701  38.3858609  61.4716387  28.0053520  38.5767603
  61.0650301  28.1987238  39.5694208  62.5420475  28.0868268  38.7656569
  60.9747696  29.0440226  37.6060319  61.7477798  30.0291920  37.3984385
  59.9375486  28.8024259  36.9283223  63.3799505  25.5612874  38.7950873
  64.0919733  26.5111470  39.1893363  63.8669300  24.5611715  38.0453038
  63.1324434  23.4428263  37.4636364  62.6085043  23.6712170  36.5355062
  62.5236607  22.9295111  38.2079411  64.1529751  22.3467112  37.1321559
  64.3539524  22.3921752  36.0618091  63.7646723  21.4272976  37.5703311
  65.3967953  22.8570104  37.8181362  66.3512659  22.5015950  37.4298477
  65.4606009  22.4096489  38.8100529  65.2732229  24.3788791  37.9132748
  65.7797861  24.7212124  38.8156605  65.8133698  25.1532054  36.7552280
  66.1135197  24.5425248  35.6914258  65.6661320  26.4525890  36.6431737
  65.4192448  26.9293571  37.4986506  65.8729076  27.1580505  35.3457499
  66.6607046  26.6333199  34.8052478  64.6448469  27.2455621  34.4237590
  64.2871237  26.2177420  34.3627930  63.4894657  27.9909754  35.1623154
  62.4954987  27.7809787  34.7673130  63.5228062  29.0799832  35.1947451
  63.4707546  27.7000523  36.2126064  64.9382782  27.7091789  32.9813266
  65.1336670  28.7814188  32.9962969  65.6435966  27.0377445  32.4916315
  63.6057234  27.6757312  32.1672273  63.1080723  28.5826015  32.5107837
  63.8584423  27.7899718  31.1130977  63.0211353  26.7887545  32.4114251
  66.5481043  28.5252500  35.6266236  66.0196209  29.3600345  36.3255382
  67.7531004  28.6877847  35.0418639  68.1574488  27.8049684  34.7639489
  68.6045980  29.9050498  34.8404908  69.4659376  29.6185398  34.2370725
  67.8082180  31.0097837  34.0993857  67.5878477  30.6616092  33.0902719
  66.8981552  31.1953640  34.6698713  68.5454512  32.2788572  33.7870383
  69.7425604  32.2701049  33.6759949  67.8524494  33.4383631  33.6183262
  68.4065342  34.2727995  33.7479711  66.8450069  33.4925818  33.6655140
  69.3098688  30.2510619  36.1560869  68.7518597  30.0935173  37.2438407
  70.4855871  30.8846498  36.1085176  70.8914042  31.0839367  35.2053571
  71.1104679  31.4805293  37.3044467  70.3610086  31.6993284  38.0650640
  72.1581984  30.4488754  37.8604460  72.5242567  30.8310270  38.8133669
  71.5277290  29.1976571  38.2308459  72.3208523  28.7367988  38.8196301
  70.6649733  29.4222260  38.8579941  71.1613941  28.6377788  37.3703551
  73.1849194  30.2425265  36.8688273  72.7422380  29.8418260  36.1171150
  71.8038893  32.8581953  37.0310569  72.7132177  33.2341528  37.7189612
  71.3991976  33.5419464  35.9731388  70.7526588  33.1338382  35.3131866
  71.8290520  34.9476933  35.7041383  72.0945263  35.3963041  36.6614127
  72.9319572  34.8817372  34.6183419  72.5635576  34.8459840  33.5931087
  73.5934591  36.2463188  34.6634579  72.8999805  36.9580936  34.2156100
  73.7214851  36.6154385  35.6810355  74.5379448  36.2933636  34.1213965
  73.9616537  33.8457561  34.6803784  73.4855747  33.0788779  34.3535018
  70.6184149  35.7519507  35.1805282  69.9328995  35.3515005  34.2191100
  70.2881336  36.9155359  35.8164549  70.9185934  37.0384669  36.5958834
  68.9600182  37.6009440  35.9129882  68.2747841  37.1514297  35.1943183
  68.3469868  37.4100757  37.3601413  69.0672684  37.7259660  38.1147957
  67.4257517  37.9709387  37.5178266  68.1635189  35.9449267  37.5714231
  67.2828674  35.2072597  36.7758965  66.7381811  35.7845163  36.0434413
  66.9520760  33.8994455  37.1550012  66.2177134  33.2941270  36.6444111
  67.5843096  33.2936621  38.1957936  67.2323227  32.0121121  38.4394884
  67.4515152  31.3851786  37.7462983  68.5502863  33.9025903  38.9571071
  69.1431618  33.4514856  39.7390318  68.8889217  35.1817560  38.5957694
  69.6869278  35.6508303  39.1521525  69.0455151  39.0531850  35.3806233
  70.1646519  39.5338798  35.1769042  67.9490519  39.7165799  35.0620222
  67.1110153  39.1559505  35.1211452  67.8069258  41.1055994  34.5850635
  68.5944891  41.7142057  35.0294089  68.0695820  41.2156057  33.0289006
  67.9940367  42.2554398  32.7108717  69.0343523  40.8448601  32.6826906
  66.9999123  40.5424643  32.4370766  67.0904207  39.6029186  32.6122022
  66.4418030  41.6012716  34.9515676  65.5799341  40.8713627  35.4823446
  66.1993551  42.8895712  34.6855855  66.9228601  43.5623932  34.4759488
  64.8483181  43.4017611  34.7291613  64.6530724  43.4474325  35.8005595
  64.6959496  44.8498487  34.0825701  65.3954506  45.5583096  34.5262909
  64.9693775  44.6900368  33.0395937  63.2922077  45.4042768  34.1625190
  62.7028370  45.5050755  35.4284382  63.2482624  45.2392340  36.3218808
  61.4149952  46.0209179  35.5509210  60.9345961  46.0644865  36.5172100
  60.5846262  46.2888670  34.4733214  59.3083811  46.8146849  34.5062566
  59.1811943  47.4200487  35.2403927  61.1700201  46.1813688  33.2292652
  60.5646372  46.4064598  32.3636746  62.4502707  45.6738281  33.0619001
  62.8535509  45.6308794  32.0609403  63.7861967  42.4818420  34.0331078
  62.7646589  42.1230364  34.6255231  64.0249062  42.0052338  32.7851176
  64.9355745  42.1679592  32.3797679  62.9589558  41.1171150  32.1293783
  62.0254135  41.6771507  32.0749617  63.4816933  40.8952427  30.6911302
  64.4370031  40.3739691  30.7524681  62.6240349  40.1247454  29.6430039
  63.2875347  39.7583032  28.8596845  62.2265577  39.2272425  30.1169205
  61.8017340  40.6954145  29.2114282  63.5274220  42.1361589  30.1625180
  64.4336462  42.4527311  30.1739907  62.6996374  39.8050046  32.8481436
  61.5736151  39.3851995  32.8823924  63.7025261  39.2971897  33.5707307
  64.5911312  39.7740722  33.6261010  63.5628605  38.0684209  34.4003415
  62.9537916  37.3150897  33.9007163  64.9346733  37.4021864  34.7205448
  65.4597092  38.1398916  35.3273630  64.7034836  36.4885926  35.2682638
  65.7309437  37.1359372  33.4310484  65.3842926  36.0714221  32.8552556
  66.7642355  37.7870798  33.0891585  62.8541756  38.3910608  35.7384443
  62.1121168  37.5844121  36.3228250  63.0707455  39.5752859  36.2503958
  63.7234306  40.1680660  35.7577395  62.4483681  40.0960207  37.5231981
  62.4963903  39.3085027  38.2752705  63.0681849  41.3697433  38.0141377
  64.0697145  41.1539555  38.3862638  63.2265520  42.0197105  37.1535730
  62.4236298  42.0155573  39.1730404  61.7390251  41.2382126  40.1213455
  61.6477776  40.1622915  40.0995874  61.1045504  41.9646120  41.2087345
  60.4827833  41.5244102  41.9742584  61.1693192  43.3801889  41.3712692
  60.6593943  43.8834715  42.1794081  61.9200277  44.0862131  40.4174995
  61.9743967  45.1605940  40.5131865  62.6084280  43.3868265  39.4071484
  63.2045746  43.9707041  38.7215137  60.9717607  40.2943277  37.1491194
  60.1160240  39.8714566  37.8789091  60.6321430  40.9964848  36.0596299
  61.3294697  41.5271139  35.5573678  59.2830515  41.1646175  35.6308579
  58.7417221  41.7396450  36.3821244  59.2670393  42.0146132  34.3381810
  59.5540524  43.0217648  34.6404576  59.9399853  41.5563250  33.6134601
  57.9582977  42.1986580  33.5858345  57.4132919  41.2554836  33.6245275
  57.3969221  43.0100107  34.0491581  58.2289267  42.4430847  32.0791578
  59.1988325  43.1367779  31.7043233  57.5597000  41.7117977  31.2431407
  57.6922321  41.8283319  30.2486753  56.7704344  41.1527395  31.5340281
  58.6265516  39.7590232  35.5283737  57.5228643  39.5382094  36.0552120
  59.2922020  38.8125849  34.8075128  60.2029943  39.0104961  34.4184303
  58.8281679  37.4123693  34.6795130  57.9288912  37.3839450  34.0642071
  59.8049164  36.3601828  33.9817548  60.3706646  36.9366956  33.2498646
  60.5208540  35.8431888  34.6206999  59.0670395  35.2489924  33.2453847
  58.5767126  34.6187162  33.9872956  58.3573198  35.6976485  32.5503230
  60.1389074  34.3984103  32.5090671  60.7529879  34.9806786  31.8220639
  60.9080887  34.1062021  33.2239652  59.5197773  33.2199478  31.8381047
  58.9937258  32.5836706  32.5498056  58.7387180  33.7273097  31.2718630
  60.4251242  32.5098896  31.0078549  59.8811293  31.7996049  30.5391765
  61.0036135  33.0161738  30.3527713  61.0023975  31.9352198  31.6050267
  58.4186459  36.8027544  36.0205126  57.3251295  36.2527132  36.1463165
  59.3152046  37.0373082  36.9859719  60.2331638  37.4010730  36.7735267
  59.1355610  36.5050054  38.3817434  58.7864208  35.4754996  38.3022404
  60.3902674  36.5631962  39.2527533  60.3661299  36.1957359  40.2786636
  61.0707808  35.9228182  38.6915779  60.8698225  37.5395608  39.1831779
  57.9881191  37.2020626  39.0484285  57.0700407  36.4963818  39.5695472
  57.8874207  38.5600686  39.0598440  58.6142254  39.1676497  38.7095547
  56.6967678  39.1593051  39.6796751  56.6230774  38.7157941  40.6726360
  56.9379234  40.6798983  39.9202871  57.6786327  41.0584021  39.2158842
  55.8111763  41.7397785  39.8422360  55.4320383  41.7972469  38.8219166
  54.9718046  41.6301727  40.5289268  56.2589073  42.7270937  39.9555707
  57.5627565  40.8919668  41.3231134  56.9868565  40.6045723  42.2028017
  58.4919453  40.3254747  41.3847113  57.9464722  41.9077492  41.4182234
  55.3767014  38.8427591  38.9419389  54.3532515  38.7587690  39.6005774
  55.4017973  38.6926341  37.5680184  56.3081837  38.8472104  37.1500731
  54.1412115  38.2797980  36.7933655  53.2706785  38.8937330  37.0243597
  54.3598557  38.2949352  35.2652121  55.3340435  37.9509401  34.9177575
  53.6406231  37.5826406  34.8609233  54.0736389  39.6527243  34.6515608
  52.9736805  39.9485040  34.0893173  55.0675011  40.4987860  34.6769524
  54.9121618  41.3481808  34.1530228  55.9434843  40.1899910  35.0736928
  53.6550093  36.9513607  37.2726393  52.4444580  36.7456079  37.4781060
  54.5775747  35.9749651  37.4419427  55.5235481  36.2989640  37.5842643
  54.3161631  34.6911812  38.0442953  53.5325050  34.2474174  37.4302459
  55.6276035  33.8223743  38.0610585  56.0816622  33.7800550  37.0710397
  56.3077354  34.2770100  38.7813520  55.3103161  32.3665977  38.3737540
  54.9103117  32.3761487  39.3876600  54.6061563  31.9271445  37.6672578
  56.7287350  31.5731597  38.2716227  57.2925043  31.7364883  37.3531508
  57.3172474  32.0964026  39.0252638  56.4717531  30.0890517  38.6106396
  55.9193659  29.9673486  39.5423889  55.9302092  29.7421861  37.7305746
  57.7044630  29.3654156  38.6288977  58.2290173  29.4018555  37.7665591
  58.2940960  29.7736073  39.3401051  57.5054741  28.3784556  38.7089825
  53.5962677  34.7554517  39.3450904  52.5013161  34.2217517  39.5489979
  54.2330074  35.4250526  40.3021908  55.2267694  35.5876803  40.2241707
  53.6255074  35.7672954  41.6167355  53.4574080  34.8930669  42.2456789
  54.7227287  36.6661000  42.2881985  55.6469822  36.1134028  42.4566698
  54.8808336  37.4544716  41.5522766  54.2157888  37.2362614  43.6545610
  53.1565142  37.4784756  43.7404060  54.3958855  36.1721539  44.7191620
  55.4602242  35.9529138  44.8040915  54.1719246  36.4884830  45.7379293
  53.7737465  35.3138423  44.4655037  54.9231005  38.5668373  43.9502287
  54.6545410  39.1786313  43.0890179  54.5388556  39.0997458  44.8199797
  55.9822655  38.3131218  43.9066410  52.2333574  36.3546610  41.4958954
  51.2839365  35.8529043  42.1532154  52.0133591  37.3445892  40.6750393
  52.8448486  37.8081870  40.3376818  50.7082558  37.9814053  40.4644632
  50.2885628  38.2903171  41.4218187  50.8951187  39.1684747  39.4313836
  51.4165401  38.9510536  38.4992099  49.9366903  39.4614291  39.0027928
  51.5674019  40.4846334  39.9098396  52.5670433  40.1854181  40.2249289
  51.7064047  41.6297102  38.9743638  52.4496651  42.2893858  39.4221258
  51.9789934  41.3244486  37.9641104  50.7827091  42.1675062  38.7606764
  50.8240891  41.1765671  41.1210966  51.3883924  42.0857430  41.3285923
  49.8209000  41.4493656  40.7935286  50.7262707  40.5342960  41.9963264
  49.6698189  37.0247984  39.9193621  48.5300779  37.0081186  40.4867125
  49.9829483  36.1295128  38.9750671  50.9563208  36.1757970  38.7095428
  49.0924215  35.0560904  38.5838890  48.0948830  35.3266931  38.2377768
  49.8380804  34.3586326  37.3656011  50.8052540  33.9861584  37.7031541
  48.9876413  33.1956434  36.7783356  47.9731512  33.5659862  36.6308451
  49.3750334  32.8439069  35.8221436  48.9042664  32.3927522  37.5108123
  50.0326061  35.2823973  36.3107467  50.9127998  35.1072598  35.9698892
  48.8454390  33.9632773  39.6683884  47.7271938  33.4505677  39.7865558
  49.7641897  33.5450292  40.5306053  50.6549072  33.9794970  40.3357601
  49.5800638  32.8390384  41.8045950  48.9078951  32.0144773  41.5671158
  51.0131454  32.3535132  42.2496176  51.5109587  31.7890620  41.4611435
  51.5369320  33.2908225  42.4372244  50.9721470  31.7933607  43.1837702
  48.7705755  33.6443734  42.8542471  48.1741047  32.9919314  43.7292814
  48.7537003  34.9662399  42.7890253  49.4537640  35.3446913  42.1671057
  47.9945278  35.9303784  43.6204147  47.8323698  35.4837847  44.6014166
  48.8613605  37.2266316  43.9669228  48.9230728  37.8389716  43.0672979
  48.4396982  37.8399301  44.7632742  50.2005386  36.8834591  44.3016291
  50.6529331  36.3205934  43.6690807  46.6810703  36.4176631  43.0363703
  46.0744858  37.3187661  43.6072063  46.2208700  35.8524752  41.9021749
  46.8864012  35.2216625  41.4787960  44.8645926  35.9900689  41.2871170
  44.4182301  36.9840240  41.3173866  44.9026346  35.6390905  39.7819448
  45.4962111  34.7325778  39.6636295  43.9107513  35.3969598  39.4003129
  45.4118156  36.7482781  38.8743448  46.3463259  37.1969485  39.2112207
  45.6822538  36.1495256  37.4527383  44.7681093  35.7472491  37.0161366
  46.1780596  36.8672776  36.7991996  46.4009523  35.3351235  37.5439548
  44.4146013  37.9497504  38.7787724  44.7617245  38.5853243  37.9641175
  43.3711481  37.7273750  38.5555100  44.4954681  38.4898067  39.7221184
  43.8474083  35.1355505  41.9941807  42.6568985  35.5339646  42.2363710
  44.1167116  34.0079832  42.3654032  68.4178972  46.1058474  35.9281898
  45.2585173  51.7578220  86.1834240  45.1144123  50.7696962  86.3349056
  45.6653929  52.0616341  87.0564938  46.0139608  51.8505001  85.5194855
  43.9881849  52.4562788  85.8061123  43.2168818  52.1203804  86.4991951
  43.9876938  53.9977455  85.9280968  43.0171680  54.3975592  85.6342793
  44.3021202  54.4588661  87.3045921  43.5879230  53.9978981  87.9868889
  45.3336668  54.2500687  87.5881767  44.1364861  55.5362082  87.3038197
  45.0086021  54.5042467  85.1144218  44.5309448  54.8435068  84.3539238
  43.5829258  52.0484829  84.3996620  44.3833256  51.9925880  83.4704781
  42.3410320  51.7684317  84.1755104  41.6723347  51.8822432  84.9238300
  41.8508339  51.0142183  82.9934883  42.2834301  50.0146389  83.0359459
  40.3514433  50.9925938  83.1550026  40.0395966  52.0368242  83.1339836
  39.8005676  50.5812120  82.3091888  39.8280644  50.1621914  84.2937660
  40.0573587  49.0113926  84.2987537  39.0302253  50.6944513  85.2237034
  38.6333418  49.9037361  85.7108879  38.7089348  51.6408491  85.3693008
  42.1754074  51.5651131  81.6408443  42.6238155  50.7855511  80.7972717
  42.1170998  52.8881645  81.3528538  41.8497181  53.5481405  82.0691204
  42.5581360  53.4958982  80.1108837  42.0914268  53.0577612  79.2286491
  42.1297264  54.9915695  80.1445484  42.5111866  55.5930519  80.9696579
  42.4870825  55.3074169  79.1644335  40.6154013  55.1133966  80.1258659
  40.2705479  54.4631100  79.3219376  40.2141285  54.7284126  81.0633469
  40.1503992  56.5948009  79.9743414  40.8560944  57.5408840  80.2409554
  38.8642645  56.7832375  79.6233177  38.4038687  57.6448870  79.8796368
  38.2768750  56.0494471  79.2537069  44.0916920  53.3792210  79.9148035
  44.5573330  52.9308510  78.8232136  44.8412037  53.8275671  80.8605671
  44.4978285  54.1132927  81.7664051  46.3616323  53.6387825  80.7487774
  46.6654205  53.8258934  79.7188187  47.1249437  54.5602179  81.7245483
  46.7445755  54.4047308  82.7341270  48.1912518  54.3747091  81.8536949
  46.9133091  56.0558796  81.3941860  45.8424330  56.2132359  81.2654591
  47.3774576  56.8182850  82.5920868  48.4340000  56.6163492  82.7682400
  47.2964096  57.8901815  82.4115849  46.8112612  56.5665960  83.4888458
  47.5913668  56.5428734  80.0921917  47.6564360  57.6301384  80.1337337
  48.6149836  56.1863756  80.2071476  47.0490885  56.2299490  79.1999340
  46.8369961  52.1895695  80.7552052  47.8292608  51.8854427  80.0797939
  46.0859203  51.2259340  81.3281918  45.2116823  51.4928484  81.7578030
  46.3907433  49.8108244  81.1461830  47.4564934  49.6396208  81.2977409
  45.5661392  48.8356447  82.1437073  44.5896959  49.3118858  82.0551014
  45.6086159  47.7907467  81.8363285  45.9780979  48.9061213  83.6017132
  46.7457485  48.1486797  83.7601471  46.3878345  49.9051428  83.7506104
  44.7516346  48.6191940  84.4658756  44.5900488  49.2915440  85.4674911
  43.9103937  47.6809454  84.1963768  43.1338882  47.5079203  84.8186398
  44.1433477  46.9997597  83.4879875  46.0799932  49.3442822  79.7505093
  46.8128538  48.5617876  79.1927147  44.9574614  49.7938204  79.1425371
  44.3521929  50.3852606  79.6938515  44.6006966  49.5032310  77.7318382
  44.6204567  48.4163380  77.6520300  43.1523657  49.9442434  77.5166559
  42.5189543  49.5489645  78.3107901  43.0735159  51.0135174  77.7129507
  42.6862478  49.6509886  76.0652828  42.0142317  48.4611511  75.8211327
  42.1101570  47.7966785  76.6671085  41.4601040  48.2348824  74.5286179
  40.9849930  47.2698927  74.4313383  41.7079687  49.0900946  73.4554482
  41.2810612  48.8287020  72.1831083  41.2643385  49.6801901  71.7400646
  42.4339199  50.2840710  73.7199926  42.6446629  50.9892130  72.9295731
  42.8139925  50.5872774  75.0205469  43.2282543  51.5452242  75.2982569
  45.6058979  50.1235247  76.7531347  45.9044456  49.5215607  75.7180738
  46.1145020  51.3074350  77.0314741  45.7359552  51.7458630  77.8588724
  47.3146629  51.7980099  76.3068914  46.8245792  51.8282747  75.3337526
  47.6696444  53.1764650  76.9655609  47.4973297  53.1597662  78.0417252
  48.7479210  53.2416058  76.8200445  47.1749401  54.4909143  76.3163328
  47.7153587  55.3258419  76.7623711  47.5216627  54.4970417  74.8502493
  46.9316578  53.7498522  74.3194914  47.3550463  55.4657507  74.3791389
  48.5331106  54.0954256  74.7887897  45.7203484  54.8605585  76.5450573
  45.0857973  54.0867233  76.1130571  45.4214668  55.1284647  77.5584698
  45.6673813  55.8483267  76.0872221  48.5397434  50.8618450  76.3397169
  49.0089798  50.4370260  75.3230572  49.0015697  50.5548906  77.5585556
  48.4159994  50.8120823  78.3402586  50.2390480  49.8074102  77.8533268
  51.0676956  50.3439331  77.3911715  50.4918480  49.8495531  79.4305706
  50.6232214  50.8771515  79.7695208  49.6445465  49.4300508  79.9729681
  51.7092085  49.0449715  79.8414516  51.4804697  48.0013466  79.6255016
  53.1115627  49.3941593  79.1259623  53.3639860  50.3834391  79.5076799
  53.8972092  48.7318373  79.4895315  53.0145788  49.3020105  78.0442095
  51.9657850  49.1998816  81.3252354  51.1623812  48.8168335  81.9544506
  52.7404261  48.5199881  81.6798782  52.2600698  50.1955271  81.6571617
  50.2422380  48.3526373  77.2592163  51.1908674  47.8615189  76.6574335
  49.1141891  47.6206207  77.3810577  48.4501934  48.0201960  78.0287886
  49.0149117  46.1825275  77.1088552  50.0089455  45.7368898  77.1462440
  48.1740570  45.4889727  78.2408285  47.2623348  46.0634947  78.4044790
  47.8141117  44.5103979  77.9231071  48.9875889  45.5129147  79.5781803
  49.9382925  44.9964905  79.4456196  49.2177010  46.5471745  79.8340225
  48.0502367  44.8951054  80.5489731  47.1087122  45.4198217  80.7111740
  47.8633785  43.8748312  80.2139664  48.6409330  44.7463417  81.8383121
  49.5572186  45.1587915  81.9403267  47.9261923  44.3620062  82.9125404
  46.8101406  43.7080812  82.7985382  46.2813520  43.5511780  81.9524479
  46.2320852  43.5417080  83.6098766  48.4095573  44.5743608  84.0937805
  49.0950680  45.3160810  84.0991688  47.8805399  44.4328642  84.9424362
  48.4973145  45.9176922  75.7062626  48.6941290  44.7903872  75.2818727
  47.8479481  46.8463945  74.9832821  47.6994562  47.7348757  75.4400730
  47.1002722  46.5902662  73.7611389  47.4051380  45.5916882  73.4480810
  45.6020975  46.5640593  74.0253115  45.2909565  47.5889540  74.2275333
  44.9242306  46.1627245  72.6899385  43.9391565  45.7059336  72.7851582
  44.7858906  47.0487833  72.0703650  45.4697990  45.5755138  71.9512749
  45.1466036  45.6567144  75.1313782  45.6352806  44.6859694  75.0480461
  45.4815292  46.1109447  76.0639048  44.0569592  45.6672144  75.1056194
  47.5552177  47.5821638  72.6670361  48.0984592  47.0475578  71.6796494
  47.3662424  48.9094400  72.8684807  47.0911884  49.1461754  73.8110352
  47.7683687  49.9455023  71.9424486  47.2661114  49.7649956  70.9920502
  47.1709204  51.2959003  72.3813200  47.7403212  51.6937923  73.2213020
  47.0923662  52.3173428  71.2666893  46.6261911  51.9159508  70.3668737
  46.5435886  53.1648111  71.6774797  48.0853558  52.6901817  71.0155725
  45.7178640  51.2544012  72.8834534  44.9206114  51.3213968  72.1431828
  45.4633236  50.4450083  73.5677004  45.5952215  52.1492910  73.4935570
  49.2942905  49.9794149  71.7113161  49.7272635  50.0896215  70.5916786
  50.1215792  49.8173809  72.7767897  49.6643257  49.8389339  73.6771011
  51.5357447  49.6756077  72.5687027  51.9606590  50.5518532  72.0790625
  52.3676300  49.6190596  73.8785744  51.8495464  50.2638912  74.5884228
  52.3785639  48.5929108  74.2460012  53.8334656  50.1890039  73.9212227
  54.2943907  50.0995255  74.9049187  54.8429251  49.6265268  72.8742361
  54.4623470  49.7896385  71.8659449  55.7366800  50.2370548  73.0029488
  55.0558758  48.5646534  72.9974461  53.8592196  51.6734600  73.6376905
  54.9025488  51.9744062  73.7325478  53.5326052  51.7260647  72.5991058
  53.2053757  52.1435261  74.3722820  51.9104671  48.5237312  71.6317463
  52.6332617  48.6487627  70.6690788  51.3423681  47.3570919  71.9680357
  50.6876755  47.4546385  72.7309036  51.6418600  46.0286331  71.3221359
  52.7256203  45.9186840  71.3604450  50.9208822  44.8743916  72.0406818
  49.8595715  45.1227427  72.0343924  51.0723972  43.9948177  71.4149857
  51.3528061  44.6850872  73.5004091  50.9020281  45.5110216  74.0506172
  50.9032917  43.7477875  73.8282919  52.8796148  44.6698236  73.7722683
  53.3150005  44.3283081  72.8331709  53.2024765  45.7102299  73.8099718
  53.3184147  43.9397907  75.0500059  52.7784729  44.3422651  75.9070826
  52.9011965  42.9333353  75.0172091  54.7596931  43.9524174  75.2708769
  55.2666283  43.6496830  74.4514370  55.0700903  44.8797178  75.5235958
  54.9070168  43.2849884  76.0144758  51.1497784  46.0011101  69.8860979
  51.8241596  45.4233646  69.0438414  50.0330639  46.6723013  69.6199417
  49.5067835  47.0991278  70.3689146  49.4785357  46.7201614  68.2478094
  49.4298744  45.6989717  67.8697777  48.0280828  47.2929859  68.2882929
  48.0690956  48.3389473  68.5922337  47.3715401  47.1760702  66.8953466
  47.3079014  46.1251974  66.6130018  46.3300705  47.4939919  66.9440317
  47.8381681  47.8252697  66.1544800  47.1817446  46.5379143  69.1478348
  47.5272179  46.4747572  70.0412893  50.2981663  47.6095772  67.3047543
  50.3705311  47.2595549  66.1164808  51.0028505  48.6047029  67.8823376
  50.7924414  48.9350414  68.8133097  52.1096277  49.3036985  67.1058369
  51.8498659  49.4011784  66.0517406  52.2069073  50.7525587  67.5412750
  52.5665045  50.7904482  68.5695553  52.9743481  51.0899401  66.8446350
  50.8519268  51.6103172  67.4965525  50.0925350  51.1522436  68.1302738
  51.2254858  52.9547024  68.0854702  51.9402838  53.5654402  67.5339651
  50.3172684  53.5520267  68.1657839  51.7026472  52.7328682  69.0400410
  50.2821159  51.5669727  66.0814476  51.0100079  51.8600416  65.3248882
  49.8895121  50.5674648  65.8944988  49.4490242  52.2696018  66.0621309
  53.4390306  48.5364771  67.1000862  54.0165663  48.3562660  66.0310984
  53.9195538  48.1715202  68.2740688  53.3881426  48.3224154  69.1196060
  55.3029490  47.6725769  68.4841681  56.0017300  48.4807730  68.2682467
  55.4954195  47.2339010  69.9634743  55.3544998  48.1854010  70.4762030
  54.7416162  46.4938498  70.2321863  56.8668222  46.7201090  70.2362776
  57.3198271  45.4730558  70.0384378  56.6357422  44.7205162  69.6749592
  58.6138535  45.4137897  70.5958462  59.0615416  44.5561171  70.8857918
  59.1121149  46.6458225  70.9953785  60.3565788  47.0717287  71.3867474
  61.0636759  46.2696886  71.5388918  60.4604197  48.4402514  71.7891788
  61.3722992  48.8802862  72.1649981  59.3461704  49.2829657  71.5706158
  59.4778395  50.3366947  71.7673874  58.1707478  48.8323736  71.0772753
  57.3737335  49.5280218  70.8599186  57.9646349  47.4886227  70.7310724
  55.7096195  46.5437412  67.5620461  56.8561316  46.5713358  67.0691156
  54.8965359  45.5102825  67.3453236  53.9711523  45.5400705  67.7489090
  55.2016258  44.3117666  66.5150833  56.2628317  44.0817595  66.6101027
  54.4005108  43.1339407  67.0065832  53.3868170  43.3477068  66.6677189
  54.7996521  42.2092867  66.5896893  54.5108747  42.9705048  68.5550785
  55.5312157  42.7033997  68.8301373  54.2055750  43.8870287  69.0599298
  53.6938763  41.8221235  69.1280174  54.1513109  40.9365606  68.6868477
  53.8957739  41.8310785  70.1991177  52.1852446  41.9004774  68.7378216
  51.9773960  42.9688406  68.7970352  52.2077322  41.5200043  67.7166271
  51.2532711  41.1852884  69.6049213  51.5604687  41.0568285  70.5584574
  50.3412485  41.6175652  69.6431351  51.1592531  40.2416658  69.2573023
  54.8948145  44.4991207  64.9778080  55.1900434  43.5910177  64.2452383
  54.3866777  45.6373405  64.6216726  54.2164755  46.3230038  65.3434706
  54.1666412  46.0656643  63.1802273  53.5946751  45.2890205  62.6725054
  53.2641411  47.3058510  63.0878782  52.4103642  47.0709562  63.7234783
  53.7785673  48.1757545  63.4962177  52.7591801  47.7340651  61.7894983
  53.6118889  48.1091022  60.7155848  52.7529860  48.5301638  59.7234583
  53.1775236  49.0112686  58.8547182  51.4754915  48.2034779  60.0627232
  50.6748438  48.1468725  59.4496489  51.4465523  47.7343750  61.3700628
  50.6443071  47.4669743  62.0418501  55.5340767  46.1741543  62.4367237
  56.5655994  46.6844654  62.9830503  55.6382799  45.6817675  61.2136507
  54.8184776  45.3200674  60.7476091  56.8931913  45.6272316  60.4938269
  57.6011705  45.1541662  61.1743212  56.7918587  44.8282814  59.1606760
  56.0658216  45.3986454  58.5813189  57.6954460  45.0788736  58.6049557
  56.5868235  43.2779264  59.2695332  56.7946625  42.9845238  60.2985191
  55.5557156  43.1553650  58.9380169  57.5602341  42.5062752  58.3802605
  58.4021044  43.0293798  57.6330328  57.5081110  41.2096024  58.4456778
  58.2444477  40.7243347  57.9533052  56.7979097  40.7417774  58.9905262
  57.4554205  47.0634222  60.2050209  58.6846066  47.2079182  60.0935793
  56.6514158  48.1209278  60.0753164  55.6798172  47.8462315  60.1006174
  57.0686531  49.5146942  59.7964716  57.9539633  49.5475197  59.1614485
  55.8949327  50.3493214  59.3316936  55.0161743  50.2195501  59.9633884
  56.1737585  51.3880539  59.5088577  55.4718447  50.1641560  57.8583622
  56.3265896  49.5734835  56.9091654  57.2565460  49.0865898  57.1631765
  55.8482695  49.3212175  55.6274700  56.5896273  48.8276196  55.0166082
  54.5619345  49.7463417  55.1650190  54.2045546  49.5181322  54.1717386
  53.7450123  50.4947281  56.0201788  52.7919006  50.9349394  55.7668257
  54.2972612  50.7008314  57.3916292  53.6381769  51.1047268  58.1458712
  57.6516104  50.0601530  61.0726833  58.3139324  51.0676861  61.0209417
  57.4036026  49.4304180  62.2610712  56.8946648  48.5607338  62.3298550
  57.7300787  50.0970078  63.5395956  57.3383856  51.1132860  63.5826349
  56.9437218  49.4574833  64.7006559  56.9127846  50.2041531  65.4941463
  55.9165335  49.1567469  64.4944000  57.4400377  48.5725355  65.0989532
  59.2476177  50.2927303  63.8823128  59.5156670  51.0665989  64.8384333
  60.2335119  49.7753239  63.2185316  60.0317764  49.3864202  62.3085022
  61.6454172  49.8000526  63.5351562  61.5731907  49.3017149  64.5018768
  62.4808979  48.9313364  62.6387930  63.4932089  48.8248682  63.0286551
  61.9729328  47.9669857  62.6290560  62.4627972  49.3497181  61.1769962
  61.5696096  49.0115738  60.2296400  60.6900740  48.3918858  60.3234768
  61.9141769  49.5999908  59.0629721  61.3249350  49.4406891  58.2582903
  63.0982733  50.2884579  59.1178942  63.9675331  50.9525061  58.2293367
  63.7308121  51.0476112  57.1798944  65.1283169  51.4983749  58.7799644
  65.7771826  51.9832850  58.0656576  65.4553175  51.4121580  60.1135063
  66.4355326  51.6546488  60.4966259  64.5606947  50.7705641  61.0068226
  64.8014975  50.7078028  62.0577621  63.4287310  50.1480007  60.4711056
  62.3548508  51.1867905  63.6297321  63.3206987  51.2037373  64.3771362
  61.8967152  52.3282051  62.9893827  61.0149908  52.3521376  61.8397427
  60.0249672  52.1713209  62.2583818  61.1632538  51.5464640  61.1206961
  61.1397076  53.7167025  61.3133907  60.3337383  54.3863630  61.6134977
  61.1159992  53.6709881  60.2246094  62.4532080  54.3170977  61.8660307
  62.3970270  55.3987455  61.9884443  63.3150244  54.0352106  61.2611151
  62.5156975  53.6263704  63.1944132  63.5737276  53.5314703  63.4386826
  61.8341112  54.4154978  64.3508959  62.2917557  55.4900074  64.7473240
  60.7316780  53.9634418  64.7917843  60.3559160  53.1459427  64.3328667
  59.9510145  54.4851828  65.9858656  60.2520227  55.5026770  66.2352657
  58.4751892  54.6629477  65.6650162  58.0473948  53.6611795  65.6256247
  58.0170059  55.2233648  66.4799404  58.2749653  55.4730129  64.3906975
  58.0740643  54.8241806  63.1781721  58.2874775  53.7699747  63.0806732
  57.7732372  55.6337261  62.0201111  57.6557398  55.1697874  61.0519361
  57.6031590  57.0312548  62.0278549  57.3279953  57.5981140  61.1507225
  57.7545929  57.6307058  63.2735491  57.6421404  58.7018108  63.3541298
  58.0503845  56.8649244  64.4612312  58.1722069  57.2859383  65.4483032
  60.0856209  53.7217283  67.2721767  59.6476364  54.2269373  68.2849407
  60.7365131  52.5730658  67.3369980  60.8915043  52.1247005  66.4453411
  60.9288502  51.8052673  68.5376358  59.9269390  51.6810179  68.9485359
  61.4663982  50.3769207  68.1430054  62.2229862  50.4415035  67.3610163
  62.0315790  50.0051641  68.9976835  60.3765392  49.3868017  67.8483391
  59.8438358  49.1899681  68.7787056  59.7118855  49.9435043  67.1877146
  60.7850933  47.9638481  67.3587322  61.8479252  47.7502823  66.7856884
  59.9466467  46.9836187  67.4546051  60.2767944  46.0721207  67.1712780
  58.9578581  47.1360064  67.5930929  61.8188810  52.4857330  69.5141602
  61.7248440  52.0923901  70.6594992  62.6827812  53.4357166  69.1690969
  62.7446890  53.7551260  68.2129288  63.7386703  53.9314890  70.0813580
  63.4725046  53.8083267  71.1311626  65.0473452  53.0161190  69.9059916
  65.8588266  53.3043528  70.5742168  64.7176647  52.0316553  70.2380133
  65.7579899  52.8804588  68.5551500  66.0422516  53.8916063  68.2638216
  66.7256355  52.3938513  68.6775255  64.9483681  52.0335340  67.4752951
  64.5410061  50.8694744  67.6896811  65.0006580  52.4535561  66.2740993
  64.5255566  51.9124603  65.5658674  65.5492449  53.2829380  66.0972500
  63.9778757  55.3826332  69.6636772  63.4801817  55.8102608  68.5909033
  64.6057034  56.1696482  70.4967785  64.9982691  55.8349466  71.8102646
  65.8977938  55.2194023  71.8181038  64.2437744  55.2951384  72.3824930
  65.4304028  57.1291685  72.4145412  66.3222885  56.9856167  73.0244827
  64.5770216  57.4923468  72.9872084  65.7990408  58.0283451  71.2951183
  66.8665934  57.8598738  71.1535311  65.4812860  59.0535736  71.4849615
  64.9449921  57.5790644  70.1317263  64.0516853  58.2005453  70.1938868
  65.6274557  57.8998184  68.8059473  66.6000319  57.2635508  68.4018707
  65.1818275  58.9932060  68.1370592  64.5046091  59.6180677  68.5506153
  65.7319355  59.3755770  66.8348360  66.0032129  58.4904242  66.2594938
  64.7195673  60.1575518  65.9557581  64.3462515  61.0423708  66.4713478
  65.2059746  60.7662821  64.6059322  64.3418169  61.0786152  64.0196085
  66.0132885  61.4628601  64.8320532  65.6622028  59.9522924  64.0425587
  63.5107470  59.2036343  65.7749796  63.9002705  58.2484341  65.4229021
  63.0577660  58.9509630  66.7336607  62.8158045  59.6401882  65.0576401
  66.9791365  60.1947021  67.1676683  66.8330956  61.3509655  67.5391293
  68.1483650  59.5217991  67.1325397  68.1466484  58.6032248  66.7126226
  69.4392824  60.1119614  67.5489235  69.3162107  60.6253386  68.5025501
  70.3548431  58.9287806  67.9534626  69.8800993  58.2059765  68.6169958
  70.5698204  58.4229040  67.0122004  71.7009783  59.3676138  68.6562634
  72.2772646  60.4849625  68.4259748  72.2273111  58.6401176  69.5271730
  70.0226498  61.0006046  66.5289545  70.6567335  60.5591345  65.5850077
  69.8532867  62.3233747  66.7935753  69.5430088  62.6594734  67.6940584
  70.0879669  63.3222103  65.7805967  69.5016146  63.0978870  64.8895454
  69.5050716  64.6387053  66.1792755  70.0326920  65.0643730  67.0328140
  69.4904852  65.3587198  65.3610659  68.4476948  64.6738195  66.4416075
  71.5720606  63.2669640  65.2952671  71.9265652  63.4782076  64.1810989
  72.5290966  63.0238581  66.2053871  72.2276115  62.8262711  67.1488714
  73.9286470  62.9113626  65.8245611  74.0542364  63.7974167  65.2022791
  74.9561882  62.9855633  66.9305658  74.8192406  62.0774555  67.5176620
  76.3507509  63.0224705  66.3741970  76.4058018  63.7984514  65.6107044
  77.0668459  63.1703806  67.1825504  76.6938782  62.1145964  65.8780766
  74.7412443  64.2399597  67.8543425  75.1781225  65.1401949  67.4221182
  73.6961365  64.5383930  67.9367161  75.1230860  64.0322685  68.8539219
  74.2374611  61.7072201  64.9684811  74.6261215  61.8664360  63.8155794
  73.9360476  60.5197763  65.4467010  73.4750175  60.3973818  66.3369656
  74.0898180  59.2368031  64.7863865  75.1484489  59.0551043  64.6009636
  73.6435223  57.9886246  65.6708670  72.6390028  58.2093382  66.0318613
  73.7801981  57.0643330  65.1095295  74.5620680  57.8991556  66.8356800
  75.5869627  57.8565502  66.4670706  74.3355513  58.7166262  67.5201750
  74.2521095  56.6354084  67.7071476  73.1755400  56.6416502  67.8776264
  74.5085859  55.7185078  67.1764755  75.1170301  56.5505505  69.0080786
  74.7280550  55.7574511  69.6466637  76.1832237  56.3834476  68.8550425
  75.0054359  57.8048134  69.8000193  74.0523148  58.0939531  69.9675226
  75.4482365  57.6198530  70.6887341  75.4770470  58.5766935  69.3507051
  73.3858156  59.1423607  63.4068680  73.9289236  58.3763981  62.5921917
  72.2525120  59.8003340  63.2301235  71.8603802  60.2763319  64.0299702
  71.5490007  60.0516176  61.9456863  71.8113041  59.1642761  61.3695478
  70.0255346  60.0294256  62.0897770  69.7576475  60.6868410  62.9169035
  69.7104645  60.3201771  61.0876322  69.4236088  58.6249113  62.2506666
  69.7560644  57.9880476  61.4309263  69.6700382  57.8275251  63.5713625
  69.5164347  58.3292627  64.5267487  69.0069389  56.9751453  63.4235525
  70.6759787  57.4236298  63.4570980  67.8753519  58.8699675  62.1242189
  67.6302290  59.4007254  61.2042665  67.4295664  57.8761005  62.0840549
  67.4555969  59.2876530  63.0393410  71.9723558  61.2991667  61.1412716
  71.4338398  61.5131474  59.9998617  72.9638672  62.0525599  61.6536713
  73.2334805  61.8591642  62.6076174  73.4052277  63.2825089  61.0324812
  73.9430428  63.8374329  61.8011904  74.2515421  62.8054571  59.8193407
  74.9422789  62.0013428  60.0730801  73.6511564  62.3190403  59.0505505
  75.0667048  63.8171673  59.1637564  75.6641960  64.6929121  59.8161983
  75.3744125  63.6716652  57.8669071  75.7000399  64.5347643  57.4556541
  75.0022125  62.9154348  57.3104143  72.2233486  64.1516256  60.6973028
  71.9975185  64.4408846  59.4939041  71.3961220  64.6165562  61.6631556
  71.6405821  64.3327093  62.6011181  70.3276205  65.5981493  61.6487646
  70.3179216  65.8613920  60.5910730  68.9404821  64.8896790  62.0447302
  68.9428186  64.7285461  63.1227493  68.0642700  65.4284716  61.6840982
  68.6962843  63.4415770  61.5021849  69.5449781  62.8343344  61.8169451
  67.3866892  62.8493690  62.0511246  67.4868155  62.7857399  63.1346512
  66.5007353  63.4307003  61.7956829  67.3103571  61.7855358  61.8263245
  68.5628366  63.3941698  60.0251579  67.6190233  63.8954926  59.8107243
  69.3828058  63.8662052  59.4839287  68.5118771  62.3425817  59.7429037
  70.5923796  66.9153976  62.3671913  70.0668287  67.1065712  63.4424496
  71.3987064  67.7819538  61.7305565  72.0970106  67.7002859  60.4487371
  71.4362907  67.6482248  59.5833826  72.7383518  66.8263865  60.5631018
  72.9424477  69.0138292  60.3840494  72.3055792  69.8002720  59.9790812
  73.8242483  68.9165831  59.7507477  73.2437277  69.3447971  61.8384790
  73.4278727  70.4050541  62.0118093  74.0820074  68.7322950  62.1704912
  71.9919920  68.8583040  62.5428486  72.3510599  68.5096312  63.5111475
  71.0251570  70.0461769  62.8608084  71.3581991  70.8784199  63.6950159
  69.9298096  70.0605249  62.1573067  69.7714376  69.2170429  61.6248035
  68.8695049  71.0424614  62.3664379  69.1724157  71.8382359  63.0469418
  68.4385300  71.6653442  61.0435963  68.1260777  70.8846617  60.3500557
  67.5377750  72.2215223  61.3032341  69.3644762  72.6433086  60.3159142
  70.5639696  72.8386021  60.7653952  68.9326143  73.3304262  59.3413782
  67.6400328  70.4666042  63.0732775  66.7203712  71.2417364  63.4466791
  67.6041555  69.1548395  63.3267212  68.4026241  68.5489178  63.2025766
  66.5616608  68.5540867  64.0555382  65.6324005  68.7070084  63.5067272
  66.8433332  66.9981670  64.3170071  67.3743820  66.6648960  63.4253693
  67.4177790  66.9095135  65.2391005  65.6020069  66.1161804  64.4507837
  65.2591658  65.3657055  63.3111095  65.8479881  65.3884506  62.4060297
  64.2762280  64.3720198  63.4842682  63.9554071  63.8248205  62.6101685
  63.6555243  64.1439772  64.7234440  62.6197243  63.2917833  64.8954248
  62.7125406  62.6936007  64.1503286  64.0074968  64.9143696  65.8492756
  63.5640097  64.6550322  66.7992592  64.9823904  65.8735991  65.7196283
  65.3268147  66.3597965  66.6203976  66.2678957  69.1237545  65.4301357
  65.1718998  69.6246624  65.5867529  67.2237349  69.4118452  66.3163900
  68.0913591  68.9101934  66.1911821  66.9122982  70.0773239  67.6019526
  65.9182310  69.7503519  67.9069757  67.9223490  69.7362900  68.6369705
  68.8942003  70.1679945  68.3977079  67.5171089  70.1623106  69.5547867
  68.1098700  68.2260895  68.9373255  67.0039558  67.3583221  69.0783453
  66.0265207  67.7693319  68.8731813  67.2306061  66.0146189  69.3327427
  66.3786554  65.3608751  69.4476366  68.4961987  65.5355978  69.5701122
  68.6039686  64.2479324  69.9988890  69.4201612  63.8981342  69.6340990
  69.5907640  66.3569784  69.5094967  70.5481672  65.8572006  69.5110750
  69.4213152  67.7212381  69.1816854  70.3470087  68.2507563  69.0110970
  66.7219591  71.6268969  67.4456120  66.0934877  72.2531939  68.3430481
  67.1401453  72.3006916  66.3563347  67.6742840  71.8246651  65.6434584
  66.7130852  73.6334991  66.0219717  66.8911791  74.3176699  66.8516064
  67.4904537  74.3007183  64.9004507  67.2249889  73.8290739  63.9543104
  67.2506952  75.3476286  64.7144508  68.9696455  74.0701151  65.0642300
  69.2377996  74.7636175  65.8612585  69.2037201  73.0136061  65.1949501
  69.7728491  74.5072746  63.9172363  69.2960596  74.0793467  63.0353928
  69.7074938  75.5820322  63.7477636  71.2440491  74.0620375  64.0662813
  71.7379665  74.7497416  64.7527361  71.3531065  72.9995346  64.2837620
  71.9589043  74.2993593  62.7532721  72.1215296  75.2853584  62.6067734
  72.8029537  73.7446690  62.7545357  71.4988184  73.8694859  61.9635725
  65.1903200  73.7064123  65.8120012  64.5234537  74.4721556  66.5363836
  64.6117640  72.7633858  64.9944448  65.2340412  72.1297312  64.5134449
  63.1832170  72.7844858  64.5796585  62.8033829  73.8040924  64.6447325
  62.9305220  72.1558475  63.1356001  63.4340954  71.1896658  63.1039000
  61.4155483  71.9693327  62.8594160  61.0083914  71.1179829  63.4048843
  60.7836866  72.7809811  63.2200718  61.2169504  71.8156767  61.7987347
  63.6358452  72.9418612  62.0712519  63.0466509  73.7918758  61.7271185
  64.5572567  73.4236431  62.3983383  64.0549660  72.0987749  60.8433580
  64.1782141  72.7783442  60.0000954  65.0740957  71.7520046  61.0143185
  63.3150196  71.3314342  60.6158400  62.3106861  72.0661688  65.6183290
  61.2416410  72.5622654  65.9208059  62.7200937  70.8668423  66.1081696
  63.6167622  70.5388546  65.7787466  61.9263792  69.9212599  66.9606256
  60.8807421  70.2111959  66.8572569  61.9751835  68.4545708  66.4429188
  63.0152273  68.1342125  66.3814259  61.3517427  67.4936533  67.5325632
  61.0085440  66.5449762  67.1198654  61.9519234  67.2731781  68.4153318
  60.3712416  67.9014349  67.7783871  61.3555145  68.3133078  65.0025415
  60.8374977  67.3580313  64.9176407  60.6242371  69.0944910  64.7949696
  62.4137068  68.1946611  63.8475084  63.0554104  69.0300560  64.1275692
  63.0496645  67.3094225  63.8436890  62.0127058  68.4844303  62.8762579
  62.2233057  70.1406240  68.4639597  63.2046843  69.5630121  68.9839220
  61.4131403  70.9690809  69.1479158  60.6483698  71.3653755  68.6204863
  61.5178490  71.1747837  70.6311989  62.5075483  71.3856268  71.0363531
  60.7163334  72.3861122  71.0820675  59.6795416  72.3045683  70.7557106
  60.8330154  72.4278927  72.1649981  61.3013649  73.6556435  70.4415894
  62.3316383  73.7469292  70.7855511  61.2771368  73.6557579  69.3518591
  60.6263065  74.9382401  70.9557676  59.5431423  74.9060965  70.8382082
  60.9097052  75.1117563  71.9938850  61.0380793  76.1698103  70.1607466
  62.1233988  76.2093210  70.0678492  60.5147266  76.1554623  69.2047167
  60.5415821  77.4483252  70.7869911  60.9926271  77.5266457  71.6872835
  60.7572460  78.2385731  70.1961422  59.5807552  77.4062872  71.0954475
  61.0856819  69.9799490  71.4346266  61.4926386  69.8745584  72.5914764
  60.3020716  69.0865374  70.8365011  59.8874855  69.3971252  69.9694633
  59.7161388  67.9734516  71.7106485  60.2878428  67.8338480  72.6281261
  58.2483673  68.2829666  72.0955563  57.9183912  67.4031639  72.6479721
  58.0232477  69.6381950  72.7420998  58.6042976  69.9272299  73.6178493
  57.9792547  70.3712416  71.9366121  57.0320225  69.6446562  73.1954575
  57.3479748  68.3168077  70.9689903  57.2749424  67.4216413  70.6299639
  59.9069786  66.6507959  70.9023905  58.9385748  66.1065769  70.4054070
  61.0972929  66.0224438  70.8184052  62.3530054  66.5681839  71.2177372
  62.3478746  66.5340900  72.3071957  62.3971605  67.6359415  71.0031557
  63.4501505  65.8300209  70.4675627  64.4395590  65.8351374  70.9248924
  63.3713675  66.2307119  69.4569492  62.8318262  64.4591045  70.2852726
  62.9653835  63.8017368  71.1444187  63.1178045  64.0162373  69.3312407
  61.3349438  64.7375679  70.1838446  61.0974884  64.7492552  69.1200876
  60.5431843  63.5904169  70.8581018  60.1983833  63.7635660  72.0898438
  60.3020477  62.4248028  70.1999950  60.5413771  62.2486448  69.2347050
  59.5861149  61.2402964  70.8352375  59.8981190  61.2458324  71.8796158
  58.0519819  61.6330671  70.9993172  57.9086494  62.5897408  71.5016413
  57.6335049  61.7709684  70.0023413  57.3787260  60.5669975  71.8645430
  56.4175701  61.0040236  72.1352720  57.1726084  59.7287178  71.1990309
  58.2040453  60.1268864  73.4522581  57.7551317  61.4537859  74.5016623
  58.0390978  61.3321543  75.5469751  58.1539345  62.4169827  74.1833687
  56.6693830  61.3847017  74.4348001  59.9143600  59.9400711  70.1029682
  60.5592823  59.9343061  69.0456295  59.3891764  58.8267517  70.6703377
  59.0405512  58.9169407  71.6139603  59.5416021  57.4283504  70.3687048
  59.1912174  57.4191332  69.3365955  60.9844923  56.9438601  70.3380728
  61.1435890  55.9694672  69.8761749  61.7201900  57.5404882  69.7987366
  61.6511965  56.8062830  71.7482948  61.9191408  57.8772736  72.3091364
  61.6600895  55.7351923  72.3486948  58.7075138  56.4628267  71.2433720
  58.4011221  56.7691469  72.3540735  58.3829212  55.3601170  70.6703711
  58.7711620  55.2097940  69.7501659  57.4669743  54.4350529  71.1647224
  56.5501022  54.9438572  71.4623165  57.1835566  53.4542990  69.9975157
  56.9916821  54.0889168  69.1323280  58.0920029  52.8907394  69.7848558
  55.9318972  52.6262379  70.1532221  55.9838867  52.1346760  71.1246967
  55.1169491  53.3473778  70.0905704  55.5873060  51.1973667  69.0372849
  55.3090572  52.0721865  67.5558662  55.1180410  51.4029884  66.7169428
  54.5066643  52.8009367  67.6707077  56.2759066  52.4898767  67.2750854
  58.0647278  53.7027788  72.3530626  57.3577833  53.3855343  73.2799768
  59.4168091  53.4666300  72.3525095  59.9452209  53.8729382  71.5936995
  60.1079655  52.9614067  73.5281229  59.7281456  51.9955444  73.8612175
  61.1249304  52.8982973  73.1409550  60.0277472  53.8785839  74.7287560
  59.8853159  53.4255743  75.9134007  60.0924826  55.2691412  74.6625614
  60.4277277  55.5939198  73.7668848  59.9227810  56.2702465  75.8082104
  60.5903864  56.0401201  76.6385412  60.3865576  57.6679420  75.3792143
  59.7765970  58.0856037  74.5782089  60.2553988  58.8645744  76.3673592
  59.2027426  58.9143085  76.6458178  60.8098030  58.7209320  77.2947788
  60.6007004  59.7724438  75.8727407  61.7464781  57.5572014  74.9524689
  61.7589855  57.5770903  73.9927530  58.4728432  56.2975073  76.3023758
  58.2002020  56.3276768  77.5141287  57.5091171  56.2868166  75.3336811
  57.7750969  56.3241816  74.3600464  56.1018038  56.0735607  75.5469704
  55.8351851  56.9288254  76.1678934  55.2682209  56.1608934  74.2496395
  55.7446671  55.4947805  73.5303354  53.8373232  55.5633831  74.4788456
  53.9205408  54.4773626  74.4372320  53.5328531  55.7778215  75.5032539
  53.0925322  56.0736275  73.8680792  55.1915169  57.6228046  73.7828398
  54.5234776  58.1845093  74.4357634  56.1935806  58.0470514  73.7196970
  54.6698427  57.7358913  72.3740530  55.2016830  58.5764360  71.9282627
  54.9056101  56.8284845  71.8180561  53.5909843  57.8909683  72.3630810
  55.8308125  54.9118376  76.4687157  55.1830053  55.0249529  77.5225306
  56.4031172  53.7747860  76.0577059  56.6796875  53.6858940  75.0903845
  56.3300943  52.4977112  76.8650198  55.2930927  52.2062731  77.0317507
  57.1002865  51.4010382  76.1038780  56.7948484  51.4488411  75.0586414
  58.1533718  51.6615915  75.9979439  57.0028877  49.9936295  76.6630316
  57.5085878  50.1059484  77.6220703  55.9825277  49.6452761  76.8230867
  57.5816202  48.8980007  75.7384491  57.0537281  48.8133526  74.7885704
  58.6477137  49.0769434  75.5987406  57.4660206  47.5748158  76.3957596
  57.8940868  47.7019978  77.3900890  56.4282227  47.3911428  76.6738510
  58.0017948  46.4213037  75.6716061  57.9371500  45.5509138  76.1798811
  57.5761271  46.2250042  74.7769690  58.9232731  46.6475725  75.3255129
  56.9166040  52.7207422  78.2916784  56.2190914  52.5221252  79.2725801
  58.1458330  53.2806587  78.3695793  58.6655807  53.2803249  77.5035763
  58.7817621  53.3902121  79.6610451  58.7025356  52.3827171  80.0694370
  60.2266312  53.9299583  79.3695450  60.7003450  53.3477688  78.5791349
  60.1554394  54.9884272  79.1191959  61.1538315  53.8451290  80.5953979
  60.6982040  54.4531679  81.3769341  61.3633633  52.7907228  80.7754707
  62.5617933  54.4513607  80.2012730  62.8486443  53.9133406  79.2977524
  62.5508642  55.4925919  79.8790598  63.6070013  54.1124487  81.2884426
  63.3616543  54.5900869  82.2370052  63.5336447  53.0329323  81.4202404
  64.9589014  54.3884993  80.8822536  65.0667286  55.3708267  80.6736565
  65.6539059  54.1626692  81.5794468  65.1496172  53.9522505  79.9915171
  58.0357504  54.4035912  80.5682564  57.9248857  54.2308855  81.7955494
  57.4314117  55.4944706  80.0102139  57.6154852  55.7082272  79.0404034
  56.5057278  56.3003063  80.7061100  56.9618750  56.6676426  81.6254044
  56.0761595  57.4695969  79.8182106  55.8863163  57.1441793  78.7953901
  55.2515650  57.9786777  80.3171921  57.1660852  58.5505247  79.7034836
  57.1841288  59.0297556  80.6823158  58.1559658  58.1030703  79.6138716
  56.9165468  59.5852423  78.6077738  56.7535496  59.1386366  77.6269197
  56.0067272  60.1172113  78.8858795  58.0063629  60.5339432  78.3983707
  58.9085674  60.2459192  78.7493420  57.8705406  61.7900944  78.0006742
  56.8243456  62.3757792  77.6084995  55.8990383  61.9967413  77.4662447
  56.8093634  63.3852434  77.5791502  58.8837433  62.5793791  78.0750322
  59.6300554  62.2912264  78.6915445  58.7069654  63.5513878  77.8651571
  55.3335524  55.4817581  81.2937737  55.0854540  55.6555462  82.4976826
  54.6361589  54.7140980  80.4751205  54.9396992  54.5958948  79.5190907
  53.5236073  53.8609648  80.9689999  52.8902817  54.5529270  81.5241432
  52.7648449  53.2117605  79.7613287  53.4859610  52.7597713  79.0803051
  52.2132826  52.3230362  80.0680161  51.8597841  54.1666651  78.9561367
  52.2975636  55.1631498  79.0150023  51.6803360  53.6509657  77.4878693
  51.1588097  52.6977158  77.4016571  51.1046362  54.4069862  76.9539213
  52.6268911  53.4552860  76.9840384  50.5004597  54.3397856  79.5689011
  50.0418282  53.3680820  79.7520733  50.5309534  54.8836565  80.5130291
  49.8599768  54.8897266  78.8793707  53.8338852  52.7954292  82.0011711
  53.0533934  52.5374460  82.9351521  55.0246048  52.2222519  81.9576740
  55.5936146  52.4621391  81.1584282  55.6990004  51.3284588  82.9690838
  55.0111675  50.4842377  83.0167961  56.9645548  50.7818747  82.2772026
  56.7015457  50.1834393  81.4049625  57.5590324  51.6462135  81.9812012
  57.7838755  49.9937248  83.3206940  58.1695366  50.7046318  84.0514278
  57.1334267  49.3050385  83.8598919  59.0035820  49.1385269  82.8147221
  60.0030708  48.9252281  83.5262585  58.9462662  48.7564421  81.6158962
  55.8856106  52.0336437  84.2965317  55.5891800  51.4217138  85.3611755
  56.4072323  53.2712317  84.2444229  56.6241550  53.7408590  83.3769608
  56.8850374  54.0046740  85.4055882  56.8921185  53.3663225  86.2890816
  58.2838249  54.5308018  85.1028633  58.3175659  55.2144623  84.2545891
  58.5719776  55.2825499  85.8376694  59.4565105  53.5674334  85.0088978
  60.1838970  53.3763838  85.9204674  59.6441984  53.1195354  83.7805653
  60.3996134  52.4516773  83.7221146  58.9584017  53.3356905  83.0712891
  55.8955526  55.0725031  85.8091068  56.2171459  56.0847998  86.4308643
  54.6219540  54.8182392  85.5584049  54.4735813  54.0579271  84.9103165
  53.4296751  55.4387569  86.1637402  52.6245070  55.0222349  85.5585003
  53.2288456  54.9239302  87.6056290  52.1851349  54.8176718  87.9014111
  53.8494968  54.0485668  87.7970028  53.7733984  55.9418869  88.6176777
  54.9659348  56.1007500  88.9007378  52.9274321  56.5503359  89.3765450
  53.2882547  57.0510864  90.1760197  51.9418144  56.4935350  89.1633892
  53.2836866  56.9639301  85.9022045  52.2181225  57.4892902  86.2913799
  54.1737795  57.5374126  85.0719643  54.9187469  56.9473410  84.7300053
  54.1310072  58.9864302  84.6572113  54.5519543  59.5780373  85.4701710
  55.1122141  59.1274357  83.5959148  56.0537767  58.6949110  83.9342785
  54.8521757  58.4726667  82.7641964  55.3886223  60.4700470  82.8944016
  56.3339853  61.4237833  83.3357811  57.0381880  61.2397766  84.1336823
  56.5195417  62.5957727  82.5263500  57.2981644  63.2419205  82.9040241
  55.8593607  62.8023100  81.2882233  56.1351681  63.9083099  80.4929733
  57.0710039  64.1119003  80.4269028  54.9547911  61.8478394  80.8821106
  54.4497585  62.0308399  79.9451685  54.6479702  60.7220554  81.7168522
  53.8476324  60.0909710  81.3596344  52.6875496  59.5799875  84.4231796
  52.3614740  60.5331707  85.0437832  52.0623446  59.0591002  83.3312988
  52.3212290  58.4317303  82.5833130  50.7163000  59.6316957  83.0113888
  50.8419514  60.7001495  82.8361034  50.1571321  59.0664673  81.6498375
  49.9012280  58.0363989  81.8979836  49.2233086  59.6057653  81.4910126
  51.1255121  59.1179562  80.5068302  51.2215185  60.2879477  79.7390985
  50.6231642  61.1293411  80.0560093  52.0792770  60.3394699  78.6294746
  52.1617651  61.2114668  77.9976416  52.8187799  59.2223501  78.2405043
  53.6245537  59.2388296  77.1617794  53.9355040  60.1402140  77.0503616
  52.6843834  58.0066729  79.0001011  53.3758926  57.2207451  78.7345171
  51.9032574  57.9585505  80.1498604  51.9291210  57.0645428  80.7552338
  49.6807098  59.4745636  84.1786575  49.8287344  58.5715961  85.0328541
  48.5913134  60.2833223  84.2164326  48.5768747  61.0636950  83.5754108
  47.2680569  59.7995758  84.7066784  47.2296000  58.7162304  84.8206234
  47.0182848  60.3474379  86.1302757  46.1754704  59.7598982  86.4943695
  47.8832436  60.1863432  86.7737007  46.5463495  61.7912865  86.1194515
  47.3515606  62.9135180  86.0931206  48.4294605  62.9251146  86.1594868
  46.5148449  63.9586735  86.0802555  46.9064188  64.8834848  85.9730244
  45.1470852  63.6757612  86.0431099  44.0282583  64.4847059  86.0569668
  44.1553783  65.5531454  86.1501789  42.7711201  63.9074516  85.6823921
  41.8703318  64.4922256  85.5682564  42.7314663  62.5446081  85.5413532
  41.8595219  62.0086956  85.1965237  43.8905668  61.7311811  85.6002808
  43.8123131  60.6796074  85.3669071  45.1810169  62.2871590  85.9277916
  46.1454248  60.1034498  83.7816429  45.3080463  59.2336941  83.6104012
  45.9898186  61.2928963  83.2043266  46.7776680  61.9082499  83.3483505
  45.0399637  61.5662956  82.1437740  44.1101027  61.0648680  82.4121571
  44.8066425  63.0748510  82.0899677  44.4705582  63.4493732  83.0568600
  45.6527138  63.5993910  81.6459751  43.7511444  63.4688091  81.0298157
  43.1831551  62.6901197  80.3243637  43.3328056  64.6787930  81.1034298
  42.6937008  64.8846245  80.3489208  43.7673903  65.3842783  81.6809464
  45.5637741  60.8716345  80.8787823  46.6390753  61.2570572  80.3984261
  44.7427320  60.0138235  80.3539848  43.9537096  59.7007799  80.9013081
  45.0390863  59.2085981  79.1281414  45.9969807  58.7126780  79.2849874
  43.9607859  58.1372356  79.0404320  44.3189096  57.4247026  78.2973623
  43.7708759  57.5362110  79.9297047  43.0284214  58.6330986  78.7703943
  45.1110029  60.0469637  77.7551794  45.8682251  59.6822262  76.8763065
  44.4800615  61.2705612  77.6779604  43.9107084  61.5211153  78.4736729
  44.6826744  62.2853851  76.6311026  44.1640759  61.9671392  75.7267380
  43.9403820  63.5344505  77.1211195  42.9230309  63.3590508  77.4708843
  44.4264984  63.9306879  78.0126286  44.0146923  64.6735907  76.1302948
  43.5407591  65.5769825  76.5141773  45.0263596  65.0315857  75.9393454
  43.4180260  64.3605614  74.7543812  42.1720076  64.3606138  74.6316242
  44.1863012  63.8264894  73.8170910  43.7519121  63.7751007  72.9067183
  45.1952314  63.8458920  73.8593578  46.1657715  62.5927591  76.3914490
  46.5670967  62.8696680  75.2739048  46.9405937  62.6767969  77.4300051
  46.5406847  62.3719501  78.3059311  48.3410549  63.0413055  77.3298550
  48.4326506  63.8230991  76.5758610  48.8293076  63.5071087  78.7049246
  48.1068134  64.1709661  79.1796875  48.8673353  62.6224422  79.3405485
  50.2592373  64.0723324  78.8009691  50.4156303  64.1298532  79.8781538
  51.0166931  63.3368635  78.5299730  50.5469322  65.4721689  78.3362436
  51.5377855  66.0196686  78.8496733  49.7856951  66.0198069  77.5270033
  49.2451620  61.8692303  76.8159008  50.2036619  62.1105194  76.0388279
  48.9070034  60.6341076  77.0179510  48.0665874  60.4758358  77.5553131
  49.5022631  59.5625019  76.2706757  50.5915785  59.5948362  76.2918663
  49.1596413  58.2387638  76.9727898  49.3210363  58.4100151  78.0370855
  48.1275845  57.9055738  76.8634653  50.1860809  56.8466568  76.4130878
  51.2824678  57.6042223  76.3185930  49.0513515  59.5657825  74.8006678
  49.7863054  59.1467428  73.9175463  47.8800344  60.1387644  74.4827318
  47.2921944  60.5073977  75.2166557  47.4760151  60.3230715  73.0664444
  47.7789927  59.5115089  72.4048853  45.9860420  60.4106903  72.9697371
  45.6442261  61.0621548  73.7740135  45.4232407  61.0590267  71.6835737
  44.3506289  60.8655310  71.6707754  45.5747271  62.1357727  71.7595339
  46.0032272  60.7755947  70.8052826  45.1296186  59.1045809  73.2108927
  45.1596594  58.4869909  72.3132372  45.5397177  58.4328079  73.9649725
  43.5992384  59.3291759  73.5574961  43.5004568  60.1188660  74.3022966
  43.0266476  59.5236540  72.6506186  43.1770849  58.4239578  73.9939260
  48.2961130  61.4927387  72.4371719  48.7797260  61.3272381  71.3485098
  48.5384417  62.5818300  73.2007122  47.9325247  62.6956081  74.0007257
  49.3752241  63.7471962  72.8237295  49.0031481  64.0952778  71.8601418
  49.1653061  64.9406528  73.8433647  48.0893517  65.1139450  73.8630962
  49.5049763  64.5976877  74.8206520  49.8658800  66.2200165  73.3988571
  49.6194744  66.9296885  74.1886377  50.9460354  66.0857439  73.3411741
  49.2947865  66.8950796  72.0793724  49.2892027  66.3498783  71.0235310
  48.6771917  68.0467558  72.1388626  48.4153700  68.5092688  71.2800074
  48.5045338  68.5115623  73.0187798  50.8406782  63.3788776  72.5542784
  51.3538885  63.8954592  71.5389585  51.4737797  62.5023413  73.3924627
  51.1182499  62.1328974  74.2626429  52.8021955  62.0542526  73.1506014
  53.4258127  62.9337597  72.9903746  53.3898258  61.4115047  74.4481516
  52.6606274  60.6964827  74.8290873  54.3109560  60.8797407  74.2096949
  53.7891960  62.2995472  75.6046152  53.7798882  63.5034275  75.3816700
  54.3275118  61.7971802  76.6319656  52.9035807  61.2076044  71.8480730
  53.7888479  61.4063120  70.9966469  51.9300222  60.3052044  71.6968441
  51.2237310  60.0901127  72.3860407  51.6569328  59.5953512  70.4372263
  52.5324917  58.9762878  70.2416325  50.5477762  58.5628414  70.6119585
  49.7336626  59.0039873  71.1870289  50.1942205  58.3085442  69.6127415
  50.9500742  57.1877146  71.2365961  51.9190645  56.4238977  70.4668093
  52.1598816  56.7640162  69.4704533  52.2741938  55.1791000  70.8228827
  52.8763103  54.5836067  70.1526165  51.7824841  54.6563816  72.0581198
  52.1134996  53.6531973  72.2827291  50.8430481  55.3719521  72.8306198
  50.4317617  54.9015951  73.7115335  50.4301691  56.6194630  72.4274635
  49.6205568  57.1466923  72.9101229  51.5115118  60.4550076  69.1335249
  52.2950697  60.3825140  68.1928635  50.5099297  61.4326429  69.0880871
  49.7863340  61.4739561  69.7915173  50.4033327  62.4918127  67.9977512
  50.0944328  61.9517899  67.1027327  49.2088842  63.4221554  68.4257030
  48.3345079  62.8725052  68.7742138  49.5986557  63.9464855  69.2982054
  48.8554382  64.4082642  67.3711300  49.1640043  65.5731487  67.3238564
  48.3513546  63.8282299  66.2935448  47.9894829  64.4928265  65.6246185
  48.0923748  62.8562880  66.3849592  51.6458416  63.3513308  67.7097654
  51.9662380  63.7309361  66.6531038  52.3950291  63.6620951  68.8041735
  51.9520473  63.3769655  69.6658945  53.6371899  64.4554281  68.7968826
  53.3955479  65.3658867  68.2484531  54.2203379  64.8254538  70.2119970
  54.2281389  63.9738131  70.8922529  55.6641150  65.3876019  70.1108980
  56.4423513  64.7340393  69.7168016  55.7433081  66.2350368  69.4299555
  55.9708357  65.6028461  71.1344576  53.3160019  65.6960917  70.8281136
  52.4937677  65.2107143  70.9278250  54.7244692  63.6517477  68.0542231
  55.2068615  64.1500378  67.0375299  55.0967741  62.4307919  68.4334564
  54.6568584  62.0478296  69.2580271  55.8220625  61.4987373  67.6554823
  56.8895245  61.6865444  67.7710581  55.6842947  60.0724220  68.3080244
  55.6569242  60.0262213  69.3967009  54.6600676  59.7877073  68.0672026
  56.6563559  59.0422916  67.6746321  56.8331909  59.2686462  66.6231632
  57.6286125  59.2910051  68.1000280  56.3101816  57.2905397  67.9376793
  54.7198725  57.1549606  67.3137522  54.7656202  57.7569199  66.4062023
  54.5378399  56.1250877  67.0066309  54.0118408  57.4910402  68.0712795
  55.5835342  61.5869045  66.1065626  56.5164995  61.8314362  65.2823925
  54.4030046  61.2898636  65.6344652  53.6921883  61.0132265  66.2965202
  53.8543510  61.4707375  64.3095684  54.3759155  60.7553673  63.6737108
  52.3474121  61.1634111  64.3323803  51.8504286  61.9896173  64.8407984
  52.0063448  61.1536121  63.2971573  51.9464302  59.7991753  64.8965168
  52.6314592  58.5841417  64.5249224  53.4557819  58.6577415  63.8310385
  52.3342371  57.3194599  65.0632572  52.9567146  56.4701843  64.8231554
  51.1761332  57.1912003  65.8332586  50.9651995  56.2002611  66.2073469
  50.3383446  58.2848930  66.0231113  49.3793201  58.1530619  66.5019512
  50.7471895  59.5787859  65.5311680  50.0617647  60.4092455  65.6144285
  54.1697073  62.8799582  63.7701273  54.6585655  63.0031919  62.6601410
  53.8494205  63.9979601  64.4984818  53.4555721  63.8169193  65.4107380
  53.9854050  65.3775644  64.0482569  53.5009050  65.4251242  63.0730104
  53.1388330  66.3641500  64.8609161  53.5818911  66.3560963  65.8567810
  53.0523014  67.7485943  64.2469835  52.5441074  67.5661182  63.3001232
  52.4799347  68.4307623  64.8755836  54.0102768  68.2489300  64.1053724
  51.7908573  65.8520794  65.0472069  51.8468809  65.1106501  65.6544495
  55.4533195  65.7803202  63.8873625  55.7701349  66.3910627  62.8738356
  56.3866568  65.2396631  64.6946335  56.0261202  64.9383879  65.5886984
  57.8493404  65.3050756  64.4696856  58.3486938  66.2640762  64.6077394
  58.5360336  64.4298840  65.5613947  58.0929518  63.4369850  65.4844046
  59.6131706  64.5930815  65.5261946  58.2961655  64.9942636  67.0061398
  58.0923176  66.1342907  67.2403049  58.8201761  64.3057156  68.0690241
  58.7877321  64.7388124  68.9808702  59.3635941  63.4675360  67.9198360
  58.2381153  64.9100590  62.9729700  58.9128160  65.6654024  62.2045374
  57.6874352  63.7465239  62.5124025  57.0731115  63.2096291  63.1077623
  57.9934120  63.2258081  61.1515141  59.0420008  63.3601189  60.8859539
  57.8196001  61.6976833  61.1716223  58.2752991  61.1732244  62.0114899
  56.7779303  61.4730835  61.4009333  58.5194588  61.0724211  59.5619011
  59.8226404  61.0262775  59.8525572  57.3111391  64.0352058  60.0131655
  57.9400539  64.4063139  59.0209103  56.0549450  64.4666004  60.2811289
  55.6372690  64.2627287  61.1778355  55.2686357  65.3167152  59.3659687
  55.3841400  64.8981428  58.3661938  53.7828875  65.2563477  59.7368193
  53.6449814  65.8256960  60.6560183  53.1373978  65.7859659  59.0361500
  53.1440783  63.8421774  59.8659229  53.6381817  62.7356195  59.1166830
  54.4568300  62.7622461  58.4127617  52.9376125  61.5107822  59.1435337
  53.2406092  60.6995487  58.4981680  51.8561840  61.3371181  60.0519323
  51.1215162  60.1762199  60.0001287  50.2242565  60.3855991  60.2697325
  51.4834356  62.3591709  60.8954763  50.6296921  62.2476912  61.5474749
  52.0729589  63.6105299  60.7816935  51.6058350  64.4532251  61.2696123
  55.7895517  66.7436314  59.1870117  55.5783653  67.4554586  58.2493305
  56.6668224  67.1268654  60.1386881  56.8963861  66.4872694  60.8858967
  57.4608278  68.3884478  60.1181936  57.0070076  69.1423416  59.4749260
  57.6438475  68.9045811  61.4834881  58.0609846  68.1118536  62.1045256
  58.6929083  70.1195574  61.5579033  59.7363663  69.8066092  61.5946531
  58.4954309  70.9326744  60.8593655  58.5310936  70.6142092  62.5156260
  56.2558603  69.3597269  62.0499611  55.5085993  68.5664272  62.0696878
  56.4002848  69.6729088  63.0839634  55.5481291  70.5599928  61.2787485
  56.0786915  71.5076208  61.3714933  55.3910875  70.2850056  60.2357578
  54.5913839  70.6041956  61.7991209  58.8505363  68.1666136  59.3785143
  59.2010593  68.9776659  58.5643196  59.6024561  67.1569443  59.8068666
  59.2051697  66.5068388  60.4699087  60.9549046  66.9887590  59.3397522
  61.3908482  67.9800224  59.4640875  61.7480183  66.0186434  60.2515793
  61.5173912  66.3790894  61.2540722  61.4597464  64.9685574  60.2034521
  63.2264376  66.1379433  59.9912167  63.9984083  67.2112560  60.4241800
  63.5735846  67.9552650  61.0817385  65.3836918  67.1826315  60.2308798
  66.0724926  67.9541492  60.5418730  65.9357929  66.2000322  59.3881369
  67.2192717  66.3021278  58.9910984  67.1822453  66.2540674  58.0330181
  65.1209164  65.2679205  58.7710476  65.6629086  64.6093798  58.1084967
  63.7725973  65.2136660  59.0961742  63.2345629  64.3630743  58.7045002
  61.0491991  66.3892508  57.8797913  61.7739105  66.9666576  57.1146059
  60.1399040  65.5307436  57.4911308  59.5049524  65.1377106  58.1711769
  59.9462795  65.0577879  56.1344290  60.8047390  65.2691174  55.4968643
  59.7622490  63.5547066  56.2859440  58.9735413  63.3092737  56.9971418
  59.3353891  63.1594896  55.3641510  61.0377550  62.8542185  56.7148018
  61.2286377  62.5197697  57.8137493  61.8958950  62.6342583  55.7287216
  62.7763605  62.1799707  55.9249544  61.7731047  62.9006672  54.7622585
  58.7725210  65.7499456  55.3174162  57.6916361  65.9166908  55.8516932
  59.0530109  66.2948179  54.1499567  59.9922657  66.3659954  53.7854815
  58.0855751  66.7966318  53.1801558  57.2425318  67.1903944  53.7478971
  58.7937593  67.8385019  52.3209858  59.7139359  67.4522781  51.8825626
  58.0982733  67.9675150  51.4916754  59.0389252  69.1809702  52.9691839
  58.1657553  69.5705843  53.4925175  59.7723150  68.9520788  53.7423992
  59.5685816  70.2312279  52.0411682  59.7721386  71.0952997  52.6736593
  60.4866982  69.8426867  51.6004896  58.6069012  70.5909538  50.9497595
  58.0729580  69.7319746  50.5433655  57.9117012  71.2287951  51.4956188
  59.1966820  71.4633036  49.8968029  58.4640455  71.8768406  49.3379307
  59.7313166  72.2276831  50.2840900  59.8576593  70.9709978  49.3129778
  57.4112463  65.7434225  52.2466564  57.9733849  64.6608162  52.1645069
  56.2131453  65.8784533  51.7177010  55.3448439  67.0444107  51.9893503
  55.6988192  68.0048180  51.6146183  55.2765703  67.1222353  53.0744219
  53.9653111  66.6086912  51.4493132  53.3700991  67.4283648  51.0468674
  53.4290791  66.2294006  52.3191929  54.2587423  65.6079102  50.4167271
  54.4236279  66.0760260  49.4462729  53.4088135  64.9614811  50.1979733
  55.5493546  64.9010515  50.8686876  55.4445696  64.1044760  51.6052961
  56.4950943  64.3816280  49.7678518  57.3044968  65.1299858  49.2069054
  56.4718676  63.0879021  49.6202660  55.7709742  62.6096630  50.1681089
  57.3166895  62.2406721  48.7259769  56.6945171  61.4784336  48.2569361
  57.7802181  62.8798628  47.9745245  58.4327841  61.4750862  49.4081926
  59.1391039  60.7525253  48.7196493  58.6325884  61.7073917  50.6992579
  58.2105446  62.4720049  51.2065506  59.4921589  60.7754517  51.4525461
  60.3019094  60.4238558  50.8131838  60.1384974  61.5411758  52.5891209
  59.4025087  61.8719912  53.3219099  60.7436657  60.7882786  53.0941153
  61.1203861  62.6764870  52.1873569  61.7224121  62.5473309  51.1104155
  61.4510870  63.5947371  52.9776239  58.8027430  59.5045424  51.9066620
  57.6185942  59.5717525  52.2169161  59.4803667  58.3746767  51.9824123
  60.4645109  58.3680344  51.7554474  58.8799906  57.0735073  52.0935249
  57.9137087  57.0119858  51.5929127  59.6462631  55.9172344  51.3133764
  60.6824303  55.9398699  51.6509295  59.1801023  54.9686337  51.5797472
  59.6371746  56.1208868  49.7930002  58.8925409  56.9643211  49.2748976
  60.3260803  55.3523922  49.0658712  58.5354424  56.6159010  53.5369635
  57.6654100  55.7491684  53.6682367  59.1661167  57.2040796  54.5663261
  59.8694468  57.9103756  54.4033051  58.7617016  57.1109724  55.9580469
  58.6636972  56.0593605  56.2275219  59.8872709  57.6005316  56.9910622
  60.7974005  57.0262003  56.8181181  60.2524900  59.0489435  56.7432642
  60.9035635  59.4160652  57.5366306  60.9466696  59.1620541  55.9105396
  59.4777107  59.8141718  56.6959047  59.4135618  57.3090410  58.4266615
  58.5589409  57.9586697  58.6156321  58.9925146  56.3195992  58.6050653
  60.4656982  57.5810575  59.4563913  60.2291346  57.0780993  60.3940296
  61.3995457  57.0939636  59.1757441  60.5590916  58.6460495  59.6689558
  57.4064827  57.7474642  56.3014936  56.6880035  57.1714878  57.0567513
  56.9760180  58.7780190  55.5611420  57.5113201  59.0270948  54.7416782
  55.7385063  59.5497417  55.8557367  55.9648609  60.0783682  56.7817068
  55.6422806  60.6795645  54.8353863  55.5132294  60.2937269  53.8241577
  54.3196583  61.4934874  55.0462818  53.4374857  60.8592319  54.9591446
  54.4935608  62.0362520  55.9754086  54.2522430  62.3894978  54.4292545
  56.8073416  61.6671324  54.8368645  56.9556236  61.9865465  55.8684063
  57.6982117  61.1685848  54.4548893  56.6471338  62.5126219  54.1678429
  54.4499254  58.6732531  55.8606768  53.5822487  58.6870432  56.7984581
  54.3915510  57.8087425  54.8361826  55.2477217  57.7131367  54.3089914
  53.3884573  56.8486309  54.6505833  52.4460649  57.3687649  54.8222399
  53.3314133  56.3357306  53.2426262  54.3289471  56.2302256  52.8161430
  52.9031086  55.3372002  53.1554842  52.5161839  57.1750546  52.2436285
  52.7997255  58.2021856  52.4732113  52.8676987  57.0269537  50.8078480
  52.3399353  57.8028822  50.2533293  53.9322090  57.2071171  50.6579781
  52.6202250  56.0451937  50.4041147  51.0062599  56.8928957  52.5321293
  50.7938433  55.8966446  52.1442413  50.6840563  56.9207859  53.5730457
  50.3426552  57.5749397  52.0005894  53.4354258  55.6730413  55.6067514
  52.4171972  55.0292253  55.8120680  54.7081709  55.3118610  56.0421371
  55.5624104  55.7617188  55.7455015  54.7966385  54.4075918  57.1531391
  54.1838694  53.5478449  56.8821287  56.2562895  54.0477133  57.3661137
  56.9159794  54.7839117  57.8253794  56.1013651  53.2931232  58.1372833
  56.9614363  53.3520937  56.1708260  56.5058136  52.3856640  55.9551287
  56.8085098  54.0158844  55.3198862  58.7136459  53.0380774  56.2694740
  59.0771818  52.2141457  57.8332853  59.3801260  52.8748846  58.6455297
  58.1755495  51.7164660  58.1903172  59.9047375  51.5113592  57.7366734
  54.1943645  55.0492001  58.4108257  53.2833242  54.4646311  59.0074921
  54.5344543  56.3134527  58.6934185  55.1338100  56.8558598  58.0878830
  53.9077425  57.0280552  59.7450924  54.0604162  56.3568974  60.5902767
  54.5166445  58.4183168  59.9250031  55.5482626  58.2123137  60.2103567
  54.5507240  59.0559292  59.0416050  54.0389729  58.9368916  60.7562733
  52.3036766  57.0783997  59.6985960  51.6334867  56.9605160  60.7628250
  51.7109966  57.1488237  58.4787464  52.3277473  57.3405743  57.7022457
  50.2805901  57.0855284  58.2985210  49.8096609  57.7465820  59.0260696
  49.9101019  57.5782967  56.8911076  50.2627707  58.6036348  56.7797327
  50.4689407  57.0659924  56.1079454  48.4998226  57.4204445  56.5183353
  47.9002523  57.1226788  57.3785400  48.1620312  58.4063530  56.1989689
  48.1899500  56.3807821  55.4179049  47.6446581  56.7928410  54.3281412
  48.5094404  55.1759100  55.5824089  49.7008419  55.6765604  58.6036062
  48.6212015  55.6414366  59.1761684  50.3718901  54.6037912  58.3405685
  51.3409328  54.6746397  58.0648279  49.9863768  53.2668066  58.7327528
  49.0473700  52.9431248  58.2837629  50.9467745  52.2271204  58.1282520
  50.6343937  51.2059927  58.3469248  50.8958387  52.3306417  57.0443773
  51.9459057  52.5053453  58.4635687  50.0166559  52.9772186  60.2664280
  49.0342188  52.4715757  60.8146381  51.0959530  53.2901287  60.9736109
  51.8196201  53.6863041  60.3909826  51.1915255  53.3292150  62.4617958
  51.1322117  52.2629786  62.6802588  52.6333284  53.7752390  62.9154444
  53.0962229  54.2536354  62.0523310  52.6254892  54.4840002  63.7435102
  53.5562611  52.7525091  63.4912825  52.9670954  52.3769855  64.3279219
  53.9029694  51.7199421  62.4521542  53.0249023  51.1646080  62.1224403
  54.4069338  52.1014690  61.5641499  54.5798588  50.9628534  62.8480577
  54.8344612  53.3427572  64.0218735  55.5416584  52.5931978  64.3770266
  55.3099155  54.0094185  63.3024216  54.4627190  53.9655972  64.8354959
  50.0584078  54.2148733  63.0414200  49.3469286  53.7760448  63.9428616
  49.9230433  55.4497957  62.5872183  50.5481720  55.7857275  61.8685675
  48.8776207  56.4031410  63.0614281  49.0787649  56.6059256  64.1133451
  49.0802383  57.8118896  62.4627590  50.0246382  58.2261515  62.8157377
  49.0728807  57.6279306  61.3884163  47.9108381  58.8433838  62.7392864
  47.0695877  58.4893990  62.1433830  47.5759792  58.8349104  63.7765455
  48.1596613  60.3051090  62.2895956  48.4192705  60.4616833  61.0793495
  48.2477808  61.2871075  63.0827093  47.4608326  55.8262682  62.9234743
  46.6737700  55.9469557  63.8317442  47.1083927  55.3995419  61.6966963
  47.7352810  55.2859116  60.9129906  45.7316351  54.9541140  61.5553522
  45.0984764  55.7609510  61.9244385  45.4422092  54.7840214  60.0709391
  44.3637705  54.7013855  59.9358749  45.6702948  55.6854630  59.5021868
  46.0549831  53.5925341  59.3859339  47.1084929  53.4484863  59.6256447
  45.4872227  52.6833057  59.5835733  45.9865856  53.9047289  57.9089880
  45.0140905  54.2755413  57.5851774  46.7727470  54.6083784  57.6352739
  46.2846708  52.6310396  57.0868015  47.2248745  52.2025681  57.4339867
  45.4643917  51.9135857  57.1091604  46.4207363  53.1155634  55.6324959
  45.5791044  53.5651112  55.3013325  47.1644020  53.7977457  55.5913019
  46.7027235  52.4476957  54.9292612  45.3494692  53.6825514  62.3224545
  44.2444468  53.5959673  62.8253984  46.2890673  52.7655172  62.4833727
  47.1859503  52.9122686  62.0427275  46.1090708  51.6481638  63.3556175
  45.1650715  51.1899233  63.0606842  47.2834730  50.6502676  63.0357361
  47.1548128  50.4547882  61.9711542  48.2493925  51.1413145  63.1539726
  47.1997261  49.3870497  63.9233541  47.4728060  49.6670341  64.9407673
  45.8781433  48.5591698  63.7652683  45.0295973  49.0730858  64.2168808
  45.6547308  48.3328724  62.7226877  45.9783745  47.6630020  64.3775988
  48.3874130  48.4811687  63.4418964  48.2898331  47.4415112  63.7544489
  48.4771824  48.4660196  62.3557043  49.3746614  48.7543201  63.8145018
  45.9559202  52.1609402  64.7909307  44.9201727  51.8916750  65.4056644
  46.8105364  52.9986763  65.3446436  47.5596857  53.3162355  64.7462893
  46.7198753  53.6827374  66.6778612  46.9444609  52.9948521  67.4930143
  47.6742268  54.8174191  66.8781853  48.6523581  54.5231676  66.4976883
  47.3739290  55.5951452  66.1759996  47.6307869  55.4369736  68.2490396
  47.0206404  56.6660023  68.4099817  46.5846062  57.1934223  67.5744534
  46.8236876  57.2384071  69.6597290  46.2854195  58.1742048  69.6288967
  47.3920441  56.6259336  70.8128929  47.3120594  57.1446276  71.7568016
  48.1368160  55.4197121  70.6669188  48.5833406  54.9651432  71.5389252
  48.2065916  54.8157597  69.3991232  48.5547400  53.7935591  69.4163275
  45.3324461  54.2244101  66.9535685  44.6217680  53.9879465  67.9469967
  44.8732710  55.0899553  66.1432791  45.3742409  55.2668285  65.2842999
  43.4936857  55.5974197  66.1621189  43.4834337  56.0308170  67.1621990
  43.4021235  56.6505146  65.0977230  43.5785913  56.1718130  64.1344976
  42.3214674  56.7812252  65.0411510  44.2169571  57.9402018  65.4103756
  45.2451944  57.7213144  65.6983328  44.4015121  58.7038136  64.0560436
  43.4526777  58.9838648  63.5984516  45.0795603  59.5462132  64.1928625
  44.8189735  57.9713011  63.3652020  43.5376883  58.9161015  66.4049339
  44.2108870  59.7648335  66.5255785  42.6144457  59.2001867  65.8999348
  43.2394886  58.4588242  67.3483753  42.3710966  54.5784807  66.1264944
  41.4398432  54.7024393  66.9543362  42.4140453  53.6568069  65.1591015
  43.0952549  53.7523699  64.4195557  41.5491867  52.4741602  65.1177025
  40.4952478  52.7410555  65.0397348  41.8938351  51.6512632  63.8882828
  41.8159342  52.2277594  62.9665041  42.8778982  51.1841393  63.8493061
  41.1142302  50.3377676  63.6464071  40.0773430  50.5701637  63.8892269
  41.2484312  50.0657320  62.5994682  41.5659094  49.1195631  64.4335604
  42.3869658  49.1153765  65.2961445  41.0320473  47.9253960  64.2427444
  41.5656996  47.2148800  64.7228384  40.3889036  47.7684927  63.4799623
  41.5733433  51.7406702  66.4852715  40.4705381  51.3035917  66.9213676
  42.7029943  51.4622307  67.2146177  43.5352278  51.8006659  66.7531538
  42.6799393  50.9508228  68.5931396  41.9651890  50.1297951  68.6491728
  43.9775896  50.3199530  69.0601158  44.5929909  50.1311302  68.1804991
  44.5809507  51.0054207  69.6552467  43.8882637  49.0135765  69.8031569
  44.8579788  48.6133814  70.0991392  43.4896421  49.3000650  70.7763624
  43.0528498  47.9302740  69.1067123  42.0034599  48.1815290  69.2608166
  43.1249857  48.0947447  68.0316067  43.2907581  46.4838934  69.6417952
  44.3358898  46.1943769  69.5323563  42.9805183  46.4994812  70.6865978
  42.4710560  45.5611372  68.8941097  41.5022802  45.7195187  69.1317892
  42.6566029  45.5332851  67.9016876  42.7303600  44.6468782  69.2361498
  42.0438862  51.8482637  69.6454477  41.2929010  51.3285589  70.4949617
  42.3662758  53.1408358  69.6877480  43.2048130  53.3832979  69.1796446
  41.8025494  54.1006088  70.5695105  42.1887016  53.6702347  71.4935017
  42.4296570  55.5336475  70.5079985  42.4172163  55.8644009  69.4694662
  41.6020584  56.5516663  71.3998032  40.6227493  56.7431355  70.9611702
  41.5010929  56.2797642  72.4505043  42.1245718  57.5036240  71.3056421
  43.9042377  55.6185055  70.9553146  44.4799137  54.9077034  70.3624773
  44.2025089  56.6364384  70.7044125  44.2404127  55.2747822  72.4273157
  45.3135061  55.1229191  72.5435638  44.1067982  56.1267996  73.0938864
  43.6232233  54.4709301  72.8285503  40.2697945  54.0707874  70.5782604
  39.5680952  54.3225241  71.5846205  39.7449350  53.9173079  69.4028902
  40.3538465  53.7961245  68.6062479  38.2922411  53.9610767  69.2633152
  37.9929590  54.8925591  69.7438097  37.9904151  54.0027761  67.7789307
  38.4668756  54.9036694  67.3923063  38.4320211  53.1317568  67.2947693
  36.5752983  54.0676880  67.5584936  35.9548330  55.0653791  67.7223873
  36.0377336  53.0140877  67.0125866  35.0829649  53.1020117  66.6951180
  36.5793109  52.1668625  66.9177294  37.5354719  52.8412390  70.0509167
  36.3112402  52.8162146  70.0934410  38.2623291  51.8438005  70.4950047
  39.2564678  51.9482851  70.3505325  37.7156806  50.7627916  71.3730240
  36.6279769  50.7429266  71.4408731  38.2191539  49.3959093  70.8108664
  39.2685866  49.5358753  70.5516291  38.1122184  48.6959219  71.6395283
  37.3764420  49.0704107  69.5544577  36.3647509  48.8344955  69.8844957
  37.4958706  49.9637794  68.9414883  37.8665924  47.8443432  68.7284040
  37.7128839  47.9487276  67.4962330  38.4190249  46.8850517  69.3135500
  38.2184243  50.8685160  72.8754616  38.1173801  49.9636316  73.6846066
  38.7156630  52.0711136  73.2833338  38.9496946  52.7579546  72.5807810
  39.2888737  52.3249340  74.6348667  40.1344013  51.6624737  74.8201656
  39.9435234  53.7676191  74.5268679  40.7507944  53.6546135  73.8032341
  39.2605948  54.4952583  74.0883970  40.3925180  54.3725252  75.8380604
  39.7615266  54.0608788  76.6704273  41.8995667  53.9792585  76.1002111
  42.0381880  52.9083967  76.2489891  42.5946522  54.3783474  75.3615046
  42.1814346  54.4212246  77.0558882  40.2767467  55.8389330  75.8164024
  40.8830309  56.3095331  75.0424147  39.2343140  56.0931349  75.6245327
  40.6354141  56.2997341  76.7367935  38.2321000  52.2698879  75.7331800
  37.0510960  52.5364542  75.4370785  38.5662794  51.8776751  76.9976187
  39.8160458  51.1674547  77.3546457  40.5386925  51.8724728  77.7655458
  40.0494576  50.5366039  76.4969540  39.3929291  50.2630949  78.5816145
  40.2753258  50.1397181  79.2095137  38.8753891  49.3363047  78.3339930
  38.4594798  51.1767912  79.3169785  38.9073658  51.9409513  79.9522400
  37.7277184  50.6946182  79.9651575  37.6549721  51.8553162  78.1587934
  36.9181538  51.1176443  77.8409338  36.9731259  53.1768847  78.5607243
  37.5137782  54.2612982  78.2215643  35.8117127  53.0653763  79.1668081
  35.5559945  52.1173286  79.4032717  35.1170063  54.2041540  79.7046566
  35.1464343  55.0473928  79.0145969  33.6371779  53.8097000  79.8675299
  33.7597966  52.9068661  80.4658222  32.6902199  54.8370028  80.4429626
  31.6318440  54.5846128  80.3778362  32.9326916  54.9245310  81.5020370
  32.8800511  55.7590199  79.8934603  33.0840015  53.6546803  78.6406279
  33.1885409  54.4933128  78.1852531  35.7400107  54.7327280  80.9762764
  35.8032942  53.9255238  81.9779205  36.2080050  55.8706141  81.0157013
  82.7079773  29.4052505  81.4739323  82.6158905  28.9390874  82.3651791
  81.7581081  29.5494199  81.1623859  83.2620335  30.2492857  81.4468765
  83.2990265  28.4104514  80.4999638  84.3710899  28.4073901  80.6968689
  82.7430820  26.9469142  80.7959461  81.6776276  26.9052839  80.5697441
  83.2986069  26.1663795  80.2760792  82.8587341  26.5811586  82.3609161
  83.8859367  26.8302035  82.6272774  82.1500587  27.2183299  82.8899479
  82.5736523  25.1269054  82.6517391  83.1293011  24.4030857  82.0555496
  82.8437328  24.9458194  83.6921024  81.1573887  24.7593164  82.4012661
  80.6302357  25.5340767  82.9580021  81.0332394  24.9681544  81.3386917
  80.8088970  23.3541489  82.8047562  80.9407330  23.1638074  83.7878609
  79.8516273  23.0568218  82.6809597  81.3551235  22.6953530  82.2683620
  83.0535412  28.8490057  79.0579462  81.8852425  29.1789007  78.7496567
  84.0367794  28.7504053  78.1806040  84.9074078  28.3620477  78.5142136
  84.0186024  29.1393971  76.7988586  83.6594105  30.1684403  76.8114758
  85.4690552  29.0776181  76.2328100  85.4572105  29.4413757  75.2053690
  86.3749027  29.9888468  77.0523357  87.3909187  30.1026630  76.6743612
  86.0492897  31.0196185  76.9123983  86.4008617  29.7988033  78.1253290
  86.0374737  27.6632690  76.3188934  85.2356625  27.0535207  75.9024620
  87.0316219  27.5393701  75.8894348  86.1577797  27.3029733  77.3405647
  82.9414749  28.4954929  75.9569263  82.2301197  29.1316748  75.1583290
  82.7941608  27.1355462  76.0936069  83.3038044  26.6382122  76.8098593
  81.7904377  26.3637733  75.2879524  81.8489933  26.4495134  74.2029047
  81.9810104  24.8983288  75.5620050  82.9781628  24.5202971  75.3364182
  81.8413925  24.6660495  76.6177797  81.0065746  24.1252089  74.8838997
  80.9755516  23.2350469  75.2420187  80.3827572  26.6367340  75.7752705
  79.4396257  26.6893339  74.9166298  80.2680016  26.7493320  77.0952320
  81.0292816  26.5471244  77.7274227  78.9651918  27.2785926  77.5942087
  78.1268358  26.6307712  77.3381186  78.8131094  27.2684121  79.1538191
  79.5116425  27.9656124  79.6164942  77.8254461  27.6248264  79.4463730
  78.9575958  25.7866430  79.8054123  80.0086308  25.5269623  79.6789455
  78.8537312  25.6429601  80.8808994  78.0380201  24.6983004  79.1804838
  78.5194492  23.5742283  78.9571476  76.8136120  24.9745893  78.8830948
  78.6368990  28.6847687  77.0361423  77.6093531  28.9662933  76.5331984
  79.5898294  29.6193886  77.0903301  80.4325962  29.2667770  77.5210381
  79.3243837  30.9662366  76.5710831  78.4653521  31.4094090  77.0748329
  80.5011272  31.8668795  76.7954683  81.4585304  31.4294457  76.5124035
  80.3320408  32.7452040  76.1725283  80.4608917  32.4426246  78.1953526
  79.4042492  32.5727892  78.4291220  80.8919334  31.6145539  78.7580299
  81.2353325  33.7906194  78.3386993  82.2463226  34.1503549  77.7287912
  80.8088970  34.6194148  79.2727709  81.4459419  35.3088307  79.6455669
  79.9836540  34.3514895  79.7897625  78.9602327  30.8557010  75.1178980
  78.0195904  31.5190744  74.5608568  79.5897007  29.9198055  74.3405485
  80.3237724  29.3996763  74.7995853  79.2158794  29.5528889  72.9755831
  79.2249823  30.4279041  72.3256874  80.3142738  28.5969067  72.3085976
  80.4418945  27.7634144  72.9993248  79.9033689  28.1554103  71.4006662
  81.6104794  29.4070125  71.9847679  81.8191719  30.1039863  72.7964211
  82.8810883  28.5896230  71.8685579  83.7406445  29.2595553  71.8900394
  82.9762173  28.0493474  72.8104496  82.8723049  27.8842950  71.0375690
  81.6823101  30.2262187  70.6447840  81.0853958  31.1213064  70.8197212
  82.6640797  30.6359982  70.4074860  81.2773705  29.5746326  69.8704720
  77.7827740  29.0712285  72.7771759  77.1351862  29.2318130  71.7240334
  77.2875166  28.3444333  73.7794352  77.9491186  27.9438853  74.4290113
  75.9368181  27.8830981  73.7552404  75.6541204  27.6048183  72.7399826
  75.6797504  26.6442847  74.5632124  76.1075211  26.8010116  75.5534410
  74.6493626  26.3868380  74.8084116  76.3051891  25.4745531  73.8003016
  75.8049631  25.3697395  72.8375483  77.3745203  25.6103897  73.6385155
  76.0514593  24.1398835  74.6248055  75.0316095  23.8869500  74.9146748
  76.4493608  23.4243178  73.9052629  76.9983530  24.1901207  75.7851553
  78.0116987  24.1621351  75.3845835  76.7836905  25.1241922  76.3043118
  76.6839600  23.2056737  76.7708349  76.9067955  23.4559798  77.7236176
  75.7088089  22.9431438  76.7547369  77.1731949  22.3399878  76.5937757
  74.8917675  28.9418721  74.0911818  73.8185835  28.9709234  73.4955263
  75.1868105  29.9343610  74.9692059  76.1150408  29.8735332  75.3626442
  74.4462395  31.2186432  74.8974323  73.3897543  30.9508061  74.9119806
  74.7877645  32.0912266  76.1046648  74.5111322  31.5278482  76.9958305
  75.8235931  32.4289370  76.1379004  73.7770367  33.5990381  76.0290003
  72.5075197  33.2892632  76.3069868  74.5272779  31.8146491  73.5280275
  73.5095978  32.1162534  72.9272842  75.7224607  31.8914628  72.9101038
  76.5708303  31.6688776  73.4109354  75.9461403  32.5859571  71.6111660
  75.5316782  33.5813212  71.7710733  77.4155712  32.6545882  71.2938643
  77.8127384  31.6395283  71.2902355  77.5979185  33.0960417  70.3140879
  78.1692886  33.7864280  72.4419022  78.1532335  32.9230142  73.4612942
  75.1581001  32.0290065  70.4306698  74.7504711  32.7626896  69.5371056
  74.7658443  30.7580590  70.5334759  75.2842617  30.1962876  71.1935997
  73.6707258  30.1369143  69.7455406  73.8796473  30.2241755  68.6793089
  73.5424757  28.6327624  70.1667404  73.3564138  28.4692073  71.2282181
  72.6928854  28.2038236  69.6354151  74.7450972  27.9506016  69.8024130
  74.7087860  26.9999909  69.9313211  72.2195053  30.7129622  69.9198580
  71.6117334  31.1163759  68.9476728  71.8499804  30.8844781  71.2030506
  72.4455261  30.3495479  71.8189096  70.6547165  31.6107202  71.6273785
  69.7325420  31.1824465  71.2345982  70.5980349  31.5293074  72.7128506
  70.6316137  33.0457830  71.2648153  69.6020603  33.5629344  70.8492231
  71.7570496  33.7760472  71.3648033  72.5761223  33.3725953  71.7966032
  71.9505644  35.1582885  70.9676695  71.3096046  35.8869767  71.4639425
  73.4393883  35.6290483  71.3079786  74.1081905  34.8785663  70.8865786
  73.7149048  36.9814157  70.6551504  72.8158236  37.5877476  70.7651806
  74.6193266  37.4015069  71.0952044  74.0541458  36.7412877  69.6474981
  73.5819006  35.8005691  72.8239059  72.9157686  36.6071939  73.1300545
  73.3822012  34.8108935  73.2347107  75.0531292  36.2271452  73.1932497
  75.3236008  35.7439733  74.1321278  75.7681608  36.0595560  72.3878050
  75.0742531  37.3061943  73.3459473  71.7371368  35.2418971  69.4456291
  70.9274817  36.0573244  68.9924574  72.5561619  34.4924736  68.6764097
  73.1445217  33.7814832  69.0868044  72.4216509  34.5211363  67.1765327
  72.7594852  35.5368590  66.9709253  73.5741711  33.7584352  66.5970373
  74.4475937  34.1350508  67.1293879  73.3711576  32.7005100  66.7634106
  73.9004326  34.0267134  65.1538658  72.9242229  34.1671872  64.6897745
  74.6349287  35.3744864  64.9332190  74.8248243  35.3433442  63.8603354
  74.0049744  36.2456346  65.1131010  75.5610704  35.5538249  65.4792976
  74.6174669  32.8864503  64.4882011  74.8455286  33.1088924  63.4457970
  75.5332184  32.5905132  64.9999857  73.9273596  32.0428181  64.5000696
  71.0483456  34.1347933  66.6730547  70.5090094  34.6593881  65.7100058
  70.4224157  33.2065511  67.4327278  70.9072971  32.8613782  68.2487202
  69.0807676  32.9095268  67.2080278  68.9293194  32.8133106  66.1328983
  68.8013983  31.4935637  67.7111578  69.5672607  30.8504558  67.2776127
  68.9247036  31.6049147  68.7884235  67.4525023  30.8592939  67.3948145
  67.4993420  29.8608112  67.8294849  66.6359806  31.4168596  67.8536272
  67.2804165  30.8609414  65.8501291  67.0286798  31.8369508  65.4352427
  68.2349968  30.4789090  65.4882860  66.1704493  29.9514484  65.3643608
  65.2116823  30.2485633  65.7893181  66.1097240  29.9606729  64.2760944
  66.4675283  28.5785961  65.8699989  66.1718798  28.4594584  66.8283796
  65.8540535  27.9006958  65.4408169  67.3580027  28.1483984  65.6648636
  68.0024815  33.9568734  67.5691175  67.1154690  34.1582656  66.7897081
  68.1374311  34.7616363  68.6551380  69.0340614  34.6376801  69.1032410
  67.3641014  35.9180570  68.8225698  66.2970591  35.7198954  68.7213135
  67.6099730  36.4222383  70.2809381  67.5179243  35.5507970  70.9291792
  68.6323214  36.7966890  70.3328180  66.5068340  37.4273300  70.6429577
  66.6733360  38.2156110  69.9087954  65.5880976  36.9111085  70.3645039
  66.5265322  37.8456903  72.1051979  67.3438454  37.3858428  72.9732323
  65.7426834  38.6975694  72.4698400  67.6425362  36.9896460  67.7687502
  66.6758537  37.5790071  67.2279739  68.8359928  37.2764707  67.2324896
  69.6571541  36.8706417  67.6580477  69.1114521  38.0586767  66.0220146
  68.7164164  39.0668917  66.1466980  70.5911732  38.1325173  65.7831717
  70.9805489  37.1149468  65.7509041  70.6694031  38.6137700  64.8082972
  71.3194561  39.0273666  66.8061066  71.2977505  40.0913000  66.5701342
  70.8427429  38.8940167  67.7772188  73.0194378  38.5609698  67.1957207
  73.6902237  39.3208599  65.7831383  74.7513676  39.4085145  66.0163498
  73.4287262  38.6302304  64.9814224  73.2387161  40.3052664  65.6599092
  68.2836676  37.4781108  64.8688316  67.7993584  38.2418966  64.0634346
  68.1316233  36.1385441  64.7801399  68.8567162  35.5887485  65.2184010
  67.4430799  35.4939103  63.6110020  67.7634478  35.9808946  62.6899624
  67.8818512  34.0086055  63.5115337  68.1735659  33.6314821  64.4917297
  67.0228863  33.4227586  63.1843138  68.9450502  33.7008667  62.4748516
  70.2395678  33.2665920  62.8259087  70.5538702  33.0266714  63.8309240
  71.2369299  33.0487847  61.8619442  72.2197104  32.6472187  62.0601606
  70.9362268  33.3188581  60.4827023  71.6942835  33.1034708  59.7442198
  69.6185255  33.6482763  60.1089239  69.4525385  34.0091729  59.1046286
  68.6955118  33.9971495  61.1468029  67.7663660  34.4478869  60.8306932
  65.9361744  35.5578637  63.6656380  65.2499866  35.4735374  62.6447487
  65.3869390  35.8242941  64.8620749  66.0092735  36.1440396  65.5904722
  63.9345312  35.5521011  65.2293491  63.7988901  34.4971251  64.9911785
  63.8147306  35.7847834  66.8003178  62.7625084  35.7787919  67.0847273
  64.4043493  35.0207138  67.3069239  64.2266512  36.7348623  67.1405745
  62.9484701  36.3720751  64.4220781  63.3008671  37.5036669  64.1338015
  61.6442680  35.9913969  64.2486763  61.4160728  35.0307894  64.4614315
  60.5704832  36.8478036  63.7211180  60.7114887  37.0362973  62.6568365
  59.3049669  36.0777807  63.7928677  59.0391922  35.7647514  64.8025608
  58.4711027  36.7107797  63.4894133  59.2342043  34.8002267  62.9201508
  59.4712162  35.1144004  61.9036770  60.1456976  34.2609549  63.1779575
  57.9388523  33.8719320  63.0063009  57.9659319  33.1923914  62.1544790
  57.9388857  33.2216454  63.8810730  56.6180658  34.6107960  62.8146029
  55.9042168  33.8120842  62.6131487  56.3365364  35.0968814  63.7487125
  56.5187025  35.5381298  61.6281700  56.8692017  35.1395583  60.7688761
  55.6382608  35.9089446  61.3004160  57.2646904  36.2189126  61.6399336
  60.4381847  38.2108951  64.3921375  59.9610186  39.1531157  63.8218975
  60.9181786  38.2961845  65.5998611  61.1454630  37.3928237  65.9902191
  61.1871815  39.4203591  66.5229988  60.2608109  39.8045659  66.9499922
  61.9774532  38.8827181  67.6741934  61.5115023  37.9532576  68.0014420
  62.9812098  38.6928678  67.2940302  62.0276070  39.8581386  68.8730717
  62.5580072  40.7125902  68.4527302  60.9966755  40.1313877  69.0980721
  62.7288914  39.4954801  70.2433062  62.2556877  38.6335182  70.7136250
  63.7610483  39.1836739  70.0835371  62.5975752  40.5012703  71.3000584
  63.1267977  41.4165640  71.0349798  61.5657377  40.8295393  71.4251852
  63.0814123  39.8962259  72.5635433  63.0094814  40.4495716  73.4054041
  62.5993538  39.0389681  72.7933884  64.0230989  39.5454335  72.4622250
  61.8851662  40.6523514  65.8760452  61.5911198  41.7439270  66.2207317
  62.8396654  40.3934288  64.9496126  63.0842447  39.4191289  64.8446369
  63.7355232  41.3705349  64.3523121  63.3603001  42.3336315  64.6983576
  65.1335335  41.3278961  64.9486923  65.5763197  40.3462362  64.7802067
  65.7288408  42.0815182  64.4331646  65.0819826  41.6614437  66.4337635
  64.7642469  42.9454279  66.9363022  64.7740078  42.7647543  68.2728243
  64.5338011  43.5049582  69.0216970  65.1290751  41.5075827  68.5469389
  65.3633356  41.2015104  69.4805050  65.3117275  40.7953835  67.3946476
  65.5405426  39.7444367  67.2968435  63.7257528  41.3270330  62.8314209
  64.4339752  42.0309353  62.1647358  62.9293013  40.4227114  62.2343063
  62.4354458  39.8003435  62.8578997  62.8904533  40.1251411  60.7999468
  63.8678837  39.7875714  60.4553080  61.9208050  38.9057732  60.6536627
  60.9078121  39.0722847  61.0200310  61.8521023  38.6757445  59.5904255
  62.2577047  38.0185699  61.1898232  62.4846172  41.3242531  59.8938942
  62.7148438  41.2537193  58.6425018  61.9202328  42.3817253  60.4463005
  61.8849373  42.4471092  61.4535666  61.6720581  43.5327959  59.6202612
  61.2787151  43.0653763  58.7175417  60.6909370  44.4250154  60.2683115
  60.3154707  45.2377224  59.6465111  59.8154783  43.8874388  60.6325769
  61.1087036  45.0017262  61.0935211  62.9404068  44.1955185  59.1105461
  62.8883314  44.9126768  58.1453896  64.0868711  43.9974260  59.7374153
  64.0367985  43.4146357  60.5607939  65.2626181  44.8495150  59.5571804
  65.2520943  45.2487898  58.5429955  65.1686764  46.0609484  60.5220270
  65.8211374  46.7657566  60.0066233  64.1404200  46.4166832  60.4569101
  65.6161833  45.7250690  61.9475269  66.9648886  45.9341383  62.3822212
  67.6943541  46.2696838  61.6599464  67.2665310  45.5968094  63.7099504
  68.2833290  45.7379818  64.0455103  66.2892008  44.9873877  64.5644522
  66.6249561  44.7128153  65.8101559  65.9591150  44.1535139  66.2168932
  64.9936771  44.7536325  64.1406441  64.2215157  44.3584442  64.7840643
  64.6684742  45.2391768  62.8417730  63.6471224  45.1304197  62.5079918
  66.5625286  43.9364958  59.7593975  67.6440907  44.2661381  59.3678141
  66.4185810  42.7049828  60.2782583  65.6020117  42.4889898  60.8320284
  67.4940968  41.7543745  60.5450249  68.4175730  42.2997665  60.7395744
  67.1733665  40.7794046  61.5922689  66.3302279  40.1339197  61.3461828
  67.9390240  40.0414181  61.8315220  66.9337463  41.3006496  62.5190830
  67.8986788  40.9653854  59.2603922  69.0374613  40.6269646  59.0306377
  66.9763565  40.8658028  58.2918501  66.0231256  41.1249256  58.5023594
  67.0968246  40.1711226  57.0262575  67.0876455  39.0927291  57.1846485
  65.8231354  40.4987955  56.2036419  65.7662010  39.7678328  55.3970718
  64.9643278  40.4661512  56.8740845  65.6748056  41.8821096  55.7207394
  64.8863411  42.8745508  56.2885952  64.4005823  42.8521633  57.2529316
  64.9201250  43.9122248  55.3848028  64.2595100  44.6685314  55.4929256
  65.6502247  43.6520147  54.2267084  65.9168577  44.3305016  53.0368853
  65.4679918  45.2887344  52.8207684  66.7940331  43.9057064  52.0581150
  66.9295025  44.4664860  51.1451149  67.4581528  42.6982927  52.2831678
  68.1589556  42.3656607  51.5317488  67.1629143  41.9856215  53.4786749
  67.5998497  41.0000992  53.5437012  66.2917137  42.4260044  54.4926977
  68.3933306  40.4950476  56.2260532  68.9332914  39.4682956  55.7240534
  69.0209532  41.6458559  56.0640574  68.6572981  42.8770399  56.7875385
  69.2001629  42.8775263  57.7327394  67.6188564  43.0994034  57.0331001
  69.1812801  44.0108919  55.9683228  69.5607710  44.8664761  56.5269518
  68.4149647  44.3171167  55.2562189  70.4382563  43.3221197  55.3228664
  71.2601805  43.4908533  56.0186195  70.5955124  44.0089750  54.4912434
  70.1790810  41.8158531  55.2119541  69.9669838  41.5702248  54.1713810
  71.3938904  41.0634375  55.7383490  72.3518562  40.8170080  54.9894714
  71.3694286  40.6663227  57.0161819  70.4784203  40.7065058  57.4900913
  72.5707817  40.0844765  57.7061033  73.4700918  40.2177477  57.1047831
  72.7485704  40.8109856  59.0620470  71.9727659  40.4902124  59.7572660
  73.7121964  40.4592085  59.4305468  72.6831245  42.3415756  58.9984655
  73.7435675  43.0974102  58.4762573  74.7241116  42.6537657  58.3862114
  73.5708284  44.4545221  58.1733084  74.3643570  45.0087976  57.6942492
  72.3663998  45.0903749  58.5336447  72.2790289  46.1218929  58.2258463
  71.3206959  44.3512440  59.0687799  70.3644896  44.8204327  59.2474890
  71.5020180  43.0004454  59.3108511  70.6689978  42.4153280  59.6715641
  72.3612595  38.4817410  57.9110193  73.3479691  37.8186560  58.1335020
  71.1505079  38.0051517  57.5119591  70.4954863  38.7529349  57.3334360
  70.7554197  36.5983224  57.6142168  70.8343267  36.2886000  58.6563063
  69.2442179  36.3263988  57.2334099  69.0018177  36.8896723  56.3322639
  69.1330194  35.2912712  56.9105339  68.1314278  36.6082096  58.2353973
  68.3840847  37.0501685  59.5775986  69.3855858  37.3821902  59.8081732
  67.3399353  37.3157501  60.4835558  67.5514984  37.7373505  61.4550972
  66.0428667  37.1806407  60.0530815  65.0808382  37.6224375  60.8718491
  65.1214314  37.1054959  61.6797638  65.8015203  36.6354847  58.8049173
  64.7817707  36.5277195  58.4659433  66.8129873  36.3322973  57.9023314
  66.6016340  35.8329344  56.9683218  71.5385771  35.5934906  56.7762899
  71.7104626  34.4886065  57.2112417  71.9960070  36.0458255  55.6319427
  72.1265888  37.0388699  55.5018950  72.8142834  35.3241229  54.6815681
  73.5450935  34.7724700  55.2729177  71.9376707  34.4592595  53.7777710
  72.5618410  33.6465526  53.4062576  71.1977243  33.8024807  54.2351818
  71.2035990  35.0193715  52.5411272  70.4710674  35.8035684  52.7322531
  71.9412422  35.3874755  51.8280458  70.3132248  33.9593434  51.8270063
  70.8518791  33.0158496  51.7388630  69.4776821  33.6924696  52.4741125
  69.8565722  34.3576694  50.4640150  69.1508770  33.5798740  50.1722336
  69.3126822  35.2988315  50.5446386  70.9678698  34.4343615  49.4881010
  71.5745783  33.6270571  49.5044613  70.7101917  34.7464561  48.5627365
  71.5217543  35.2407575  49.7391796  73.7137365  36.3276219  53.9678669
  73.5667324  37.5051713  54.3489885  74.6403837  36.0182309  53.0675364
  75.0347853  34.6907139  52.6774502  74.2467356  34.0207696  52.3335695
  75.4986095  34.2580938  53.5639095  76.0790873  34.7720098  51.5650749
  75.5481911  34.6959591  50.6161451  76.8633318  34.0212345  51.6620207
  76.6651487  36.2073207  51.6183949  76.7438078  36.6274190  50.6156826
  77.5922871  36.1369944  52.1872282  75.5956078  36.9667530  52.5493479
  76.2174082  37.4233556  53.3193970  75.0708866  38.1653070  51.7454100
  73.9156103  38.0634379  51.2792873  75.9347391  39.1150904  51.6141701
  76.8270540  38.9000583  52.0356417  75.8421230  40.1792383  50.5348825
  74.8859596  40.6964827  50.6143188  76.9284534  41.2356281  50.6893444
  77.9498625  40.8552837  50.6765270  76.7256260  42.3008299  49.6149445
  76.9272852  41.9206047  48.6135149  75.7390261  42.7633858  49.6426392
  77.4108076  43.1178570  49.8409748  76.7491293  42.0126200  51.9917679
  75.8371258  42.6076221  51.9436693  76.7302990  41.2680674  52.7876234
  77.5894117  42.7026558  52.0683432  75.9748983  39.4211125  49.2066813
  77.0713282  38.9716482  48.8949633  74.8974514  39.4261909  48.3997107
  74.0213251  39.8400378  48.6847401  74.9279118  38.7974215  47.0937204
  75.4219389  37.8260756  47.1166134  73.4487009  38.4237981  46.7695713
  72.9978991  37.8845716  47.6027060  72.9341459  39.3529582  46.5246248
  73.3712864  37.4643159  45.5698442  74.3846130  37.0557070  44.9469423
  72.2428226  36.9614363  45.3609276  75.6360626  39.5618224  45.9946871
  74.9841595  40.2821541  45.2350998  76.9786739  39.5463943  46.0061169
  77.4464035  38.9184785  46.6441250  77.7470112  40.6327915  45.2647781
  77.3525858  41.5864944  45.6154585  79.2246103  40.6597996  45.6447220
  79.7441435  41.4469433  45.0982857  79.4571543  40.9197378  47.1405220
  78.8901281  40.2171278  47.7512026  80.5019283  40.9912205  47.4428988
  79.1002750  41.9281054  47.3501110  79.8638344  39.2913055  45.3597116
  80.9500313  39.3539977  45.4257059  79.5747852  38.5073543  46.0596895
  79.5837975  39.0323997  44.3386078  77.5509548  40.6413937  43.7810230
  77.6626825  41.6690922  43.1506491  77.1746778  39.5598030  43.1139135
  77.1191740  38.6838651  43.6136627  76.8840504  39.4231367  41.6949368
  77.5788355  40.0601625  41.1475945  77.1155548  37.9354763  41.2416410
  78.1510210  37.6626897  41.4453697  76.4511538  37.3882461  41.9103813
  76.8345737  37.5524569  39.8105454  77.1551132  38.3567023  39.1483212
  77.3628283  36.6404176  39.5326209  75.3585529  37.3467350  39.4679546
  74.8859501  37.8235841  38.4224844  74.6543884  36.6519356  40.2258492
  75.5266094  39.9738050  41.3749838  75.4161644  40.9563017  40.6148243
  74.4751501  39.5217490  42.0504522  74.6451044  38.9846253  42.8887415
  73.0950832  39.7718716  41.7012119  72.9521418  39.7765112  40.6206322
  72.2794533  38.7164617  42.4053717  72.2240591  39.0132809  43.4527159
  71.2551355  38.5869980  42.0559263  72.7781153  37.7504039  42.3268127
  72.6759291  41.1898899  42.1087456  71.6611147  41.7034245  41.6502571
  73.4414625  41.8155241  42.9867983  74.2107916  41.2563753  43.3267832
  73.3434153  43.2647467  43.4217739  72.3973942  43.8054991  43.3948040
  73.8041210  43.2223463  44.8929739  74.7966337  42.7802372  44.9798965
  73.7943935  44.2625856  45.2184105  72.8873444  42.5367117  45.8699322
  72.7628422  41.5276909  45.4768848  73.6808205  42.4383926  47.1831226
  73.2315588  41.6452837  47.7808189  74.7145224  42.1122503  47.0682287
  73.7053967  43.3806467  47.7305269  71.5444374  43.2164192  46.1511993
  71.0494757  43.5400963  45.2355814  70.8703947  42.5185680  46.6479635
  71.7803335  44.0806675  46.7721081  74.3293381  44.1638184  42.6674986
  74.3901300  45.3492117  43.0302429  75.0231743  43.6710072  41.6316223
  74.8658037  42.7627039  41.2189293  76.0188770  44.4584513  40.8746910
  76.4706421  43.8958168  40.0577116  75.4304361  45.1000071  40.2187681
  77.2722769  45.0959826  41.5358973  77.6931858  46.1504126  41.1225986
  77.8676128  44.4677258  42.5555468  77.5205994  43.5276604  42.6818991
  78.8403034  44.9610901  43.5415888  78.7664843  46.0484934  43.5558748
  78.4473705  44.6463633  44.9876261  78.5710573  43.5755253  45.1492500
  79.1860676  45.1698637  45.5945635  77.0140123  45.0487709  45.3084564
  76.3135910  44.4999313  44.6789455  76.5825224  44.5581198  46.7271662
  76.6811514  43.4725904  46.7235994  77.2909784  45.0000715  47.4277878
  75.5984306  44.9521875  46.9808912  76.7677212  46.5258265  45.0611448
  76.5113354  46.6970730  44.0156555  76.0049152  46.9516659  45.7129812
  77.6781511  47.0388794  45.3709745  80.3318596  44.5814896  43.1945372
  81.0105801  43.7923861  43.9294195  80.7199955  45.0135803  41.9744825
  80.0509167  45.5273104  41.4190388  81.9540787  44.5817471  41.3397026
  82.0625877  43.4976625  41.3066912  81.9124031  44.9770164  39.8058128
  81.6453266  46.0320377  39.7449613  82.8747272  44.7865152  39.3306923
  80.8328533  44.3679905  38.8553548  80.5989075  44.6866703  37.5243378
  79.6284151  43.8289833  37.1199679  79.1420412  44.1594267  36.2140727
  79.1726542  43.0369997  38.1013584  78.5011482  42.2969866  37.9545164
  79.9580097  43.3560848  39.2276597  79.8465824  42.8245449  40.1611757
  83.2651711  45.0871181  41.9029903  84.3034267  44.4567728  41.7234325
  83.2013798  46.1912298  42.7215099  82.4200344  46.8309355  42.7019978
  84.3453121  46.5029764  43.5995483  85.2420425  46.0382795  43.1896305
  84.4977951  48.0809307  43.6147404  85.3760338  48.1986332  44.2495155
  84.6558666  48.4650183  42.6069736  83.3428192  48.8731050  44.2814350
  82.3136806  48.3198595  44.7336292  83.3555222  50.1290798  44.1699600
  84.2446804  46.0098124  45.0529671  85.1764679  46.1914015  45.8254957
  83.1993198  45.2979136  45.4464054  82.3487091  45.4698706  44.9296856
  83.1730843  44.7723913  46.7946815  83.1289101  45.5961418  47.5071287
  81.8063545  44.0831566  47.0321131  81.0472870  44.7223520  46.5811777
  81.7156506  43.1734037  46.4386225  81.4225197  43.7202024  48.4722757
  80.4567909  44.4775534  49.1571283  80.0304604  45.2781677  48.5709047
  80.1259422  44.2616463  50.4611826  79.4034863  44.8496771  51.0076952
  80.5702019  43.0727196  51.0629034  80.1732254  42.7213812  52.3336077
  79.6660948  43.4513998  52.6962376  81.5007973  42.2676516  50.3911877
  81.8115234  41.3532543  50.8746386  82.0150089  42.6798201  49.1529083
  82.7253914  42.0578289  48.6286068  84.3483925  43.8168526  47.1378565
  85.0326824  44.0181875  48.1496239  84.7603226  43.0288696  46.0914230
  84.2285442  42.9569769  45.2357674  85.9311581  42.1311998  46.2779713
  85.9580517  41.6639996  47.2624016  85.8111668  41.0470629  45.2338314
  85.4129219  41.5087461  44.3303156  86.7974281  40.5890703  45.1588058
  84.4907856  39.8865342  45.7824373  83.4545326  40.6133223  45.3548098
  87.2484779  42.9395676  46.2682819  88.2663250  42.3202610  46.5912294
  87.3072338  44.2455006  45.9902811  86.4759064  44.7348785  45.6911039
  88.5592842  45.0787926  46.2453556  89.4026661  44.4030046  46.3871622
  88.8146305  46.1577845  45.1555109  88.0858707  46.9616175  45.2597475
  89.7575855  46.6386795  45.4156256  88.8765335  45.7166433  43.6825895
  88.8779354  46.4660454  42.6747656  88.8194847  44.4508219  43.4535789
  88.4413910  45.7973957  47.5933027  89.4101715  46.1064386  48.2027149
  87.2448826  46.1410666  48.1464291  86.4785385  45.8174086  47.5736666
  87.0360947  46.8941021  49.3927145  87.8373337  47.6074362  49.5858049
  85.7970905  47.8579664  49.3804169  84.9013042  47.2699738  49.1805983
  85.5951309  48.6149311  50.7331085  85.1657867  49.5973682  50.5366707
  84.8518944  48.0390787  51.2845612  86.5445423  48.7773371  51.2433386
  86.0560226  48.8828802  48.1847191  86.6799545  49.7063208  48.5322094
  86.5657616  48.4225512  47.3383379  84.6959496  49.5052719  47.6177883
  84.8213005  50.3094006  46.8926954  84.2142487  48.7010860  47.0616007
  84.1993141  50.0395536  48.4277248  86.8930817  45.9526205  50.5918169
  87.5471878  46.1733055  51.6664982  86.2215900  44.7991562  50.4001188
  85.6209469  44.6345139  49.6049929  85.9071064  43.9107132  51.5320730
  86.3993263  44.3279552  52.4105549  84.3769932  43.7517214  51.6712427
  83.8963890  43.5252810  50.7194853  84.0052319  42.5095892  52.5258970
  84.6255970  42.4866199  53.4218407  82.9576683  42.6299191  52.8020430
  84.1008759  41.6357422  51.8814278  83.7512970  45.1424265  52.1335554
  83.9074707  45.9464216  51.4143133  82.6843643  44.9790764  52.2854567
  84.2879772  45.7450724  53.4530258  85.2477264  46.2540388  53.3639574
  83.6128712  46.5025425  53.8512421  84.3214607  44.9391317  54.1861296
  86.5159702  42.5569391  51.1928415  86.0859489  41.8786478  50.2019453
  87.4808884  42.0140696  51.9541216  87.8574562  42.6371622  52.6541519
  88.2774067  40.7423592  51.6272497  87.9436207  40.3196096  50.6796360
  89.8249054  41.0737276  51.4482927  90.2867889  41.4524841  52.3600531
  90.3447247  40.1701164  51.1298990  90.0813675  42.1660805  50.4038763
  89.3721104  42.0633793  49.5825911  90.0286961  43.1489611  50.8721447
  91.5090370  42.0196819  49.8889732  92.2136211  42.7296162  50.3221560
  91.9664574  41.0756826  50.1851606  91.6001225  42.0636892  48.3320618
  90.9738350  41.3137817  47.8488398  91.1301422  43.0120087  48.0714607
  92.9835129  42.1141577  47.8575325  93.0045319  41.9428968  46.8623829
  93.3952236  43.0271244  47.9882669  93.5124683  41.3421059  48.2373333
  87.9331207  39.5781326  52.5611258  88.0850506  38.4097672  52.1849489
  87.4003220  39.8910427  53.7417650  87.2099400  40.8586407  53.9599514
  86.8935204  38.8970900  54.6861839  87.0015430  37.9012799  54.2563057
  87.5988483  38.9200783  55.9859848  87.4932766  39.9675655  56.2683439
  87.0453930  38.2988524  56.6901684  89.0724373  38.5810804  55.8523893
  90.0826263  39.1269517  56.6406584  91.2185287  38.7314272  56.1589146
  92.2058868  38.9143348  56.5564871  90.9504414  37.8811479  55.1961374
  91.6503143  37.4276257  54.6263981  89.5998287  37.7123737  54.9935007
  89.0975761  37.1020818  54.2575073  85.3975773  39.1815424  54.9463034
  85.0178814  39.5962191  56.0604525  84.4780064  38.9984775  53.9863539
  84.7681236  38.5339332  52.6464415  85.5158329  37.7409339  52.6601934
  85.1427460  39.3561149  52.0367050  83.3726883  37.9742908  52.1523857
  83.2608223  36.9544029  52.5203800  83.3101749  38.0020666  51.0645342
  82.3983574  38.8897634  52.8330088  81.4379883  38.4153438  53.0347776
  82.2553253  39.7990513  52.2491980  83.0025101  39.0629029  54.1732502
  82.8099346  40.0955009  54.4643736  82.4339771  38.0900073  55.2532864
  83.0582047  37.0257378  55.4968596  81.3755131  38.4686446  56.0092831
  80.8365440  39.2847705  55.7571745  80.8018017  37.5316668  56.9649315
  81.0481548  36.5129828  56.6654491  81.5085506  37.8880930  58.2704735
  82.5624847  38.1021333  58.0929852  81.1830235  38.8709593  58.6112309
  81.2330055  36.8370867  59.3763542  81.7429924  37.2482204  60.2475500
  80.2046967  36.8577290  59.7372723  81.8077660  35.0863719  58.9115667
  83.5690975  35.2807236  58.6519766  84.0603256  35.7272148  59.5165205
  84.0319538  34.2993021  58.5486603  83.6849308  35.8561635  57.7335262
  79.2942858  37.7273965  56.9814110  78.8166571  38.7827969  56.6680908
  78.6160421  36.6422057  57.4605799  79.1129780  35.8606124  57.8634071
  77.1951437  36.6099334  57.5668812  76.7098951  37.5558138  57.8076029
  76.6586828  36.3196516  56.1507416  75.6095266  36.5575385  55.9753180
  77.1005106  36.9536114  55.3819847  76.9447374  34.9092388  55.6323814
  77.8867292  34.7334695  54.8620176  76.2205648  34.0031576  56.0464096
  76.6191673  35.6705713  58.6495924  77.2732639  34.7576857  59.1380596
  75.4242802  35.9518123  59.1524935  74.7979736  36.6594386  58.7959719
  74.8909807  35.1777363  60.2443027  75.5288553  35.4196310  61.0944223
  73.4395599  35.6576443  60.5485773  72.8073502  35.6928539  59.6613503
  73.1279230  34.9757528  61.3397837  73.4573174  37.0444465  61.2044668
  73.8684177  36.9554472  62.2100401  74.0249968  37.7513266  60.5993557
  71.8277550  37.8172493  61.4286232  70.8771753  36.5764666  62.3049784
  70.7577848  35.7553482  61.5981436  71.4473534  36.2639070  63.1797981
  69.9141645  37.0138764  62.5683880  74.6965408  33.6808181  59.9798679
  75.0446224  32.8501773  60.8031988  74.4318819  33.3163500  58.7127495
  74.2001963  33.9846563  57.9917812  74.4521046  31.9538283  58.2123518
  73.8961506  31.3424110  58.9231205  73.7989521  31.8071198  56.9130278
  74.3016291  32.4646711  56.2037754  74.0053701  30.8211112  56.4967489
  72.4324322  32.0498037  57.0509863  72.3141289  32.9941034  56.9248867
  75.7977390  31.2708044  58.3160400  75.9161329  30.0691724  58.5095549
  76.8777943  32.0215273  58.0369043  76.7232180  32.9074383  57.5771570
  78.2521629  31.5396571  58.1698275  78.2782364  30.6257296  57.5763988
  79.3380499  32.4511766  57.4662542  79.2825985  33.4663033  57.8593731
  80.7712555  32.0152998  57.7277756  80.9207821  32.2580767  58.7798262
  80.9311867  30.9424710  57.6202345  81.4940643  32.6284242  57.1895123
  79.1261387  32.4016523  56.0817814  78.3696938  32.9828119  55.9739017
  78.6258030  31.3650203  59.6710062  78.9440298  30.2587843  60.0850010
  78.4807587  32.4412656  60.4861593  78.1606436  33.3046508  60.0711966
  78.6641788  32.4191093  61.9806910  79.7085571  32.1899486  62.1925116
  78.3415794  33.8304996  62.5912476  77.2623968  33.9021635  62.4558640
  78.6771822  33.7882090  64.1214180  78.2150412  34.6918964  64.5187521
  78.2809925  32.8953195  64.6050310  79.7635508  33.8112712  64.2073345
  79.0359068  34.9529696  61.8325090  80.1111603  34.7750449  61.8158484
  78.7368536  34.9599743  60.7843590  78.7500525  36.3131189  62.4040842
  79.2490768  36.9975019  61.7180109  77.6785374  36.5129876  62.4054432
  79.1272831  36.3856745  63.4241533  77.9472637  31.2272739  62.6099491
  78.4254026  30.4879570  63.4600735  76.6533089  30.9153533  62.1571827
  76.2032557  31.5155959  61.4809704  75.8409023  29.6961761  62.5749397
  75.9442711  29.7715878  63.6574030  74.3635416  29.8959398  62.1104336
  73.8886023  30.6677747  62.7160740  74.2844677  30.1753855  61.0598326
  73.4474468  28.7117577  62.2745609  73.8340330  27.8274941  61.7678738
  73.3276224  28.4102798  63.3151627  72.0459032  29.0332365  61.7366219
  71.6326523  29.9327564  62.1928930  72.1076488  29.1554022  60.6552505
  71.1556482  27.8414154  61.9863605  71.5965891  26.9595957  61.5215254
  70.9380579  27.6503992  63.0372000  69.8508501  28.0603480  61.4451456
  69.8900270  28.1811380  60.4431534  69.2881346  27.2316694  61.5745449
  69.4439220  28.8429022  61.9371986  76.4227009  28.3591628  62.0947170
  76.4493942  27.4368143  62.8637838  76.9261789  28.3439326  60.8278608
  76.8208742  29.1818905  60.2739334  77.7200413  27.2212625  60.2925062
  77.0308638  26.3801408  60.3676605  78.0879879  27.2982860  58.8049793
  78.8074732  28.1164551  58.7726021  78.6207008  26.3575530  58.6659336
  77.0518112  27.5413370  57.9377127  76.8432331  28.4676504  58.0793047
  79.0177488  26.9692135  61.0409069  79.3835354  25.7767773  61.0616589
  79.7116470  27.9870725  61.5972328  79.3201160  28.8980579  61.4051151
  80.9133053  27.9046702  62.4510479  81.6063023  27.1898937  62.0072603
  81.7168808  29.2471647  62.2882748  80.9801579  30.0460362  62.3728466
  82.5519180  29.3884516  62.9744625  82.4640846  29.3972015  60.9443045
  83.1467152  28.5567498  60.8187771  81.8028641  29.3187547  60.0813293
  83.2765293  30.6535339  60.8469677  83.2698536  31.0344911  59.8257303
  82.6728249  31.4416242  61.2970209  84.6217346  30.6048155  61.5873671
  84.4203758  30.4279447  62.6438999  85.2944469  29.8393631  61.2005138
  85.3034210  31.9204807  61.4843655  86.1713123  31.9583321  61.9995642
  85.5087376  32.0973206  60.5113935  84.7631168  32.6692414  61.8936682
  80.5511189  27.4799991  63.9385462  81.2458324  26.6053462  64.4470215
  79.4956350  28.0464411  64.5552254  79.0363169  28.8130355  64.0846205
  78.8959551  27.3834276  65.7583666  79.5961189  27.4189949  66.5929985
  77.6818848  28.2053351  66.2106228  77.0675135  28.4332585  65.3395891
  77.0886087  27.5934100  66.8900871  77.9840565  29.5107889  67.0064926
  78.7477064  30.0130677  66.4126444  76.7392063  30.3904557  67.0372772
  76.9799757  31.3626027  67.4674654  76.4024019  30.6069422  66.0234737
  75.9616089  29.9719381  67.6762438  78.5246563  29.4243884  68.4357023
  78.9276552  30.3517294  68.8428020  77.7369642  29.1009235  69.1161537
  79.2664766  28.6266208  68.4726620  78.5081291  25.8740330  65.4255629
  78.7912130  25.0496888  66.2583447  77.9355288  25.4882097  64.2545795
  77.7020788  26.2188506  63.5974932  77.6159668  24.0794539  63.8628054
  77.0507812  23.6703658  64.7002506  76.7023468  24.1990900  62.6149654
  77.1194315  24.9222350  61.9141054  76.6777945  23.2846260  62.0222998
  75.2347422  24.6358538  62.8875875  75.2042961  25.4068375  63.6574984
  74.7716570  24.9207282  61.9428635  74.3173170  23.5764956  63.5740995
  74.6117973  22.9369831  64.5843935  73.1751633  23.4315562  63.1163073
  78.7999725  23.2244301  63.5678720  78.7807798  22.0126343  63.7968826
  79.8267412  23.7725091  62.9437876  79.9267864  24.7202444  62.6092911
  81.0454559  23.0980015  62.6168776  80.7732487  22.0722103  62.3683691
  81.6176891  23.6917806  61.2693787  82.5793743  23.2096148  61.0939598
  80.9835339  23.4940195  60.4051781  81.7075634  24.7777820  61.2944365
  82.0519066  23.0788779  63.7667608  83.0847740  22.4905252  63.7073278
  81.8333530  23.8764811  64.8103666  80.9829617  24.4196177  64.7663403
  82.6191521  24.0328789  66.0811710  82.0285797  24.6321869  66.7741013
  82.8573990  22.6976132  66.7800903  83.2209778  21.9429922  66.0826206
  83.6303329  22.8373623  67.5358295  81.7755890  21.9715238  67.5594568
  82.2234440  21.0116696  67.8167582  81.5142441  22.5143337  68.4678411
  80.5412197  21.6692019  66.6972446  79.7985363  22.4582624  66.5793419
  80.8296394  21.2925482  65.7158899  79.8229504  20.5428100  67.2521687
  80.0450134  20.2763653  68.2007408  78.7592649  19.8610508  66.8183565
  78.1984568  20.0992656  65.6689930  78.6441803  20.7406139  65.0285959
  77.5413465  19.4712901  65.2285957  78.2228136  18.9186823  67.5574350
  78.7754250  18.6874735  68.3706188  77.3068142  18.5296583  67.3850775
  83.9201450  24.8522735  65.9872293  84.8942566  24.6647716  66.7294073
  83.9629841  25.8454394  65.1108694  83.1709671  25.9292841  64.4897556
  85.2073288  26.5348601  64.7795296  85.9820938  25.7745671  64.6805668
  85.0057316  27.2240782  63.4489250  84.1507530  27.8999734  63.4320354
  85.8224583  27.8823638  63.1527662  84.8519993  26.2138057  62.2138691
  83.8526154  25.7796669  62.2432280  84.8996639  26.8029737  61.2980556
  85.9274769  25.1113367  62.0782566  86.9936657  25.2243733  62.7635956
  85.8146477  24.1321325  61.3512468  85.6989670  27.5372338  65.7574892
  86.9330692  27.7712846  65.8540344  84.7695446  28.1198978  66.5140009
  83.8395691  27.7512431  66.3749552  85.0585556  29.1852283  67.4989176
  85.8386612  29.8491216  67.1263790  83.8787746  30.1499486  67.8101635
  83.0968094  29.5677519  68.2976770  84.1844082  30.9220624  68.5162306
  83.3133411  30.9023666  66.6241789  84.1488075  31.8361235  65.9860754
  85.0834751  32.0355582  66.4890909  83.7061024  32.5096440  64.9046898
  84.3973446  33.2039881  64.4503021  82.4505424  32.2736621  64.3672132
  82.0788479  32.8232718  63.1413221  82.6927853  33.4203839  62.7075720
  81.5742970  31.4401150  65.1205587  80.5968666  31.2514591  64.7016859
  81.9713879  30.7814670  66.2875509  81.2957191  30.1267123  66.8178034
  85.6188869  28.6674571  68.8227320  84.9729156  27.8342247  69.4272375
  86.7646790  29.2724919  69.2249632  87.2489452  29.9266267  68.6268902
  87.3353004  28.7668538  70.4698324  87.1530151  27.7060699  70.6419134
  88.8599777  28.9619708  70.2520847  89.0781975  30.0272751  70.1772499
  89.3369770  28.5382771  71.1358643  89.3730354  28.3102727  68.9305162
  89.0937710  27.2567964  68.9478302  88.9781284  28.8329697  68.0593443
  90.8697796  28.3230066  68.9664984  91.2685204  28.0628228  69.9470139
  91.3102818  27.5379443  68.3518887  91.4512730  29.5668936  68.5521507
  90.8194351  30.3356194  68.3790779  92.7207851  29.8888350  68.3465672
  93.6985588  29.1034317  68.5112572  93.4911823  28.1248617  68.6509037
  94.6410179  29.4548583  68.4198093  92.9060936  31.0735464  67.9059076
  92.1755219  31.7647743  67.9984856  93.8442230  31.4454722  67.8647661
  86.8470860  29.4801211  71.8157005  86.9689655  28.8740683  72.9477596
  86.2609100  30.6861806  71.6597795  86.1670113  31.0881209  70.7379723
  85.4567719  31.2993002  72.6227283  84.9315643  30.4395103  73.0386972
  86.3570786  31.9024491  73.6746645  85.6860256  32.1582818  74.4946289
  87.0403576  31.1860704  74.1307640  87.2899628  33.0475569  73.1638670
  88.4463024  33.2348633  73.6518621  86.8787575  33.8380957  72.2835350
  84.4496441  32.2258544  71.9177294  84.4916344  32.5030327  70.7120037
  83.6505699  32.8372407  72.7663612  83.9578152  32.9446673  73.7224770
  82.5815678  33.7194133  72.4565506  81.9379616  33.2683539  71.7012930
  81.5669918  33.7816978  73.6422348  80.7115078  34.4514632  73.5547018
  81.0145283  32.8422594  73.6607647  82.1256542  33.9310145  74.5661974
  83.0767536  35.1325488  71.9942999  82.3097992  35.8750844  71.3162327
  84.3594551  35.4482532  72.1513510  84.9404907  34.7479391  72.5895882
  85.0094509  36.6391897  71.6605330  84.2424679  37.3958611  71.4953566
  86.0728359  37.1200919  72.6829958  85.6804466  37.2449803  73.6922169
  86.8476009  36.3620090  72.7976990  86.7362309  38.3599377  72.1532202
  87.3354912  38.1231117  71.2740803  85.9697723  39.1144276  71.9760323
  87.7282810  38.9609003  73.1494951  87.5256443  38.7634969  74.3367672
  88.6818504  39.8053455  72.7568960  89.2472267  40.1331758  73.5269451
  88.8809013  40.2071095  71.8518782  85.5374718  36.3448977  70.2225637
  85.5160332  37.2886896  69.4397020  85.8805847  35.0771570  69.8399591
  85.8685684  34.4224024  70.6088924  86.2500000  34.7613382  68.4557247
  86.9930744  35.4367995  68.0318165  86.6833496  33.2743359  68.3038902
  85.8388901  32.6963902  68.6793327  86.9301796  33.1035137  67.2560358
  87.9729557  32.8365159  69.1322613  88.5580921  33.7123537  69.4126701
  87.6399326  32.2600770  69.9953461  88.9083195  32.0218778  68.2331514
  90.1616096  32.1991467  68.3225441  88.3962631  31.0918427  67.5674582
  84.9001408  34.8864150  67.6045799  84.9486256  35.4885507  66.5137482
  83.8072109  34.2725039  68.0568314  83.9262676  33.8892817  68.9836884
  82.4289513  34.5010853  67.5784969  82.2060490  34.1296673  66.5782642
  81.3937950  33.7938142  68.5940790  81.4028168  32.7292848  68.3599949
  81.6702938  33.9275718  69.6399117  79.9417400  34.2576480  68.5893011
  79.3912363  35.1420331  69.5213795  79.9066257  35.5250812  70.3897381
  78.0186129  35.5209756  69.4424677  77.5254679  36.2311339  70.0896835
  77.2192240  34.8965883  68.4519625  76.1662245  35.1219082  68.3693123
  77.7854109  33.9454436  67.5324249  77.1419001  33.3488750  66.9028234
  79.1692019  33.6251855  67.6143265  79.5207262  32.8148532  66.9928789
  82.1603489  35.9700370  67.4565125  81.7571640  36.5033460  66.4062452
  82.2610855  36.6891956  68.6039352  82.5177860  36.1860037  69.4411945
  81.9689941  38.1116724  68.7184191  80.9018135  38.2973242  68.5968637
  82.2928619  38.3161855  69.7388983  82.7752399  38.9524007  67.6639509
  82.2500420  39.9010634  67.1261978  83.9995956  38.5902071  67.3013592
  84.3120670  37.7120876  67.6904202  84.8124504  39.1386962  66.2960339
  84.7911549  40.2139473  66.4734459  86.2635708  38.8431144  66.4807606
  86.6718483  38.8514638  67.4913692  86.4643097  37.8557611  66.0649061
  86.7026615  39.7202826  66.0054970  84.4029522  39.0465021  64.7722483
  84.6558666  39.9743724  64.0212345  83.8688946  37.8646684  64.4456530
  83.6925697  37.1811652  65.1680326  83.1135654  37.7399778  63.1339884
  83.7152004  38.2010365  62.3506832  82.8623104  36.2297153  62.7924013
  82.4944878  35.6828952  63.6606121  82.0630836  36.1544681  62.0550632
  84.1597652  35.5614305  62.2814083  85.1978493  36.2473989  62.0798397
  84.0984440  34.3054152  62.1416569  81.7987061  38.5397649  63.1617880
  81.4390755  39.1852641  62.2240210  81.0073185  38.6521101  64.2685890
  81.0734177  38.0325651  65.0635099  79.7248650  39.4464970  64.3164539
  79.1374636  39.1350555  63.4527063  78.8827801  39.2127657  65.6228638
  79.5460510  39.4401550  66.4574099  77.6749516  40.0924540  65.6221151
  76.9676542  39.9282765  66.4350605  78.1532574  41.0093403  65.9665680
  77.2208405  40.2514315  64.6440506  78.3869648  37.7634430  65.6345129
  77.8216410  37.6394010  64.7108650  79.1734886  37.0220780  65.7754517
  77.6350975  37.7879167  66.4233065  80.0245285  40.9271240  64.0896988
  79.4906235  41.6014957  63.2209587  81.0179043  41.4878321  64.8629618
  81.4741135  40.9532928  65.5883837  81.4524841  42.8732061  64.6698713
  80.6010246  43.5485983  64.7533894  82.3855591  43.2274151  65.8154917
  83.1053162  42.4375057  66.0301733  82.7902794  44.2348957  65.7191610
  81.6200352  43.2326269  67.1455002  80.7513523  43.8654757  66.9638395
  81.2085247  42.2326851  67.2828960  82.4710846  43.7079191  68.3049536
  83.3840942  43.1125164  68.3061314  82.8364658  44.7164202  68.1112432
  81.7052364  43.6065245  69.5677423  80.8173370  44.0836000  69.6320152
  82.0669746  42.9888153  70.6662941  83.1829453  42.3306704  70.6924725
  83.5302639  41.9641733  69.8177385  83.5507298  41.9406891  71.5484810
  81.3657093  43.0148745  71.7137480  80.5030537  43.5401106  71.7209435
  81.7322063  42.5996971  72.5583792  82.0823669  43.1696606  63.3497238
  81.9287872  44.2799664  62.7477169  82.8487206  42.2365665  62.7763414
  83.1207561  41.3932323  63.2609940  83.2918549  42.1942663  61.3289213
  83.8563347  43.1249571  61.2717152  84.3106461  41.0683680  61.0213518
  85.2501488  41.3583946  61.4918089  83.9821434  40.0916815  61.3766861
  84.6892929  40.9833765  59.5336199  83.8502884  40.8147526  58.8585377
  85.3687572  42.2364616  59.0819407  85.7774448  42.1694708  58.0736780
  84.6156216  43.0240679  59.0582323  86.1641788  42.4243927  59.8031139
  85.6372070  39.7483015  59.3522072  85.7267952  39.4127750  58.3190107
  86.6347218  40.0312710  59.6883583  85.2784252  38.9086723  59.9475241
  82.1450615  42.1986294  60.3313112  82.2220612  43.0968285  59.4220638
  81.0488129  41.4597845  60.4588175  80.9068775  41.0254049  61.3595200
  79.8194361  41.6303635  59.6140623  80.1206017  41.3577366  58.6025858
  78.7803364  40.5822992  60.0494576  79.2466307  39.6688461  59.6802998
  78.5848951  40.7292604  61.1116743  77.4009943  40.7137585  59.4227934
  76.9971561  41.6577673  59.7886610  77.4820614  40.6747150  58.3365154
  76.1423922  39.5203543  59.8834658  76.2384176  39.5912194  61.6840553
  76.2350178  40.6467390  61.9560194  75.3102779  39.1666317  62.0666504
  77.1516418  39.1507816  62.0842218  79.2456913  43.0140638  59.6350813
  79.1443205  43.6223125  58.5969591  78.8619137  43.6673832  60.7847548
  78.9808178  43.2074022  61.6760397  78.3223248  45.0040722  60.8433723
  77.4567699  45.0011635  60.1808739  77.9978180  45.3257942  62.2779179
  78.9293051  45.1813650  62.8252554  77.6122904  46.3438129  62.3335934
  76.8999434  44.4185686  62.7716970  75.6316710  44.2249584  62.1045542
  75.3665590  44.8816204  61.2891293  74.6316957  43.4097099  62.6605749
  73.6859608  43.2880068  62.1534443  74.9765873  42.6835632  63.8620567
  74.2670393  42.0816326  64.4103479  76.1428308  42.9191685  64.5411921
  76.2575102  42.4630213  65.5133915  77.1241570  43.7360764  63.9778090
  78.0518198  44.0324545  64.4447184  79.3583155  45.9521294  60.2990294
  79.0376043  46.7714405  59.3949032  80.6507206  45.9010744  60.6982422
  80.9160995  45.2732801  61.4435959  81.8383503  46.6706800  60.1465273
  81.5920544  47.7016830  60.4004335  83.1071091  46.2514400  60.8009434
  83.0549526  46.4223433  61.8761969  83.1852818  45.1816177  60.6073666
  84.2169952  46.9296885  60.3130054  84.4862080  46.5660572  59.4663000
  81.9662571  46.6425133  58.6749315  82.1615410  47.7013302  58.1089020
  81.7905712  45.5475521  57.9268265  81.4042664  44.7606087  58.4284115
  81.7226601  45.4603624  56.4634132  82.6214600  45.9732246  56.1210060
  81.6275597  43.9374304  55.9806490  80.7918739  43.4596109  56.4919424
  81.5061378  44.0141010  54.9001503  82.8048420  43.0457163  56.2664747
  83.9380169  43.4949160  56.0911798  82.5927925  41.8002796  56.6350079
  83.3586788  41.1444902  56.5762138  81.6527653  41.4391947  56.5571928
  80.5890751  46.2869787  55.8366728  80.7207298  46.8940592  54.7951412
  79.3768644  46.2980175  56.4282942  79.1510820  45.7735205  57.2613764
  78.3244801  47.1661997  56.0318661  78.1731319  46.9497538  54.9743509
  77.1016645  46.8218327  56.7492867  76.7151499  45.8870220  56.3432884
  77.2018480  46.7590332  57.8328514  75.8963013  48.0524492  56.4201403
  76.6450787  49.0608358  56.8755484  78.7949038  48.6294270  56.1948395
  78.7622547  49.3962145  55.2240944  79.3670988  49.0068007  57.3616266
  79.5589495  48.3458042  58.1008053  79.8149920  50.4470396  57.4726772
  78.9974308  51.0917854  57.1501875  80.1713181  50.7600069  58.9904451
  81.1341858  50.2949142  59.2017889  80.4187965  51.8188286  59.0662766
  79.1731405  50.4075146  60.1155519  77.7544355  50.5652761  59.9500084
  77.2773504  50.9511375  59.0612411  76.9356298  50.0398540  60.9842777
  75.8750153  50.2434635  60.9904146  77.5097466  49.2677450  62.0203829
  76.7224073  48.7205029  62.9909468  77.2633028  48.2616901  63.6378765
  78.9224911  49.2167664  62.2189951  79.3124342  48.6846542  63.0740976
  79.7328997  49.7068930  61.1986971  80.8067608  49.5937729  61.2195110
  80.9949780  50.8084011  56.5950537  81.1323738  51.9738722  56.2296247
  81.8088341  49.7994089  56.2001276  81.5541267  48.8593864  56.4676762
  82.9912186  49.9860334  55.3592348  83.3218002  50.9988880  55.5893183
  84.0336418  48.9163542  55.6700659  84.1959476  48.9556122  56.7471981
  83.6141872  47.9324436  55.4600906  85.3232288  49.0376759  54.9281883
  85.1859570  48.9262247  53.8526249  85.7889462  50.0008774  55.1366377
  86.3400745  48.0143356  55.4886484  86.7287922  48.2847548  56.4704180
  85.8976555  47.0187807  55.4533291  87.5134659  47.9181290  54.4747972
  87.1470451  47.2696161  53.6790133  87.6131344  48.8893938  53.9902306
  88.8799477  47.6630688  54.9690676  88.8385296  46.7936134  55.4813528
  89.5913601  47.5506735  54.2610025  89.0659809  48.4159803  55.6160736
  82.6675224  50.0203371  53.8279676  83.3477020  50.7462025  53.1069756
  81.6708374  49.3518353  53.3649731  81.2385368  48.5894299  53.8669252
  81.1615467  49.4542027  52.0519018  82.0714474  49.6216106  51.4755630
  80.4789543  48.1133223  51.5796566  81.1405849  47.2708464  51.7810965
  79.4893312  48.1553507  52.0346117  80.3102303  47.9365349  50.1121616
  81.4858055  47.7883434  49.3285227  82.4690056  47.7305603  49.7716808
  81.3816166  47.6147270  47.9528475  82.2629738  47.7690220  47.3480272
  80.1252747  47.5715590  47.3483515  80.1023960  47.6894712  45.9956503
  80.9837627  47.8989124  45.6779671  78.9796019  47.7336931  48.1598663
  77.9656649  47.7272081  47.7879810  79.0725422  47.8771067  49.5119047
  78.1452656  47.9027510  50.0649834  80.2099895  50.7016706  51.8500710
  80.1265240  51.2361908  50.7313013  79.4012117  51.1247587  52.8660011
  79.4740152  50.5517292  53.6945200  78.2248354  52.0066643  52.6768303
  78.2104111  52.1894169  51.6023540  76.8868065  51.3105202  52.9749680
  76.7541313  51.1178017  54.0395594  76.0104322  51.9218779  52.7597380
  76.7456770  49.9827814  52.1818161  76.8560886  49.9649334  50.9462023
  76.3996172  48.9202690  52.8197098  76.2718678  48.0677986  52.2933292
  76.5429163  48.8871098  53.8189411  78.2724571  53.3504915  53.4914064
  78.4446144  53.3446836  54.6731234  77.8954935  54.4831800  52.8146076
  77.3957586  54.5053387  51.4940882  76.4800692  53.9161253  51.4446688
  78.1418037  54.2736340  50.7339382  77.0675373  55.9789562  51.2231636
  76.0025597  55.9927893  51.4549685  77.2853470  56.1403179  50.1674080
  77.9334974  56.7848253  52.1435642  77.5053930  57.7547264  52.3968029
  78.9592695  56.9087219  51.7963791  77.9938412  55.8222246  53.3536816
  78.9348888  56.0995245  53.8286924  76.7700768  55.9676123  54.3390179
  75.6651926  55.3995562  54.0610504  76.7838383  56.7732906  55.4092598
  77.7871895  57.7449846  55.8091974  77.4931812  58.7863016  55.6776047
  78.6913490  57.6174831  55.2139235  78.0589914  57.5508595  57.3231411
  78.4564066  58.4412956  57.8102636  78.7204266  56.7015171  57.4941158
  76.6785336  57.2004890  57.7541161  76.2603283  58.1464720  58.0981112
  76.6924477  56.5460730  58.6256933  75.8393383  56.6758347  56.5370417
  75.5612803  55.6318665  56.6816854  74.5450258  57.4364996  56.3148594
  73.6568880  57.2938538  57.0865011  74.3673468  58.0436182  55.1577520
  75.1938486  58.1719112  54.5915937  73.1200790  58.4822273  54.5288229
  72.5903034  59.1816711  55.1755285  73.2781076  59.1806507  53.1770325
  73.6369085  58.4908104  52.4131680  72.3012877  59.5783377  52.9017782
  74.2343807  60.3116179  53.1952763  74.0809536  61.3111401  53.9195919
  75.1973534  60.3208923  52.3728180  72.1816158  57.2520399  54.3309975
  70.9555292  57.3436308  54.3746614  72.7338505  56.0364246  54.1389513
  73.7369919  55.9215879  54.1138935  71.9570732  54.7883224  53.9840889
  71.3773966  54.9425459  53.0739832  72.7918577  53.6447239  53.5132170
  73.7553978  53.6525249  54.0227556  72.2410202  52.7265167  53.7171125
  73.0299711  53.6779785  51.9842529  72.6546621  52.6492262  51.0815525
  72.8579903  53.2123661  49.8629856  72.6276541  52.6278543  48.9845228
  73.3165884  54.4447231  49.9956703  73.2980490  55.1283455  49.2524195
  73.5043001  54.7837162  51.2836599  73.6948538  55.7680941  51.6850281
  71.0624361  54.4614220  55.2159739  71.5033293  54.5257568  56.3041019
  69.8425674  54.0636778  54.9744940  69.5562029  54.1115093  54.0071201
  68.9964199  53.3950567  55.9724236  68.9191484  54.0067434  56.8712950
  67.6314497  53.1639338  55.3531075  67.6385975  52.5090647  54.4817877
  67.1109200  52.6212788  56.1422110  66.7856312  54.3811178  55.0788784
  65.7229185  54.1470718  55.0158358  66.9402981  55.1673269  55.8178329
  67.0255852  54.9270630  53.6544657  67.0534658  54.2199278  52.6515055
  67.0490313  56.1657238  53.4953833  69.5748806  52.0629978  56.4709854
  69.3134785  51.7665100  57.5851059  70.3285074  51.2671328  55.6866932
  70.4849386  51.6548443  54.7672844  70.9006691  49.9252796  56.0341978
  70.0674486  49.3428183  56.4273643  71.3696527  49.0896511  54.7922087
  70.5352592  48.8478184  54.1338682  72.4932098  49.7761679  53.9434052
  73.3088303  50.1232195  54.5777798  72.8208113  49.1094446  53.1457472
  71.9735670  50.5734348  53.4119606  71.9334030  47.6718807  55.1745605
  71.9041586  47.0189476  54.3022442  72.9152489  47.7804327  55.6353188
  71.3286209  47.1745872  55.9328699  71.9979191  49.9883652  57.0359898
  72.1635771  49.0814447  57.8439760  72.7161169  51.1033916  57.0673800
  72.3324394  51.8456697  56.5000010  73.6582994  51.4948273  58.1621218
  74.3538141  50.6574774  58.2187128  74.3188238  52.8447580  57.7985144
  73.5093260  53.5170698  57.5142288  75.0464678  53.6033487  58.9782619
  75.6099606  54.3771267  58.4568882  74.2827606  54.1023111  59.5748234
  75.6752920  52.9258823  59.5559549  75.2466249  52.5784636  56.5750122
  74.6175528  52.6446772  55.6873226  76.0493994  53.3077097  56.4661455
  75.7688475  51.6228628  56.6220236  72.8842878  51.6282272  59.4814396
  73.3739185  51.1206532  60.5256367  71.6345596  52.2362852  59.4998646
  71.4402246  52.7858210  58.6750364  70.7434273  52.2075510  60.6594372
  71.3517332  52.4412489  61.5331984  69.6182203  53.2859659  60.5911398
  69.0351629  53.0476046  59.7015715  69.0020943  53.2290411  61.4884996
  69.9614191  54.3176985  60.5146790  70.2319622  50.8345413  61.0288620
  70.2462864  50.6386518  62.2544956  69.8169231  49.9927282  60.1021051
  69.8154211  50.3348684  59.1518211  69.5308018  48.5557795  60.3362513
  68.7145901  48.4629202  61.0526848  69.1088772  47.8900528  59.0065956
  69.9741650  47.9333639  58.3451605  68.9197493  46.8335199  59.1965055
  67.7650118  48.4165239  58.3205080  67.0992613  48.7013769  59.1352034
  68.0377960  49.3195581  57.7744102  67.0261574  47.1543598  57.3089600
  65.7293749  48.0893087  56.6690016  65.1768303  47.5134611  55.9265757
  65.1463795  48.4327555  57.5235558  66.1240721  48.9149332  56.0768366
  70.6880617  47.7262735  60.9731150  70.5085087  46.8517828  61.8232822
  71.9537687  48.1176662  60.6961346  72.1068144  48.8205099  59.9871254
  73.1527519  47.3772955  61.1342812  73.0037403  46.2998486  61.0635710
  74.3162727  47.6706409  60.1699829  75.1100922  46.9706011  60.4305601
  73.9684153  47.4116755  59.1699648  74.5533657  48.7340355  60.1370955
  73.3928204  47.7586699  62.5915527  73.5903263  46.8154287  63.4164000
  73.3599901  49.0974331  62.8438187  73.2228327  49.7274399  62.0663977
  73.4420252  49.6329021  64.1339922  74.3732882  49.2001820  64.4995117
  73.4930325  51.2504911  64.1512299  72.6430511  51.6311216  63.5848808
  73.3805084  51.7069721  65.1346207  74.7365808  51.8121433  63.5222816
  74.9244213  51.3734293  62.5423098  74.5877457  52.8732872  63.3224821
  76.0288048  51.6976023  64.4073915  75.7339287  52.2090435  65.3236771
  76.2190628  50.6841660  64.7607183  77.0832062  52.3304272  63.5965824
  76.7910290  52.8260517  62.7664661  78.3540392  52.0960760  63.6165762
  78.9393139  51.4220238  64.5525503  78.4133053  50.7987547  65.1483297
  79.9424601  51.3611507  64.4520760  79.0877247  52.5538349  62.6302004
  78.6526251  52.9448032  61.8068314  80.0630569  52.3082018  62.5380659
  72.3248386  49.2137957  65.2107573  72.7614403  48.8162613  66.3403845
  71.0875225  49.0741491  64.7123098  70.8421230  49.3854475  63.7833452
  70.0341415  48.5397673  65.5286598  70.0077581  49.0250731  66.5043020
  68.7237549  48.8270235  64.8160648  68.6316633  49.8618698  64.4863558
  68.6835480  48.1275415  63.9810705  67.4032927  48.5517740  65.6395817
  67.4233484  47.4801970  65.8381462  67.4842405  49.1532612  66.5449905
  66.0596466  48.9431524  64.9646568  65.9405804  50.0194454  65.0891972
  66.2008286  48.8059521  63.8925791  64.7787523  48.2050514  65.3793764
  63.8856316  48.6571598  64.9480629  64.7360802  47.2086287  64.9395800
  64.5952654  48.1940556  66.8379068  64.3636131  49.0715075  67.2812033
  63.8785744  47.5064993  67.0215702  65.4220295  47.7650166  67.2284126
  70.1854134  47.0177841  65.8074760  69.9508095  46.6229630  66.9289112
  70.5357265  46.1659431  64.8019600  70.8249235  46.5305424  63.9055634
  70.8149862  44.7948647  65.0998831  69.9782324  44.4421148  65.7027960
  70.7993221  44.0295172  63.7692165  69.8486614  44.1637611  63.2531500
  71.6447353  44.3819141  63.1782913  71.0190487  42.5625992  63.8714123
  71.9160509  42.4928188  64.4867277  69.9044037  41.8321037  64.6377468
  70.1909494  40.7983160  64.8308039  69.6871281  42.2133827  65.6355047
  68.9257765  41.7787027  64.1607380  71.2456608  41.8773842  62.5275326
  71.7057419  42.5791025  61.8318176  71.8758917  40.9952259  62.6402998
  70.2968979  41.7139864  62.0164108  71.9906759  44.5440292  66.0361910
  71.9375086  43.6866379  66.8734121  73.1031370  45.2597761  65.7740641
  73.1162596  45.9451056  65.0322723  74.3079948  45.2735567  66.5776730
  74.7761202  44.2907667  66.5220928  75.3503561  46.1746073  66.0150480
  75.6111717  45.8588457  65.0049114  74.9536562  47.1887445  65.9675646
  76.6939402  46.0376835  66.7921448  76.5745926  46.5808821  67.7295828
  76.8677282  44.9916935  67.0447493  77.9194260  46.5631342  66.0976696
  77.8810644  47.3713541  65.2215433  79.1235828  46.0535908  66.3464785
  79.8526144  46.3873863  65.7323170  79.2831230  45.5301237  67.1953726
  73.8857651  45.7089233  67.9862595  74.3945026  45.2354813  68.9743710
  73.0213499  46.6990185  68.1978703  72.7002764  47.2357655  67.4048233
  72.5529718  47.0143795  69.5057154  73.3724260  47.3319530  70.1504993
  71.5321970  48.2216835  69.4303894  71.0230637  48.2129765  68.4666443
  70.7954645  48.0704498  70.2193451  72.0247078  49.6215630  69.7220612
  73.2722855  49.7194529  70.0142956  71.2800264  50.6107092  69.6850824
  71.8598080  45.8591461  70.2017164  72.1217823  45.7006741  71.3618755
  71.0089588  45.1412916  69.4798994  70.7299280  45.3929377  68.5423851
  70.4332304  43.8948774  70.0889969  69.8729801  44.2154789  70.9673119
  69.4071150  43.1245852  69.1986609  70.0092936  42.7043962  68.3931065
  68.7630272  41.9164753  69.8787498  68.2745743  42.3036766  70.7729435
  67.9473543  41.5381289  69.2625999  69.4432402  41.0776663  70.0264454
  68.3368921  43.9458513  68.5903072  67.8779650  44.5620108  69.3635082
  68.7069607  44.5813513  67.7857637  67.5875378  43.3054924  68.1250000
  71.5928841  43.0250263  70.6431484  71.6501856  42.7117920  71.8604565
  72.4788046  42.5838900  69.7094822  72.3469782  42.8875780  68.7552834
  73.6616421  41.7706347  69.9207783  73.4205961  40.7373857  70.1705790
  74.4836617  41.6272926  68.5653639  73.8651180  41.0566759  67.8726149
  74.6389771  42.6263332  68.1580591  75.8868122  41.0286331  68.7094116
  76.0681915  39.6364379  68.9182949  75.1903296  39.0262294  68.7652969
  77.3997211  39.1580153  69.1681671  77.7063465  38.1244373  69.2321873
  78.4583855  40.0580597  69.2291117  79.4431829  39.6438622  69.3873215
  78.2970858  41.4099407  68.9994669  79.2028904  41.9916773  68.9128017
  77.0083284  41.9083452  68.7357140  76.9446135  42.9573679  68.4869432
  74.4936800  42.2636127  71.1025381  74.7059250  41.4794779  72.0333910
  75.0160408  43.4809399  71.0240793  74.6881866  44.0598202  70.2641439
  75.9533930  44.0457487  71.9376707  76.8623495  43.4442043  71.9447327
  76.3799000  45.5040693  71.4717627  75.4030943  45.9820366  71.3976002
  76.9725180  45.9195280  72.2868109  77.2655153  45.6568718  70.2001143
  76.7727089  45.1272345  69.3848085  77.3040485  46.6947889  69.8694515
  78.6224604  45.0377083  70.3781509  79.0550947  44.7169161  71.4735937
  79.2850542  44.9703264  69.3262386  75.3170729  44.0656042  73.3765125
  76.0023403  43.6983585  74.3550348  74.0714550  44.3799639  73.5218191
  73.4728336  44.4337702  72.7101183  73.3621979  44.1305733  74.7790861
  73.9809418  44.6206713  75.5307913  72.0143557  44.8758793  74.7698975
  72.0802069  45.9437943  74.9780416  71.6995764  44.8275614  73.7274599
  70.9405947  44.4261646  75.6822062  71.4427805  44.0641832  76.5793562
  70.3409529  45.3172588  75.8679008  69.8661804  43.0992365  75.1975393
  69.0770245  43.7793732  73.6995935  68.4245729  43.0584049  73.2070303
  68.3576918  44.5430040  73.9954519  69.7213078  44.0905285  72.8772926
  73.2752132  42.7143288  75.3002739  73.7075043  42.4155092  76.4316702
  72.8505421  41.7704773  74.3835211  72.5562859  42.1642876  73.5012388
  72.7230930  40.3223085  74.7031450  72.2378969  40.1203251  75.6580734
  71.8827629  39.5998335  73.6368513  72.4225473  39.7562361  72.7028942
  72.1252012  38.5644436  73.8762045  70.3589487  39.8449016  73.5801458
  70.0942659  40.8313417  73.1993818  69.9295664  39.0254927  73.0036926
  69.6997261  39.7269249  75.0156212  70.2371359  38.9676952  75.5838251
  69.8641062  40.6806946  75.5170298  68.2396746  39.4017267  74.8978043
  67.9976273  38.7970161  74.1258907  67.2876072  39.6023202  75.6661940
  67.4057770  39.9221849  76.8773413  68.3269262  39.8002052  77.2732115
  66.6375637  39.9760461  77.5308323  66.0902023  39.3439913  75.2318048
  65.9641981  39.0696096  74.2679930  65.3259373  39.3413091  75.8921051
  74.0817261  39.6687388  74.9827433  74.1294956  38.6826992  75.7639599
  75.1325464  40.1930428  74.3871641  74.8240423  40.9582758  73.8046360
  76.5633488  39.9236584  74.6104002  76.7719412  38.8577318  74.5188046
  77.3618937  40.6003237  73.4731245  76.7916393  40.4268932  72.5605297
  77.3912430  41.6781616  73.6328411  78.7072849  40.0131035  73.2900333
  78.6915159  38.7318921  72.6895046  77.7812958  38.2209730  72.4122620
  79.9805641  38.1966305  72.3168325  79.9813986  37.3177433  71.6891718
  81.1798763  38.7690568  72.6772881  82.1431637  38.3345342  72.4544096
  81.1611652  39.9230361  73.4382057  82.1155834  40.3712320  73.6718702
  79.9033308  40.5699587  73.7040186  79.9019289  41.5064526  74.2419577
  77.0501995  40.4010534  76.0047007  77.6761389  39.6034551  76.7069435
  76.5876055  41.5475941  76.4326096  76.1488438  42.2164726  75.8160162
  76.8946838  42.0033312  77.7435493  77.9595757  41.8803978  77.9410410
  76.5429688  43.5601854  77.7458668  75.4971027  43.8668585  77.7602625
  77.0325422  44.0454817  78.5902023  77.0199347  44.0135622  76.8769264
  76.2881804  41.2442589  78.9861917  76.8868256  40.9509087  80.0017357
  75.0558138  40.8018923  78.6946011  74.7144270  41.0951519  77.7904177
  74.1844845  39.8876166  79.5856571  74.3001652  40.1409435  80.6394768
  72.7149868  40.3034925  79.2337561  72.5748920  40.1146841  78.1694126
  71.9895363  39.6124268  79.6630096  72.3019743  41.8510342  79.3467093
  72.6789141  42.3748112  80.2251530  72.7475071  42.4038506  78.5196686
  70.8094883  42.0320225  79.1795349  70.4868984  41.4786530  78.2975960
  70.3737640  41.4768600  80.0102234  70.3016520  43.4337521  79.2505407
  70.6044817  43.9148951  80.1805401  70.7927465  43.9048290  78.3990622
  68.8558388  43.4592819  79.0915918  68.5931110  43.3380461  78.1239271
  68.2657576  42.7515888  79.5052099  68.4403419  44.3366241  79.3703985
  74.4217348  38.3788729  79.5168686  73.8944769  37.6117730  80.3139114
  75.3507090  37.8864503  78.6775780  75.9119701  38.4298038  78.0373764
  75.7874393  36.4985394  78.6591387  74.9492025  35.9229684  78.2664871
  76.9017792  36.3607836  77.6501274  76.5320539  36.6061997  76.6545486
  77.7466249  37.0085549  77.8840637  77.3545122  34.8851585  77.4855852
  78.1862450  34.7273326  78.1721878  76.5538120  34.1629958  77.6451397
  77.8450060  34.6106601  75.7098055  79.2685223  35.7076764  75.5344820
  80.2066708  35.2599049  75.8623123  79.4145489  35.8703923  74.4666338
  79.1576815  36.6687369  76.0366583  76.2832594  36.0807586  80.0595856
  77.1112537  36.8978000  80.5651283  75.8922482  34.9688292  80.6141186
  74.8006487  34.0556240  80.1381683  74.9949884  33.6702681  79.1372538
  73.8104773  34.5050788  80.0629616  74.5566130  33.0037045  81.2127686
  75.2387571  32.2401857  80.8388424  73.5310793  32.6521921  81.3260078
  75.2984953  33.5525131  82.4642563  75.6930447  32.7770495  83.1208229
  74.6640301  34.1382527  83.1294346  76.3453865  34.4856906  81.8847084
  76.4625502  35.3633237  82.5204277  77.8069448  33.8625407  81.8318462
  78.3480692  33.6730886  80.7001972  78.4924316  33.6477423  82.9906940
  77.9940319  33.7825274  83.8587570  79.8863173  33.1839228  82.9861832
  80.3736782  33.9525533  82.3863506  80.4239178  33.0781603  84.4521236
  80.2452278  34.0615296  84.8870468  79.8490095  32.3724365  85.0517273
  81.9229794  32.6291871  84.5491982  82.1135235  31.7757869  85.5311489
  82.7827835  33.3061719  83.9588833  80.0824165  31.8182230  82.2865868
  79.3940878  30.8447504  82.6684380  81.0221767  31.6722274  81.5167809
  62.0617676  53.5707045  55.0093174  63.1875706  52.7468634  54.4545078
  73.1792450  47.5123787  46.9485712  72.7161074  42.9090118  51.9442511
  63.0790567  51.4002275  54.2033863  75.5061483  46.5194082  51.4001989
  73.5538530  49.5540142  47.8966999  64.6509314  57.0971584  62.6724339
  75.7716513  45.8832359  52.6465893  62.0403290  50.8090448  54.4520855
  64.3250227  50.6615019  53.6894560  73.6277962  45.6023645  52.1273184
  66.7457914  61.3768959  57.4792719  65.3367329  51.2806988  52.9594040
  64.4868279  58.7490559  58.2399988  64.9104166  61.1743450  56.0017729
  66.4355755  50.5490685  52.4439096  62.7065897  60.4930544  62.1849298
  64.4979715  49.2489719  53.8177156  63.5106134  60.8784389  61.1287308
  65.6340313  48.5299587  53.3371496  63.2015944  58.6760473  61.0062075
  66.7027569  49.2645931  52.7240610  72.3458481  47.2356033  50.1093817
  67.9961681  48.6772633  52.2484207  68.3835077  47.3835802  52.7812576
  69.4448376  46.6305494  52.2405624  70.1635456  47.2253990  51.1770391
  71.3495493  46.5258551  50.6142569  73.5951805  46.6090012  49.7714233
  74.4876623  47.5934601  48.9656115  73.7667465  48.3480024  47.8639078
  72.6136065  48.0277252  45.7161713  74.2730284  46.1960936  51.0436964
  74.6693563  45.2299929  52.9699278  74.5236826  44.4162941  54.1818810
  72.6088572  44.6753168  51.7604065  71.6031790  45.1666641  50.9415913
  70.9003592  44.0081453  50.4828072  69.7417402  44.1978693  49.5645857
  71.4234591  42.7709913  50.8762980  71.0755539  41.4448023  50.2981758
  69.8513842  48.5513687  50.7285404  68.7575579  49.2156982  51.1945200
  61.5232897  58.3902645  62.8748274  66.5389395  54.9802828  62.5757885
  66.6275120  55.4120445  59.3946934  66.3927555  62.2631407  54.5410109
  66.6670036  59.8355007  54.9272490  64.5518208  60.6760788  53.7619686
  62.9420328  54.2454195  57.3998833  63.1342983  55.7362461  55.5351973
  63.4804583  55.2429819  58.2442427  63.6642981  56.7643642  56.3532925
  64.5918655  61.1827517  58.4313917  65.5627584  61.2147045  57.2604465
  64.4383383  57.5373697  58.6645651  62.7409554  54.5364666  56.0267878
  62.5174379  59.1823149  62.0658207  63.8505411  56.5028048  57.7251625
  65.6866360  55.9641886  61.7832613  65.7104540  56.1538506  60.3985834
  63.7577772  59.7943830  60.3733683  64.7155476  57.1415329  60.0398350
  64.0670443  57.6484013  61.1237049  64.7002459  59.8406410  59.2092991
  65.6431913  60.9662962  54.7893333  71.8898249  46.8368435  45.0183105
  73.6863041  48.6998463  44.7958183  71.4177561  49.0345764  45.9293509
  64.0729809  53.2051134  54.2750072  61.5637302  54.1474915  54.2203474
  61.2040043  53.0182600  55.4121017  65.2979231  52.3237944  52.6596546
  67.1043301  51.2132597  51.9044447  63.7078905  48.6654472  54.2810392
  65.7132196  47.4473333  53.3695173  67.8940058  46.9894791  53.6669636
  69.6491098  45.6640100  52.6916456  73.4648228  45.7520199  49.0992737
  74.9557066  48.3458614  49.6109629  75.3609037  47.0384264  48.6036110
  73.5564041  44.4295645  54.6975040  75.3118706  44.8382521  54.8162031
  74.7902298  43.3772469  53.9560604  69.8826790  44.8800087  48.7181330
  68.9556599  44.6485043  50.1815605  69.3169880  43.2538605  49.2039204
  70.8214855  41.5230703  49.2346954  70.1744652  41.0584497  50.7885170
  71.8059111  40.6784868  50.5827761  70.4360008  49.0816879  49.9826288
  68.5196114  50.1033878  50.6159163  61.8197536  58.2713413  63.9234543
  61.3766766  57.3841619  62.4650431  60.4939795  58.7644053  62.8280067
  66.7739391  55.3005838  63.5974693  67.5424337  54.9192953  62.1388292
  66.0625458  53.9994478  62.6883221  66.6763210  55.9513235  58.4415627
  66.2818384  54.3829250  59.2427731  67.6419401  55.3263760  59.8012018
  67.4702644  62.2288513  54.7396517  65.9897518  63.1188869  55.0950432
  66.4251566  62.5258064  53.4772396  66.2825203  58.8879442  55.3221703
  67.4948788  60.1445675  55.5759048  67.1306562  59.5832825  53.9664841
  64.1097736  61.5987110  53.3682585  63.7764931  59.9745846  54.0912437
  65.1079512  60.2768755  52.9058075  62.5985003  53.3352041  57.8824711
  63.0794144  55.9169865  54.4657516  63.5396576  54.9411249  59.2857647
  63.9525032  57.6997805  55.8828259  63.5638380  61.3979340  58.1175232
  64.7900915  61.9874382  59.1489124  65.6967211  59.6945047  59.6439028
  72.5710201  45.9992647  44.8283434  71.6723680  47.2176981  44.0136623
  70.9368420  46.5160465  45.4548502  74.2092848  49.5240641  45.2946329
  73.2648325  49.1459513  43.8875198  74.4459343  47.9760838  44.4783545
  70.7106733  49.2759037  45.1271915  71.8654966  50.0047159  46.1743212
  70.7867861  48.7626934  46.7835236  63.0081511  40.5315161  75.8851767
  59.4465685  42.5274611  72.2131443  45.4906607  41.6845131  50.9221506
  51.2122393  22.8545380  37.3131537  46.1232615  38.8668895  65.9143925
  28.6942291  70.9191370  20.7533646  68.0644131  22.1787715  63.2482767
  15.5455077  88.5936260  48.9991379  84.6407084  98.5275725  42.0880052
  84.5041327  99.1028670  41.3352701  85.3125291  98.9687518  42.6078626
  71.8068318  98.4322003  36.2821409  71.5772872  97.5862435  35.8975717
  71.0561924  98.6569623  36.8319150  14.7186466  79.9394516  22.4313184
  14.5583817  80.8025435  22.8129216  15.4443260  80.0777010  21.8226167
  83.0257373  84.7271041  32.6210901  82.6288419  84.0607361  33.1820413
  83.2885794  84.2513422  31.8331834  14.9994136  10.6676519  20.7264730
  14.5001412   9.8580587  20.6191465  15.8876039  10.4394615  20.4521104
  55.3281022   5.7210672  21.9097921  54.4910718   6.1807192  21.9756814
  55.8185960   6.2101877  21.2491819  67.2597484  63.9175180  25.9663221
  67.2938471  63.9361445  25.0099107  66.4828234  63.3961026  26.1681768
  49.9764062  14.4583691  49.3685361  50.6206800  14.8667467  48.7902852
  49.2737580  14.1762865  48.7829229  92.6111131  83.1101946  59.7735330
  93.3871322  82.8411345  60.2650949  92.8283934  83.9809875  59.4407579
  77.0259954  41.4945496  19.0990468  76.2559415  41.3039005  19.6346971
  77.7435781  41.5668667  19.7283956  78.3620744  75.9437708  51.7474099
  79.1976647  75.5460338  51.9920083  77.7021127  75.3207425  52.0515748
  82.6210503  82.1609715  14.6369478  82.8873353  82.2157244  13.7191602
  83.1841855  81.4825968  15.0096628  47.9524946  53.0210114  85.7455826
  48.8368988  53.0017900  86.1112213  48.0828905  53.1864929  84.8118591
  80.8196735  59.6631050  66.0683823  80.3156185  58.8834190  65.8354664
  80.7309055  60.2409506  65.3104639  31.8740512   0.5484474  30.2083608
  31.4840747   1.3659370  29.8987504  31.8875743  -0.0177919  29.4367238
  90.2805524  87.4578146  30.1570722  89.3576484  87.4823717  30.4098054
  90.7037787  88.0939607  30.7336446  96.2915044  95.9698180  12.7313062
  96.1554866  95.9001426  11.7863866  96.3969998  96.9079284  12.8895685
  42.0891949  89.4299320  33.6870595  42.6282498  88.6723618  33.9145204
  41.4364620  89.4778255  34.3855401  87.5075822  88.9068750  34.8437330
  87.1253733  89.0058497  35.7157155  87.4397044  89.7777037  34.4522210
  13.6567875 103.6546449  41.6491815  13.7538429 103.0183581  40.9406968
  12.8736016 104.1537122  41.4172860  79.0518765 102.0431355  31.3195535
  78.4568934 101.4249782  30.8951684  79.5123916 102.4676923  30.5957338
   7.0466515  86.4170221  11.6106054   6.1236950  86.2291960  11.7812177
   7.0355602  87.0087794  10.8583185   4.4980289   0.4377544  13.6128541
   3.7968017  -0.0508940  13.1818887   4.9177171   0.9280861  12.9059812
 100.7462606  13.6971653  25.8892556 101.2211904  13.2308233  25.2013608
 100.7732353  14.6150053  25.6189367  95.8560996  60.6063376  36.2801763
  95.4820733  59.9893270  35.6511804  95.3989224  60.4192261  37.1000596
  15.4898072   9.3026483  30.7604905  15.2205516   9.3704737  29.8444482
  15.9033395  10.1445043  30.9515497  39.6257783  60.1953495  22.5812646
  40.1698352  60.9766281  22.4821016  39.6003629  59.8085201  21.7060777
   7.5841285  27.6618851  23.5214349   8.3497525  28.1518543  23.2214662
   7.6507283  26.8172348  23.0760595  65.1021910  45.9024477  83.0937290
  64.4238329  46.2261629  82.5010395  64.6586609  45.2441025  83.6286068
  95.2906375  74.0290169  13.9445325  95.5512481  74.5097260  14.7301790
  95.3388505  73.1078891  14.2003366  49.0335035  33.5381556  78.1742954
  48.6174965  34.3329072  77.8403234  48.4193802  33.2026744  78.8273907
  99.7373967  81.5440921  44.9155637 100.0127892  81.1379103  45.7374021
 100.5550866  81.8025116  44.4903203  94.2374854  95.5931071  36.5558454
  94.5090585  95.0774268  37.3151513  94.9958615  96.1415748  36.3551542
  38.8482809  92.9692554  86.5760517  39.7414374  93.0559063  86.9092083
  38.4438229  93.8189411  86.7512035  65.7508946   9.7226179  15.3130933
  66.4432336   9.0625751  15.2778169  64.9824048   9.2470014  15.6284543
  94.6357259  23.6231888  67.2255346  95.1264987  22.8652513  67.5431939
  95.1676235  23.9698589  66.5092012 109.9817090  72.9616312  24.5167180
 110.0702576  72.2744206  25.1771184 110.6488137  72.7528075  23.8628122
  52.2757913  29.3782318  41.6728898  51.3262464  29.4391907  41.5685579
  52.6303769  29.8227299  40.9028837 109.2888121  94.4615964  16.8549463
 110.1657252  94.3114594  17.2080919 109.2453294  93.9052848  16.0772153
   1.0113856  95.9682826  20.7193872   1.6756293  95.4533271  21.1774656
   1.3838097  96.8485908  20.6684800  83.5376887  81.6825537  41.0406514
  84.0061908  80.8706931  41.2346193  83.8877921  81.9651274  40.1957818
  92.7201466  96.6240958  22.6433393  93.4660344  96.0663442  22.4224397
  92.1369557  96.5545777  21.8875047  41.1620092  67.9346609  78.1270409
  40.9276342  68.5935736  78.7805939  40.9454918  67.0991755  78.5409403
  84.9452643 100.7030896  10.3870317  85.3827529 101.4094142   9.9117013
  85.6599240 100.1647977  10.7272359  29.9620625  90.2303556  43.1851693
  30.8559700  89.9320368  43.0173227  30.0487038  90.8517388  43.9080831
 109.2658424  38.9679098  87.1084309 109.0225887  38.7036467  86.2211800
 110.2197647  38.8912296  87.1281338  16.8211175   2.9537189  38.8146325
  17.7483464   2.9231108  39.0502950  16.3677789   3.1012810  39.6446630
  65.8756065  62.9051161  87.8227711  64.9990797  62.9760456  87.4447441
  66.4672279  63.0640411  87.0872688  23.8279630  20.9781492  24.6721479
  24.6826221  20.9012068  24.2480489  23.7692262  21.8988407  24.9273130
 100.7614856  73.8860682  13.0091211 101.0392909  73.9237408  12.0938894
 101.4933114  73.4699205  13.4646245 108.4857564  93.8478116  38.7115213
 107.9234509  93.3290032  39.2867490 107.8878217  94.4560174  38.2770177
  20.4567524  85.6238345  21.0493394  20.4690644  85.4453043  20.1090165
  21.3354107  85.3905157  21.3489457  97.7645831  91.6485933  42.9941293
  98.6287980  91.8957428  42.6650640  97.1886926  91.7213444  42.2330209
  99.0753131  66.4820067  64.3906137  98.1474595  66.3215713  64.2186185
  99.3710046  67.0020119  63.6433526   6.9741059  12.9224718  60.7973691
   6.7550565  13.1350458  59.8901388   7.3909474  13.7151659  61.1351701
  31.1805535   8.3820236   7.4520799  31.4563466   8.8239134   6.6490289
  30.3132011   8.7418497   7.6376935  89.0292649 100.6230048  32.3388501
  88.7759213 100.8712558  31.4497873  89.7253136 101.2380389  32.5701066
  18.5165116 101.5404634  14.1778013  17.8301331 101.8711452  14.7572633
  19.2416378 102.1550921  14.2903253  24.2967983  79.3794779  40.5662938
  24.8969074  79.2800359  41.3053533  24.8567101  79.6468166  39.8374101
  61.8642139  28.9656186  67.9082823  61.0103035  29.3587136  67.7278805
  61.6989470  28.0227923  67.9069519   1.7669960  80.9052781  34.5322057
   1.4318463  81.6907672  34.9645444   2.5434300  81.2049464  34.0593740
  68.0548525  49.9295044  81.0025692  67.7490854  50.7497931  81.3896942
  68.7349987  50.1955557  80.3838253  13.5796596   2.5508726  12.6782628
  14.3603660   2.3350418  12.1682187  12.9801179   1.8219984  12.5184938
  66.0094213  56.5017557  89.5707703  65.9535170  55.7328844  90.1381779
  66.4788723  57.1516895  90.0936794  98.2512240  86.3723878  62.3974439
  98.3241086  87.0256022  63.0933114  97.5493817  85.7900313  62.6881620
  48.5488320   0.3000057  67.5250837  48.1383706   0.8311975  68.2074186
  48.9563943   0.9370602  66.9383165  50.2848245   7.3449266  14.7776338
  49.3287850   7.2984159  14.7699472  50.5653096   6.5953625  14.2525407
  53.9360524  33.0558002  32.3807164  54.3186475  33.8848198  32.6681062
  54.6616078  32.4324215  32.4153062  86.7237282  75.7805347  90.3378296
  87.2175980  76.5198278  89.9831867  87.3940182  75.1635504  90.6315422
  22.9070617  14.6598757  26.2321206  23.3703424  13.8705767  25.9517595
  22.0390082  14.3493688  26.4896127  45.2866651   1.3460243   1.7161104
  44.7907926   0.7294262   2.2547647  44.9065400   2.2007645   1.9189760
  76.9743733  85.8472780  10.3354856  76.3273244  85.2185635  10.0156804
  76.5832715  86.2101797  11.1302015  52.7438832   3.5215557  53.4962007
  52.8351308   2.9310787  54.2440244  52.6066590   4.3842543  53.8875505
 108.4774403 103.4603957   8.3405134 109.3389230 103.0440024   8.3142110
 107.8926520 102.8274230   7.9238530  82.0338921  94.4191340  25.8124944
  82.9114728  94.0400294  25.7638189  81.5284018  93.9378242  25.1574727
  42.2091008  20.9194219  59.5399972  42.8247977  21.4102590  58.9957258
  42.2365285  20.0291670  59.1893979  40.2211095   5.0951851  55.2490827
  39.4616796   4.6751917  55.6529447  39.9873019   5.1745308  54.3242761
 106.2361197  99.5144776  62.9001638 106.9450383 100.1565007  62.9385969
 105.7719998  99.7184733  62.0882436  69.4869901   0.3625763  36.4489576
  70.1322938   0.2564800  35.7499906  69.9928571   0.6843412  37.1951505
  37.1688987  12.1008766  30.5149194  36.7639209  12.4700582  31.2997361
  37.9531671  12.6321829  30.3775617  14.1088291  65.0662736  38.7176629
  15.0461956  64.8763970  38.6785051  13.7011143  64.3660120  38.2081243
  78.9574146  18.4937036  90.2289963  79.8566628  18.2920802  90.4876995
  78.4165001  18.0863988  90.9055614  61.8036346  99.7033051  -0.0224856
  62.6409774  99.2919950  -0.2367476  61.5078192  99.2478684   0.7657358
  38.5912796  94.6492843  48.3558198  37.6402661  94.6033076  48.4542390
  38.7324234  95.3474454  47.7163812  85.3325896  75.2540950   1.0499212
  84.4227748  75.2831129   0.7538911  85.5101495  74.3236164   1.1874505
  46.2714101   5.4377115   3.9254304  45.9824754   5.4152906   4.8377057
  46.2578775   6.3660801   3.6926576   6.4284755   6.9661034  13.0780908
   6.7406655   6.1075771  13.3639261   7.2041131   7.5260580  13.1107255
  69.3088102  85.4563808  90.2952766  68.8605309  85.3220367  91.1302757
  69.8279619  86.2496948  90.4270554 107.3621182  93.9281682  10.2817746
 106.8745045  94.5949534   9.7981855 107.5006299  94.3132142  11.1471006
  57.1488668  16.0572851  22.5836679  56.9793130  16.9259346  22.2190687
  57.1413041  16.1897648  23.5316202  74.8026113  81.4683489  22.0443174
  75.7045965  81.7716912  21.9411775  74.7115307  81.3024167  22.9826089
  37.7803422  11.0585249  45.9931299  38.3542920  11.5473354  45.4033204
  37.3349334  11.7323101  46.5068075  33.6093951   2.4635590  37.5266668
  33.5980512   2.8650844  36.6578218  34.3251039   2.9041422  37.9847928
   6.0033222  91.7054681  24.2904874   6.3199993  91.3329152  23.4676000
   6.7496964  91.6395763  24.8861524 110.0153737  98.9522580  45.6939241
 110.4773907  99.6625308  46.1392137 110.6566434  98.5988788  45.0773736
  26.8065930   0.1555384  11.9092771  27.3276807   0.7506216  12.4483320
  27.3897840  -0.0897181  11.1909696 105.9112248   5.1466835  40.9923574
 106.7400942   5.6249369  40.9704610 106.1373839   4.2921627  41.3596174
  93.7943177 102.5265769  19.6991750  93.0875783 101.8935708  19.8258897
  94.5592646 102.1152429  20.1015302  43.7345792   2.2705782  11.3983747
  42.9298974   1.7743147  11.2485715  43.4540940   3.1857431  11.4037439
  56.8291856  23.2038010  31.9986554  57.7713300  23.0833424  31.8799707
  56.6579438  22.8921307  32.8873464  38.9028407  18.0159557  44.9369260
  37.9469300  18.0580318  44.9106523  39.1900636  18.7918938  44.4556257
  97.5012212  77.5637845  26.1331006  97.0645051  78.0369381  26.8413659
  97.3073869  76.6423897  26.3054200   0.5161663  99.2221478  14.5355531
   0.9490963  98.4048060  14.2890664   0.6038567  99.2618875  15.4879018
  29.3051621 100.4671029   0.5115243  29.9349400 100.9402541   1.0553380
  28.5850235 101.0851077   0.3862115 107.6238351  78.1198338  38.0705949
 107.8249888  77.3699550  37.5107213 106.6823058  78.2539848  37.9621240
  83.5496859  80.4953221  30.7775232  83.6802249  80.9011559  29.9204942
  84.1870742  80.9268908  31.3464757  90.5081277 102.6045493  29.8599073
  90.9585814 103.2232789  29.2850229  89.5994334 102.6162557  29.5592901
 107.6325850  95.8361033  31.5662690 107.8997044  96.5662078  31.0078546
 107.7188401  96.1727027  32.4581739  64.5113660  10.4116142  20.6863900
  64.1992475  10.9350908  21.4244767  65.4207994  10.6850469  20.5664274
  70.5180673  91.9194201  20.0037786  70.1257591  92.1330074  19.1571924
  70.2431207  92.6312903  20.5815908  26.9737721  36.0923660  29.8070070
  27.4472858  35.9414089  30.6250783  26.0650874  35.8722389  30.0121137
  56.2617398  15.6248272  10.1907750  56.3419343  16.3890112   9.6199628
  56.7514230  14.9368179   9.7401258 107.8148322  69.2085532  27.8033277
 108.4179025  68.8958231  27.1289846 107.2981124  68.4379128  28.0385801
  74.6511174   6.9489801  11.0842058  73.9004518   6.4006174  11.3122960
  74.2908288   7.8334320  11.0196801   4.3281409  94.2476872  17.4950525
   4.1794773  93.3785609  17.1225663   4.2058083  94.1287259  18.4369203
 100.2280526  61.1835937   8.7344190  99.7201209  61.9830302   8.8727495
  99.6339707  60.4760400   8.9847490  15.2374550  95.7379083   2.0971414
  14.4737908  95.3331737   1.6857454  14.9295422  96.5994910   2.3783609
  80.6345658  73.4170012   9.5619603  80.1071982  72.7883224  10.0547906
  80.7901959  72.9905251   8.7192746  42.4586197  93.2166366  22.4278756
  41.9471928  92.4934224  22.0650503  41.8587967  93.6550168  23.0314180
  72.8424101 104.2406205  44.6925947  73.2085638 105.0659875  45.0102922
  73.1923060 104.1487388  43.8063833   3.4021942  44.6885395  88.4555149
   4.3538467  44.6177435  88.3808613   3.0840675  43.7964010  88.3172607
  98.8592534  98.7815885  19.4176313  98.9306359  99.0848950  20.3226968
  98.4483867  97.9197291  19.4855520  55.5496598   3.3624399  31.9068261
  55.1328279   2.8666008  32.6115438  55.8523179   2.6950872  31.2909814
  58.2036115  22.0117510   1.6336938  59.1324426  22.1055448   1.4222547
  58.1615544  22.1245897   2.5832864  62.8994657  15.4807032  36.4509221
  62.2484399  14.8032606  36.2679693  62.6983167  15.7722748  37.3401662
  13.9949127  97.1179990  70.3148290  14.3147274  96.7806891  69.4780752
  14.5366951  97.8884772  70.4853078  38.7388850  25.2038610  26.8071863
  39.5693208  25.5498398  27.1341535  38.6125613  24.3874777  27.2907087
  50.1832486  15.2786291  29.6860048  50.2274514  15.7270086  30.5305311
  51.0433484  15.4244984  29.2920705  44.2529489   3.1910837  37.0201799
  43.5221101   2.6637304  37.3426935  43.9927770   3.4448088  36.1346551
  56.0118151   4.3468657  54.7042465  55.6889582   4.0902710  53.8404417
  56.2820530   3.5245579  55.1129198  47.4795198  16.7253613  77.5232172
  47.2149372  17.5184238  77.9893541  48.3545589  16.5308785  77.8589535
  55.6987429  17.5939286  76.6413355  55.4342794  17.2104549  75.8051300
  56.6139841  17.3336637  76.7454004 109.4327836  65.3569201  13.5598012
 109.3412213  64.7282759  14.2758008 108.5634093  65.3940097  13.1609937
  49.2632532  33.8928676  74.7944784  49.8450232  34.4685507  74.2981243
  49.0588570  34.3861485  75.5889130  57.0086794  74.8697261  24.2891618
  56.1531191  74.9830727  23.8751527  57.5717597  74.5397500  23.5889551
  14.5483299  41.0060731  34.5288678  13.7307640  41.1221055  35.0129815
  14.7270581  40.0672201  34.5821687  86.1194424  88.9348797  37.6273176
  85.6837230  89.1397051  38.4546205  87.0151763  88.7088517  37.8779241
  68.5447693  27.7742100  90.1510429  68.3517170  27.9725957  89.2347431
  67.7559614  27.3378825  90.4729748   7.7044770  76.0447315   8.6644956
   7.4786564  75.4158739   7.9790899   8.6052891  75.8259038   8.9029809
  90.7879309  36.1138598  18.8652345  91.4444499  36.7490546  18.5793325
  91.2310748  35.5981497  19.5389577  78.4691052  83.7604407   1.4019796
  78.3607249  83.3627252   2.2658655  77.6200824  83.6427502   0.9758970
  64.7013760  43.3926058  80.1132011  63.8468647  43.0843019  79.8115587
  65.2405691  43.4152460  79.3226337   3.9139363  27.6943330  11.1872312
   3.7048098  26.7717532  11.3333341   3.2625481  28.1718425  11.7009469
  61.8828087  81.8570737  14.8817273  62.4523549  82.5848774  14.6324273
  61.1515384  81.9033603  14.2658349  19.7839875  85.4746548  85.7126904
  20.5606742  85.5066875  85.1541519  19.8845143  86.2193171  86.3056469
 109.7888617  75.0987486   5.4647180 109.0721564  75.7260970   5.3698846
 109.3695025  74.2420629   5.3843519  68.6479049  84.4832472  10.2593824
  68.1348567  85.0224308   9.6574708  68.2591038  84.6472172  11.1185476
  55.6249475   0.9109801  70.4376841  54.9944162   1.3654213  69.8789883
  55.0857162   0.3924521  71.0348320  24.8769523   1.2818659   4.6010038
  24.0097524   1.1641491   4.9887391  24.8112298   2.1019113   4.1116830
 101.6948800  67.7397422  57.2009107 100.9973292  67.2397582  57.6247808
 102.4457841  67.6478366  57.7873727  88.9420705  89.1210941  38.0531904
  89.2392306  88.2329301  37.8554746  88.9683108  89.5754603  37.2111150
  84.9670796  71.9840864  21.1591455  85.8094315  72.2767524  21.5070268
  85.0751834  71.0416535  21.0312101  79.8383045  28.1887007  82.3294163
  78.9544153  27.9846072  82.6348877  79.8340607  29.1371417  82.2002888
   4.6413704  86.1778335  28.0137464   4.7280165  85.3142432  27.6101037
   5.4899832  86.5962342  27.8687307  95.4600005 104.2465190   9.0238878
  95.5002360 105.1993207   8.9415475  94.7383456 104.0889911   9.6326753
  88.6943059  74.5406488  28.3896085  89.2673163  74.2234735  27.6915475
  88.3114009  75.3445748  28.0384466  95.4718118 101.3603715  14.7948762
  95.1010327 102.2136239  15.0200769  95.1144605 100.7629899  15.4518911
  79.5946074  76.5342951  63.2048845  78.8811779  76.5075731  63.8424921
  80.3551388  76.2029314  63.6823988   6.5663334  80.1891736  45.4434415
   6.4407440  80.6105522  46.2936803   7.5138088  80.2010898  45.3078481
  94.7986703  38.8056544   4.6288415  94.0022187  38.2969932   4.7810479
  95.0443272  38.6017064   3.7264654  48.8595724   9.9101084  80.2607059
  49.6467590   9.4414169  79.9834108  48.1353521   9.3742943  79.9372196
  16.5531869  69.3878523  86.6813087  16.5134187  70.2268640  86.2222767
  17.1678443  69.5368305  87.3998070 107.8004556  87.8123406  41.6466256
 107.3979764  87.9597787  40.7907697 107.0607095  87.7370194  42.2493955
  80.1853566  48.1770168  24.0596887  79.5041900  47.5176994  23.9272233
  79.8419194  48.9643947  23.6374112  77.0591764  65.6556157  23.0704137
  76.4104323  65.4166655  23.7324258  77.8404145  65.8864764  23.5730096
  71.4776087  25.2205157  70.7080030  70.6313944  24.7848225  70.8096457
  71.9374847  25.0450373  71.5289497  38.0945587  20.9806371  88.1559372
  37.5985718  20.5668259  88.8623333  38.0515170  20.3537083  87.4339008
  56.8724775  11.6988575  73.7566471  57.2211790  12.5827587  73.6410809
  56.3117409  11.5608871  72.9932547  12.9836937  63.5446135  14.0828821
  12.8529259  64.1902820  14.7773191  13.9151474  63.3289114  14.1287061
  19.6514459 103.6870178  74.7143984  19.9663587 103.1699616  73.9729738
  18.7159677 103.4902737  74.7634840  35.1362802   6.0706842   1.5916749
  35.3479529   6.4855135   0.7554075  34.1795112   6.0553539   1.6160413
  72.5281839  48.9353136  25.5227777  71.9355874  49.6337146  25.2447530
  72.9471211  48.6406133  24.7141477 106.8489652  84.9301843  11.6968461
 106.9279675  85.6564287  12.3153611 106.8542247  84.1462163  12.2460290
  70.4951906  18.7377679  77.7167702  70.0632477  17.8836668  77.7037954
  71.1065197  18.6858642  78.4514904  28.7045241  14.3623484  24.5732518
  27.8953935  14.5810020  24.1109487  28.8182784  15.0718487  25.2056333
 111.1691098  86.6166357  33.2152387 110.5385690  87.1764139  32.7621385
 110.9055905  85.7252554  32.9866906  16.0101601  79.6113876  18.8950082
  16.4919564  79.1165833  18.2322236  16.1694428  79.1369061  19.7109338
  98.7115002  66.9524813  84.0738773  98.9093781  67.1812010  84.9820423
  99.5687008  66.8439865  83.6619759  14.1722537   5.0901306  18.3066961
  15.0954200   4.9948156  18.5410234  13.7006141   4.9428404  19.1265127
  37.7521181   4.5607352  89.8076916  38.3080196   3.8129044  90.0266743
  36.8753719   4.2974812  90.0874138  13.7815281 101.4497498  10.1832887
  13.3512779 100.6037454  10.0591966  14.5200726 101.4344434   9.5745679
  29.3078037  76.8920545   7.8296396  30.0637623  77.2230796   7.3446962
  29.2345330  77.4744538   8.5857316  36.4539810  53.8722015  21.9013044
  37.3219296  53.4712342  21.8553945  36.6272827  54.8030097  22.0419904
  94.4593100  57.7511571  21.6082975  93.9797025  56.9248883  21.6673490
  94.0433411  58.3165763  22.2590658  83.1746297  38.8024048  29.8414251
  82.5657372  39.5408622  29.8542806  83.2464032  38.5672299  28.9163419
 107.4063926  62.0100258  12.5648805 106.6519790  62.1290789  13.1418630
 107.5504355  61.0638259  12.5511094  86.4681392  81.5340284  25.4825231
  87.0345979  81.1980895  26.1771509  85.7465272  81.9587401  25.9463426
   4.2639252  84.9228529  41.4058229   4.0002485  85.4348926  40.6412908
   5.1389071  85.2462081  41.6204854  30.6944419   0.3812302  19.9649259
  30.8648349  -0.3321945  20.5799314  29.9127961   0.1039446  19.4870492
  12.5347610 102.8639071  66.2995911  12.4404187 102.5924747  65.3865433
  12.4668784 103.8183530  66.2739563  99.4127326  78.4038476  34.6371194
  99.3153767  77.7452950  35.3249093 100.3416352  78.6341194  34.6557638
  57.2593641  37.1213531  74.1841555  56.6358328  36.3987803  74.2571211
  58.0467033  36.7218733  73.8143730  89.0849876   1.7831741  85.3937626
  89.5069885   1.0784385  85.8851910  88.3217049   2.0190789  85.9209919
  66.6788101  22.1230745  87.0911121  65.8955050  22.5731349  87.4075031
  66.8028879  21.3985825  87.7042580  16.2331387  69.5923189  19.1743490
  15.4458424  69.8239390  19.6670362  16.5456959  68.7871686  19.5869848
  76.5305428  72.3632351  25.5324003  76.7849355  71.5101830  25.1805230
  77.2625594  72.6187400  26.0937330  93.2232146  68.9761845  27.4385186
  94.0424399  68.4845785  27.4970456  93.2376246  69.5571081  28.1991407
  10.2908608  90.1397637   8.1079313   9.7009274  89.5781878   8.6107656
   9.9877735  90.0568179   7.2037813  28.6926743  64.6062104  14.4305345
  29.2405602  64.9786107  13.7396070  28.4187695  63.7558762  14.0868207
  17.1831318  38.5811857  33.3406755  16.3084408  38.8113729  33.0273744
  17.6953121  38.4462682  32.5433656 106.9348340  75.6208757   7.6812669
 107.2448258  75.8973435   6.8188878 107.6144271  75.9175948   8.2865259
 109.8709874  45.4929564  22.3339483 109.5183282  45.7447020  21.4804288
 110.8198743  45.4854623  22.2082731  17.9174758  11.7234314   2.9370614
  17.2363235  11.7599142   3.6085817  17.9917193  10.7937897   2.7214643
  28.7894344  20.8731532  79.3293810  29.4347954  21.3406086  79.8596859
  28.3054996  21.5640640  78.8769627  86.8755774  50.2769160  19.5945951
  87.2419648  50.2935482  18.7104532  87.2642283  49.5019815  20.0003740
   6.7927552   4.1024673  13.7463208   6.2159587   3.6387623  13.1392595
   7.0279790   3.4459436  14.4019719  27.3141099   7.9266346   7.0263025
  27.8860284   7.2321499   7.3531648  27.8073360   8.7332523   7.1757146
  85.4325728  70.1424710  30.0975057  84.8613219  70.8706192  30.3418371
  85.0068478  69.7492627  29.3356725  34.6877857  81.3267235   8.5272809
  34.4740769  80.4376630   8.8103505  35.2610298  81.2057809   7.7703210
  81.0176754  60.8937979  79.1498899  81.5114594  60.1361942  79.4636488
  81.5713406  61.6452026  79.3622065 100.2632766  74.3249945  32.6413747
  99.8515229  73.7222079  32.0222303 101.1186604  73.9353088  32.8221914
 108.2877211  94.5393685   4.6992132 107.8334336  93.7436847   4.4221898
 108.5494952  94.3634013   5.6029435  72.9325895  77.2544221  18.7850972
  73.6446194  76.8485240  18.2906362  73.1409173  78.1886724  18.7818357
  18.2512040 103.5508851  84.8820782  18.8934941 104.1130190  84.4488430
  18.7407775 102.7613208  85.1126003  76.4519791  99.4888715   8.3431550
  76.0268931  99.1520146   9.1318628  75.9794478 100.2968530   8.1428834
  71.1050968  85.8654193   5.6026765  70.3072743  86.0764817   5.1177331
  71.8167810  86.1219529   5.0162240  63.6525011  30.9712124  78.7173891
  63.5501957  30.1707745  79.2322350  64.4445181  31.3805175  79.0658283
   9.5406052  85.3038529  11.0730382   8.9734360  84.5749763  10.8214589
   8.9424702  86.0405973  11.1982652  91.9556384  55.7068164   2.9542085
  91.6347365  56.3333336   2.3055669  91.7906480  54.8496754   2.5613710
  16.1790940  76.7034010  40.9995862  15.4765698  76.5672258  40.3638479
  15.7254120  76.8839745  41.8228742  74.1302586  13.5441661  70.3677893
  73.3367014  13.2910323  69.8961687  74.8028660  13.6050761  69.6894693
  11.0631462  82.9407696  40.9152433  11.5132710  83.0043653  41.7576047
  11.4607426  83.6266426  40.3788396  81.0597992  16.0148489  81.0730076
  81.5017986  16.7929876  81.4126682  81.7097759  15.3166044  81.1518478
  18.3941456  98.7266711   6.9635602  19.2894455  98.3952264   7.0329686
  18.4973522  99.6682147   6.8254300  81.6752868  73.3655910  33.8074037
  81.2088208  73.7535767  33.0670663  81.3356309  72.4724082  33.8629934
  14.9233528  90.7852797   6.5493413  15.2890774  90.9739284   7.4135610
  15.6378456  90.9731177   5.9406968 107.2476153  76.5354232  21.3526460
 107.1485858  76.8490914  20.4537412 106.9244914  75.6347207  21.3289949
   3.1571051  87.7675442  16.8803712   3.6413428  88.0867008  16.1188718
   2.5793740  87.0895795  16.5299150  17.2287214  20.5781007  81.2751961
  17.2045934  20.5976510  80.3184986  17.8877306  19.9162483  81.4846897
  22.2791859  87.5838069  35.0820085  22.5357147  86.9277767  35.7301160
  21.5648266  87.1729092  34.5951005  10.0164887  64.1924051   9.7761842
   9.5563122  64.4954244  10.5589029  10.8562943  64.6511106   9.7994443
 107.0597367  83.7955812  33.6559602 106.2986378  83.2598165  33.8794061
 106.7026238  84.6726588  33.5165521 108.8206153  81.8496994  22.9298707
 109.7569184  82.0286373  23.0167314 108.4713368  81.9672922  23.8132783
  70.6830482  83.9453987   0.8464929  71.0554747  84.2217139   0.0091287
  69.9079304  83.4370259   0.6077787 108.0510716  97.4364213  13.7385770
 108.2228188  97.7911357  14.6108838 108.4861474  98.0458240  13.1422826
  78.3439927  62.0094398  17.0859071  79.1576819  61.5850613  16.8138048
  78.2875590  62.7925436  16.5383741  94.0147118  44.5890931  21.4672681
  94.0633063  43.6348186  21.5241071  94.8692851  44.8911826  21.7749711
  79.6934271  37.1899033  89.7602844  79.4199610  38.0360174  89.4059753
  80.1932621  37.4097085  90.5464745   2.6806685  97.4473504  35.1894018
   2.7607962  98.2644299  35.6815358   3.4843632  97.3997859  34.6716710
  42.9212471  74.7420172  20.1810666  43.7976357  75.0017623  20.4651567
  42.4723049  75.5685119  20.0033399  63.9609718  18.4339213  86.8436146
  63.4652472  17.6171660  86.7853069  64.0505552  18.5931706  87.7832127
  86.3198853  13.0995226  88.4492588  85.9466743  12.9132164  87.5877285
  86.1712742  12.2991705  88.9528275  30.6457993  80.9841231  23.3624765
  30.2121540  80.1655129  23.1215211  31.5606400  80.8529119  23.1133004
  79.3526416  48.0254550  40.4357549  79.7204308  48.0932532  41.3168737
  78.5492091  47.5178323  40.5499860  59.4151115  79.7411585  84.0562630
  59.0628624  79.0915442  84.6646595  59.9888372  80.2867794  84.5941830
 108.9849620  80.8484701  49.6396371 108.6821275  81.6013268  49.1319677
 109.7335915  80.5126647  49.1466733  89.3895678  84.0173797  56.0652753
  89.5745377  83.5167603  56.8598768  89.8258118  84.8578981  56.2047502
  19.5537841  58.1020927  87.9821014  19.7376180  57.1627188  87.9853535
  20.2148271  58.4775305  88.5637283  80.5301575  62.3741672  26.0455915
  80.0274472  62.3266313  25.2324125  80.1118951  63.0754332  26.5451070
  97.0290665  69.2455737  16.6171476  97.8454928  69.4752435  16.1733743
  97.3080640  68.7876371  17.4100419  99.4532113  72.9196171  20.2941724
  99.1916947  72.0159856  20.1172658  98.9238553  73.1788758  21.0483571
 107.2342067  73.9198760  24.5442792 108.1671290  73.7427119  24.4238397
 107.0630889  73.6916856  25.4579946  99.4259934  70.8903972  68.1733247
 100.0738721  70.2920536  68.5454389  99.0164380  70.3908173  67.4669858
  62.8693533  24.6473026  81.5897083  63.4744787  24.0252256  81.9935417
  63.2949400  25.4981947  81.6950226 104.7668557  67.4997071  23.8623067
 103.8339619  67.3614577  24.0261098 105.1873498  67.3158328  24.7023031
  30.4505440  78.2650331   5.4334375  30.1421639  77.4554137   5.0264283
  30.9663578  78.6947302   4.7511407  48.7850095  32.4455059   0.4655191
  49.4204427  32.8550899  -0.1215914  48.6838532  33.0710686   1.1829206
  77.6026678  30.9446979  80.3732300  78.1584072  30.6945682  81.1113453
  77.7385378  31.8875933  80.2798557  58.0752707  40.3440332  83.0615616
  57.9818869  40.7505226  83.9231205  57.2964954  40.6224632  82.5796795
  29.0763184  85.0126866  13.6120530  28.8761708  85.8469681  13.1876108
  29.0628334  84.3726281  12.9004499  98.1624656  25.6761126  24.6603795
  97.5696854  26.3953022  24.4421884  98.9446978  25.8425025  24.1343995
  37.4744606  30.1651907  81.1361694  37.2560000  29.3304348  80.7218170
  36.7613602  30.7517266  80.8837986  15.5514809  91.1736278   9.3309709
  14.7983452  91.1876754   9.9215719  16.1932656  91.7488078   9.7475168
  10.9708306  49.1553957   8.1753274  10.4053875  49.5473311   8.8408300
  11.8530937  49.2236308   8.5402604  92.7836702  19.6794641  11.7257520
  92.7561924  19.3702257  12.6311990  92.0274684  19.2666757  11.3086149
  55.5321455  29.7181940  71.0218525  55.0538015  29.6748042  70.1938820
  55.7539177  28.8080025  71.2183237  91.1627154  75.2877192   8.7399312
  91.5980487  75.1293949   9.5775815  90.4448895  75.8843402   8.9520665
  84.1542530  11.7402339  77.3947191  84.0225792  10.8592117  77.7449989
  85.0991917  11.8818963  77.4517345  92.9676490  70.9230176  25.2951833
  92.6328378  70.4954032  26.0833951  93.4558778  71.6788153  25.6217309
 109.2607694  53.8346767  52.5221177 109.4485097  52.9842179  52.1249982
 108.3194451  53.9549223  52.3968908  92.5867848  49.8733560  26.2818548
  93.0214886  50.5639849  25.7815572  92.8770642  50.0117847  27.1834108
  27.1516271 101.3077036  73.4194660  27.3056598 102.1837110  73.7731838
  27.9956145 100.8639026  73.5028934  11.4657451  17.2303570   0.9113427
  11.5874673  17.8271854   0.1729699  11.4169169  16.3618982   0.5118104
  22.8385445  57.5007353  23.7013360  23.5151478  57.1277694  24.2664357
  23.3037182  57.7487777  22.9023858  99.7148375  50.8266620  28.5080453
  99.9191575  49.8935328  28.4467813 100.0299029  51.0844564  29.3743631
  78.3032846  11.1488855  74.9943829  78.5401535  11.2970901  75.9098959
  77.3681593  10.9459758  75.0187540  20.9535266   2.2373808  27.0067331
  20.9155704   1.2852610  26.9158670  20.6325437   2.4064291  27.8925248
   8.8343903  72.0391540  23.4576818   8.0801865  72.4697093  23.0551549
   8.7494942  71.1202542  23.2034227  11.2828919  94.9346999  39.2356798
  11.9286534  95.6324843  39.3467065  11.7927738  94.1261987  39.2865011
  48.8535547  42.5057793  90.2037811  48.6861277  42.4355459  91.1435986
  48.0381012  42.2183895  89.7930908  37.3882481  24.5113019   0.1269361
  37.0117089  25.3550009  -0.1233176  38.0566307  24.7304253   0.7761403
 102.3662810 102.1536473  26.1583825 103.2907300 102.2848920  26.3691160
 102.3357491 101.2930945  25.7403585  34.7212597  65.3926603  65.5577489
  34.2750069  65.9926681  64.9601957  34.3103119  65.5512766  66.4075776
  51.9928075  22.5478256  28.8087102  51.9892789  22.1842611  27.9232522
  51.0801507  22.7842939  28.9741632  91.3140488  44.8553705  89.9050999
  91.9703770  44.7672558  89.2139435  91.6352272  44.2968607  90.6130123
  51.2194777  34.0272832  89.2377186  51.4857483  33.1260180  89.0559196
  50.2654648  34.0153646  89.1605949  76.5037136  56.5967072  16.3513109
  75.8247857  57.2077528  16.0651037  76.5157347  55.9185229  15.6759187
   5.9774209   7.6085413  26.2207338   5.3640176   8.1667221  26.6986486
   6.1702014   6.8919742  26.8253824  98.1851673  26.6471148  67.8023958
  98.8395023  26.8891907  67.1470499  98.2298946  27.3459172  68.4550142
  74.3902063  38.5717058  88.7195873  73.7970972  39.0779042  88.1644154
  75.1096487  38.3245635  88.1385899  25.7159854   8.6796320   9.2117521
  26.2574006   8.0473650   8.7391588  25.0762416   8.9777220   8.5651418
   2.3030754  93.7996940  59.9916478   3.1964155  93.6163262  60.2824422
   1.9395682  94.3627719  60.6750509  15.8421417 103.2489089  13.6679860
  15.4756924 102.5579766  13.1161138  15.1226612 103.8694409  13.7842580
   3.1086918  66.4328746  56.7780229   2.3221346  66.0441927  57.1607515
   3.2258507  65.9691826  55.9488698  26.6571518 102.8689174  12.4592325
  25.7155510 103.0082778  12.3582860  26.9488522 102.5706939  11.5977212
  23.5789677  88.2568077   5.7494470  24.3364331  88.8354877   5.6622144
  23.6924359  87.8409437   6.6040918  97.0836072  99.3763713   4.0154001
  96.8905978 100.3066949   4.1315099  97.7470021  99.1848353   4.6783086
  42.9008576  73.3757905   1.3719865  42.7610203  74.2481212   1.0035917
  43.6700245  73.4733299   1.9333192  80.1778698   6.5574616  90.4374123
  79.4357014   7.0138466  90.0410175  80.3350449   5.8098257  89.8607254
  35.0412513   6.0869778  12.7111169  34.1940356   6.5314091  12.7417966
  34.8395968   5.1729095  12.9112455   9.4597718  67.5347761  50.9563562
   9.9306484  68.1814376  50.4306718   9.1103073  68.0344991  51.6941758
  78.3732510  46.3788748  89.7245121  78.3890152  45.4233313  89.6704578
  77.4512434  46.5957785  89.8626328  56.1164427   6.6742164  85.6073761
  55.5165815   6.3956600  86.2993336  56.9561672   6.7920566  86.0514545
   9.9087616  70.5337671   1.4264604  10.2473160  70.5622522   2.3213407
  10.5110832  71.0832147   0.9249135  26.1116692  69.4683508   7.9417917
  26.9019696  69.7676913   8.3912774  25.4068562  69.6165160   8.5722848
  14.5049759 100.8181218  12.7588579  14.1922470 101.2970904  11.9913884
  14.3352791  99.8988465  12.5530168  29.1048619  79.0437845  21.9285890
  29.4604489  78.2411794  21.5469953  28.2036396  79.0823893  21.6083928
   1.2993284 102.7234296  23.8232728   1.2323376 103.2742480  23.0433103
   0.6676670 103.0989341  24.4366571  38.1789113  33.5677421   3.2629987
  37.8497411  34.4633568   3.3388349  38.5457946  33.5213650   2.3801156
  30.9373523  12.7065981  14.9677392  29.9893571  12.7607143  15.0885984
  31.2203504  12.0369470  15.5904027   0.7692667  65.7007555  58.5523626
   0.8721777  65.6015114  59.4988176   0.2873131  66.5212325  58.4485647
  60.9984971  48.4455955   3.8179799  61.1695577  47.9203689   4.5997163
  61.5805436  49.2005527   3.9045736  91.1411858  47.4114752  86.2078285
  91.6388226  47.4704361  87.0233822  90.6892109  48.2526541  86.1416912
  10.5992218  59.7639666  23.7753030  11.5262505  59.8520587  23.9968892
  10.1363941  60.0744794  24.5535013 103.6902766  84.9182323  23.2324811
 104.2640691  85.1518420  22.5028154 103.6467175  85.7114963  23.7663957
  26.6133400  99.6130923  24.0604993  26.6853710  99.4327764  24.9977990
  25.8046719  99.1757945  23.7939283  44.9918939   4.0823877  54.1945382
  45.8434201   4.4818581  54.3721505  44.3635942   4.7945154  54.3143388
  23.4933759   0.7640350  20.8270284  23.8494874   0.2482355  21.5504667
  22.5771428   0.4933346  20.7681390 109.7032790  95.1267652  21.5193101
 109.0696339  95.6364850  21.0144254 110.5550484  95.3927688  21.1729547
   9.6559998  73.4210972  35.8681604   8.9626881  74.0787653  35.9232065
   9.5561692  73.0402974  34.9956533  25.8799454  88.9903597  32.4996206
  26.4638039  89.2198924  33.2225725  26.0716339  89.6385626  31.8218919
 104.7290611  50.2552795  69.4498968 105.3616810  49.6249056  69.7943687
 105.1736355  50.6572914  68.7035894  93.9616490   7.4115837  27.9745218
  94.0403558   7.2301567  28.9110776  94.3101026   6.6283214  27.5487157
   9.8869988  71.9414548  51.6156122   9.5388790  71.0566250  51.7257043
   9.2696854  72.3696259  51.0224553   1.1145254  91.2378220  38.9932462
   0.8398100  92.1522764  39.0606138   1.1632057  90.9349398  39.8999521
  41.4540955  87.4175910   9.6106454  41.9575783  88.1766561   9.3164369
  41.2829014  87.5880960  10.5368444  87.6978164  91.8025521  15.7277891
  87.3404746  90.9208731  15.8335229  86.9970517  92.3823694  16.0260793
   3.1731459  77.9302339  20.8728525   2.2880026  77.5809268  20.7692167
   3.5713240  77.8342465  20.0077077  22.5322052  81.9214157  26.8931314
  22.4944111  82.0583347  25.9465238  23.2252499  82.5097541  27.1927568
  12.4230477  69.0240089  76.0087606  12.5749489  68.9866117  76.9530889
  11.6283509  69.5491985  75.9146329 110.2232699  63.6309949  46.5523263
 111.1296515  63.7295512  46.8438550 109.7052913  64.0670578  47.2289201
  94.7828293  48.0433512  77.3092651  95.1528740  48.9155865  77.1732187
  95.3376579  47.6502037  77.9829359  37.6446366  53.3233118  85.7178307
  38.1305408  53.9027071  86.3047028  37.3805523  53.8862371  84.9900818
 108.4459686  28.6381960  77.9673195 108.2113743  27.8130937  78.3920622
 109.0944767  29.0320659  78.5508728   6.6702267  70.8432130   5.3368303
   5.9282585  71.2806026   4.9192258   6.2780949  70.3244916   6.0392400
 107.1114878  60.1757393  17.0309469 107.9889636  60.4682974  16.7846223
 106.6091637  60.2134041  16.2170144 106.7515569  82.4446300  39.1065522
 106.7439513  83.1548122  39.7482797 107.5525670  81.9569949  39.2984506
  11.5560623  89.2549733  12.7671262  12.3319527  89.7326592  13.0604669
  11.5483090  88.4601335  13.3004113  27.1296688  92.5076655  36.0511800
  27.0876595  93.4492377  36.2182447  26.3577267  92.3247746  35.5155584
  91.7620139  96.5676526  72.4590703  91.4124446  95.6886415  72.6052686
  92.6773982  96.4244441  72.2186681  13.5973068 104.8117951   1.7871686
  14.0995880 104.1660813   1.2901803  12.7277371 104.4217662   1.8763944
  29.6077248  97.3868255  11.7652150  30.3587910  97.2492484  11.1879655
  28.9119335  96.8507031  11.3848420   7.2946163 104.3566684   9.6836206
   7.3571392 103.7448195   8.9501592   7.1955487 105.2150134   9.2717191
  18.0677220 105.0911740  24.0806695  18.4944721 104.2708711  24.3280908
  17.6640030 104.9049405  23.2329866  12.3832127 103.6007432  17.6849290
  12.3410889 103.1153039  18.5088273  13.1817433 103.2853965  17.2616884
 108.6624675  66.1985461  58.4859582 108.8617663  65.7690493  59.3178579
 107.7723603  66.5328816  58.5962316 111.0033326  80.5903391  31.4448568
 110.6938271  79.6984009  31.2871190 110.2044492  81.1145286  31.5017721
  35.4385945  61.2489144  10.7924863  35.8851811  61.4449857  11.6161081
  34.5071884  61.3093028  11.0047838  89.1901450  69.1757277  56.1793252
  90.0524430  69.5732144  56.0581514  89.3665366  68.2374970  56.2489053
  25.8242127  92.4849729   3.6953279  26.4614578  91.7748789   3.7722513
  25.9202954  92.7965669   2.7953740  68.3338833  57.1741295  78.6701441
  68.6549425  57.1597481  79.5717812  68.6151123  58.0232191  78.3292770
  95.2309327  86.5328602  40.6741830  95.6215482  87.3745541  40.4392358
  95.7611279  86.2188891  41.4066716  11.2892529  88.5706810  42.3011419
  10.7507511  88.0837516  41.6773244  10.6949517  89.2224792  42.6729032
  16.7695237  12.7196110  10.4599305  17.5313188  12.4135673   9.9677583
  17.1393920  13.2229269  11.1852571  34.6570584  97.6822309  39.0780851
  34.6736809  97.9236106  40.0042077  35.1675316  96.8738250  39.0320703
  32.3938037   1.0578096   9.7856351  33.2839109   0.7057798   9.7810003
  32.2309590   1.3092792   8.8765260   3.3277790  69.7869921  87.8193760
   3.1935588  70.7224274  87.9716206   3.5684673  69.4368410  88.6771011
  40.5108353  61.7689679  11.2505742  41.2378117  61.9985215  11.8294069
  40.6691166  62.2763489  10.4544946  90.2643304  75.4187802  35.2046224
  89.9648433  74.7840361  34.5537492  91.0173182  75.8447341  34.7949907
  98.1262879  82.1270231  10.6429788  98.8692527  81.7728356  11.1316320
  98.2577853  83.0749754  10.6609746  87.7274232  59.3775765   7.1354696
  86.8511252  59.1383854   7.4373361  88.1803040  58.5411761   7.0279332
  96.4849186  81.6135025  86.1708546  96.2847042  82.5491333  86.1436081
  96.4729595  81.3392067  85.2538776  21.3866039  92.6733855  18.6928197
  20.9273335  92.5755481  17.8587171  20.6889817  92.7836684  19.3388768
   0.0598379  94.3951205  53.6031362  -0.0552992  95.0641231  54.2779847
   0.3075739  93.6071471  54.0868303  28.7274452  53.5282498   6.6355535
  28.0030056  52.9208374   6.7854616  28.8275715  53.9915118   7.4671766
  95.4027562  75.1808862  25.3316423  94.4699769  74.9660567  25.3302118
  95.5433802  75.6430010  24.5052644  15.3602978  94.2555551  20.9754010
  16.2744900  94.4936542  20.8211919  15.3101441  93.3301524  20.7359239
  27.1506120  22.5663269  11.9958135  27.2021056  22.5257051  11.0408613
  27.8350211  21.9693458  12.2981855  30.2775952  91.5843944  45.5050870
  30.8556744  92.2399549  45.8953401  29.4867035  91.6115169  46.0435888
  48.8436031  37.7822709  73.0258274  48.9098597  37.8231668  73.9798546
  47.9098272  37.8911090  72.8457022  10.3818318  76.9797710  62.5190183
  10.4199597  77.2044472  63.4486886  10.9588143  77.6151422  62.0951959
  44.8593331  14.0167272  90.9854719  45.5575181  13.7560690  90.3847715
  44.1902257  13.3399284  90.8831044  16.6480347 101.8133763  25.9928914
  17.4960037 101.4167909  25.7931539  16.5110298 101.6303758  26.9223996
   7.4001118 102.0032767  26.9111177   6.7858311 102.7129821  27.0987531
   7.6428791 101.6627244  27.7721139 104.6456675 100.6963710  36.8304559
 104.4499116 100.4373149  35.9300157 105.1903586 101.4784554  36.7416498
  22.3900410  83.3355502  35.2162095  22.4067780  83.9697937  35.9329339
  22.9436489  82.6161937  35.5199834   6.6590210  88.8924483  10.2829858
   6.2733837  89.2925505  11.0623571   6.0836121  89.1604523   9.5665284
  46.7257119  11.9224823  21.8176862  47.2828389  11.7720831  21.0539934
  45.8544541  12.0757568  21.4521142  79.4999743  37.3064685  84.0600204
  79.7957563  37.1278572  83.1673622  79.6286631  38.2484627  84.1710091
  16.4548589   8.2285822   3.3011266  15.9700204   8.6025513   4.0368673
  17.2972728   8.6829079   3.3137246  13.5384365  90.4631642  16.1560556
  13.6339661  90.2916388  15.2192041  13.9353653  91.3248185  16.2834760
  19.6114537  86.0090355  25.1681253  19.5255657  85.3609137  24.4689866
  19.5964237  85.4943375  25.9750291  25.0904990  30.5170048  50.9034463
  24.6701957  29.6621311  50.9971448  25.9905578  30.3747833  51.1965295
 106.1150985  86.5318541  31.6243669 105.4061274  85.8973459  31.7291948
 106.3559632  86.4713172  30.6999513 109.2355256  81.3300280  39.7110387
 109.5217280  82.1723274  39.3576928 109.7471099  80.6812552  39.2277070
  71.3984776  44.0970516  85.8378315  71.8806887  44.5634747  86.5205860
  71.0141039  44.7896099  85.3003883  13.4307762  92.3903564  11.0021612
  13.4831234  93.3168677  11.2368223  12.5423332  92.2787861  10.6638547
  16.2151142 101.8383483   8.8398286  16.8116471 101.5674094   8.1419965
  16.7885967 102.1791009   9.5262929  71.8846874  60.8048961  10.2472135
  72.7784066  60.9858982  10.5383130  71.8739633  61.0702155   9.3275853
  69.4260980  37.7944076  14.3136045  69.7220899  37.0711983  13.7607976
  70.2314092  38.1651390  14.6745130  42.2195626  27.0321596  21.4176866
  41.8592073  26.9620312  20.5336877  43.0682946  27.4580562  21.2972661
  90.4644160  78.9793829  32.9075548  91.3967042  79.0341667  32.6976510
  90.0425105  78.7759212  32.0727941  97.6710892  40.1711082  88.6764717
  98.5274506  39.8339868  88.9395905  97.7789307  41.1222076  88.6727810
  41.4508868  37.8210915   3.4655401  41.1768247  37.2990406   2.7114984
  40.6370784  38.0166328   3.9299890  15.1081368 104.4774703  31.1868593
  14.4110867 105.1204852  31.3168355  14.6816536 103.7502412  30.7335588
  62.5544310  52.1724415  90.9814167  62.4215412  52.0786858  90.0381374
  61.8486977  51.6592646  91.3748932   5.0910565  95.4634742  58.6663457
   4.4964405  94.8312644  58.2626363   5.3352734  96.0523490  57.9523393
  67.8018074  63.5785679  18.3091279  67.1387486  64.2467467  18.1355687
  67.9782538  63.1882040  17.4531385   8.5337158  59.9912153   4.4420167
   8.8999840  59.7787664   5.3004762   8.5670944  59.1668455   3.9567014
  86.8622308  79.1815785   7.7383062  85.9365563  79.1165284   7.9730913
  86.8749766  79.7528128   6.9703504  79.1566754   5.3372467  60.9239694
  78.8215257   4.9169863  61.7159768  78.6485578   4.9473608  60.2126046
  39.5435382  17.8468264  41.9590494  38.9852096  17.2354019  41.4787694
  40.2111531  17.2935951  42.3645803  97.2985744  33.9032078  87.6973629
  97.0143509  33.0076361  87.5146008  96.8938732  34.4285059  87.0070648
   1.8945738  79.6953348  29.9771806   1.1696526  80.0202755  30.5111524
   2.6053091  80.3168992  30.1344796 104.4880633 102.2209863  33.0750104
 104.4714408 102.6152877  33.9470693 105.3888659 102.3417596  32.7746793
  50.3526354  36.4733076  87.5326252  50.8427572  35.8245134  88.0376816
  49.4748402  36.1003280  87.4514008  40.9298612   6.6167438   4.0403100
  40.3416825   6.4611757   4.7792836  40.3710080   6.5333212   3.2676908
  97.5014019  62.5634193  78.0492687  96.9552708  62.5197792  78.8341713
  97.1472549  63.3004951  77.5517464  99.1362481  66.0490469  39.7571012
  98.2033830  65.9008197  39.9120923  99.2036919  66.1826829  38.8116762
  39.5960761   3.8514030   9.1813489  40.0438071   4.6560657   8.9200422
  39.6197415   3.8640392  10.1381704   2.1175715  91.3018588   4.4852182
   2.2379585  90.4447869   4.0763494   2.9922148  91.5489415   4.7855207
 108.0665684  55.9434748  88.3845711 107.3871613  55.4471016  88.8409042
 108.3615494  56.5905905  89.0252399   7.5900456  87.5754217  22.8408166
   8.2024380  87.0253519  23.3293172   7.9080101  87.5448803  21.9384881
  38.9332057   6.2235678   6.0077688  38.8773013   7.1693695   6.1440202
  38.0381681   5.9096897   6.1367151 105.8278084  42.9020309  84.4614315
 104.9404907  43.0812263  84.7725391 106.1151600  42.1490335  84.9778175
  60.9044027  47.1088743  75.4068184  61.0327387  46.2589169  74.9857140
  61.1477900  46.9624805  76.3209057   4.8280569  77.9549650  45.7509157
   5.5589100  78.4492306  45.3797075   4.9634978  78.0016283  46.6973325
  68.9470816  39.5557976  84.0649700  69.6097374  39.9912405  83.5287666
  68.3331156  40.2518511  84.2990303 105.8928351  77.0453958  23.9327833
 106.2941031  76.6825584  23.1431218 105.5345206  77.8880362  23.6538431
  87.0646954  87.4102306  89.1651821  87.7113533  86.7217064  89.0102577
  87.5839043  88.2078552  89.2673302  65.2320100  12.7716053  -0.1966170
  64.9464418  13.3680189   0.4954645  66.0692979  12.4273336   0.1142904
 107.5454335  81.3289384  20.6446668 107.7952151  81.4701942  21.5578481
 106.6296010  81.6039256  20.6015798 103.1373029  79.3726806   6.3315221
 103.5432629  79.2083410   5.4803869 103.7831359  79.8940901   6.8082448
  71.2787008  73.0428600  84.8999786  70.5882406  73.5991096  85.2606487
  70.8725595  72.6155329  84.1458797  31.1949493   9.3254650  10.4493829
  32.0306254   9.6904409  10.7403585  31.0051347   9.7843349   9.6310636
  88.1464963  54.8476479   2.4295636  88.6173396  54.8297539   3.2627603
  87.8065495  53.9586967   2.3274251   8.8750263 103.5827760   4.7720739
   8.6454865 104.2339543   5.4350301   8.3740708 102.8047685   5.0169965
  13.3299633  67.3901597  49.6396180  13.8200852  67.1829382  50.4352781
  13.3407398  66.5779058  49.1333028  26.5787459   4.4927490  19.1263315
  26.0539056   5.1976049  18.7469217  27.3609735   4.4537342  18.5760328
  17.3595902  84.0972523  16.3163682  18.2633969  84.3938378  16.4231416
  17.3415276  83.6913041  15.4496976 102.7167516  93.2924584  17.7251264
 102.9176717  93.9861278  18.3533689 103.3367734  92.5936202  17.9335138
  38.6974426  78.2567910  37.2553273  39.4257160  78.7300233  36.8529531
  37.9497524  78.8478855  37.1670076  47.3784634  83.1005339  53.7105581
  46.5652844  82.6269964  53.5352536  47.9238220  82.9326729  52.9420301
   4.4385573  84.9219779  16.5477964   4.0508553  84.9269871  15.6726381
   4.8347183  85.7885412  16.6392156  60.3257657   0.2574766  12.3241922
  60.8485318   1.0590446  12.3032590  60.6164552  -0.2381193  11.5586110
  14.9275304  49.1233528  46.2150117  15.8142186  49.1802490  45.8589670
  14.7671081  48.1844128  46.3093587   6.6857525 101.1947183  12.7205011
   6.5567681 100.6154565  11.9694730   7.5578972 100.9731559  13.0468675
   5.4462715 100.8900098  41.8453904   5.8822151 100.5269317  41.0744401
   5.9590145 101.6674451  42.0665666 104.5347934 100.9783725  47.0364209
 104.7805695 100.3046350  46.4024659 105.3673606 101.3580779  47.3172971
 110.8359990  15.6459463   9.8207876 110.8283338  16.1340130  10.6441709
 110.1432190  14.9933374   9.9227353  92.9807334  83.3449058  28.5052606
  93.1273465  82.4118093  28.6604043  93.4970574  83.5417799  27.7236768
   9.9707218 100.2303437  23.9499589   9.5357033 100.7311896  23.2599279
  10.1208111  99.3683080  23.5618898  98.2610040  89.9305014  56.0995313
  97.4525218  89.7626904  56.5837117  98.7637572  89.1204385  56.1847612
  23.9888664  74.1482238  52.6348230  23.8415142  74.5674709  53.4826204
  23.1297966  74.1531066  52.2126790  97.8386550  69.8079697  23.1683561
  98.7473206  69.9692229  23.4224435  97.3508839  69.8379377  23.9914056
   5.4901501  63.1424216  10.6309434   5.1769778  62.5206021  11.2878248
   6.3059803  62.7595095  10.3084108  36.5663525  61.1006943  13.8239309
  35.6427666  61.3520704  13.8185712  36.6150662  60.3810541  14.4531938
  64.3692113   9.8238600  35.0305482  64.1528321   8.9982880  34.5971414
  64.9299336  10.2829063  34.4051572  54.6134854   2.1844614  34.3725416
  54.6111013   2.0356405  35.3181001  53.6990644   2.3672092  34.1565343
  32.1393729   7.1337736  13.8979932  31.5156461   6.4082134  13.9256498
  32.3803807   7.2774542  14.8131391  89.7028069  93.8682965  14.7365400
  89.9871878  94.5256165  15.3715917  89.2473750  93.2097701  15.2610895
  17.6491352  68.8089947  30.3101560  18.2485481  68.1346218  29.9905320
  18.0184551  69.0786699  31.1510583  49.7193056  17.8545551   3.0228465
  50.3133112  17.2481493   2.5805133  49.5188194  17.4283807   3.8561671
  15.9008313   6.4956892  20.6738015  16.0751535   5.7583225  20.0888749
  15.2215482   7.0006311  20.2267667  10.9352394  50.1095811  30.1785871
  10.7733628  50.9960706  29.8558446  11.3296505  49.6525476  29.4357606
  27.6887799  10.1362980  27.3140355  26.9669152   9.9584091  27.9169389
  28.4777547   9.9572170  27.8255864  73.3726978  49.2996693  76.9186068
  73.7603807  49.2872000  76.0435200  72.7958059  50.0634813  76.9141340
  30.0188156  80.3542952  31.3318940  29.6795841  79.6761207  31.9160482
  30.5132862  80.9393791  31.9058439  53.9077091  28.0402565  85.2147293
  53.3099127  28.7839389  85.1385212  54.3233013  27.9779077  84.3547153
  12.8583523  84.0907411  25.5112859  12.8430554  84.7304038  24.7993680
  12.0128247  84.1972212  25.9471532  87.4751091   5.4962724  87.5742531
  87.7753735   4.8761469  86.9097805  86.5897083   5.7330662  87.2981834
  94.8243623  75.0184492  33.5039254  95.0504260  74.1762284  33.8986322
  95.6346230  75.5265502  33.5431978 104.0103583  98.3000401   1.4898320
 104.3314366  97.5302629   1.9594976 104.7804551  98.6419753   1.0356733
  18.3314129  91.2152008  49.1793653  18.1976410  90.4934196  48.5650560
  17.8485199  90.9547595  49.9637243  18.2829095  19.6689308  18.4090158
  17.3439742  19.5909250  18.2400438  18.6747695  19.7702158  17.5415918
 101.7692380  99.4858293   9.4112035 101.5458493  98.8674811   8.7155267
 102.4975114  99.9945334   9.0547487   1.9143435  71.9927458  29.2217847
   1.6791626  72.9193548  29.1736432   2.7468964  71.9811682  29.6939679
  22.0122524  82.8276423  42.5743600  21.4591976  82.1305779  42.2215673
  21.3942429  83.4809593  42.9021856  49.4766141  22.7514542  21.6802999
  49.4860841  23.7086046  21.6820451  50.3375436  22.5040281  21.3429185
  90.9606838  11.3958287  88.0921841  91.7536259  11.5485013  87.5782204
  90.2460861  11.4809024  87.4610424 107.5384812  58.1544945  58.0492612
 108.3771138  58.6158613  58.0574151 107.7685933  57.2367395  58.1941911
  42.1942993  84.6492366  36.7027208  42.5615021  85.5136518  36.8876001
  42.7593609  84.2903046  36.0185453  16.1378571  78.6374549  53.4872457
  15.5032536  79.1195492  54.0174314  16.1053082  79.0619019  52.6299115
  67.6519728  34.3789148  82.4023628  67.4424839  35.1911426  82.8634834
  66.8243170  33.8988638  82.3747349  43.6297036  11.1558760   6.7359372
  43.7946225  10.6482304   7.5305005  44.4756318  11.1824453   6.2887975
 107.4405961  76.7479304  47.1755906 108.0668216  76.0242228  47.1934530
 107.5724225  77.1993641  48.0093023   3.3962055  66.7408482   3.3263513
   3.6859032  67.3702637   3.9867612   4.0774866  66.0684923   3.3211442
  64.3555975  18.9352608  53.6402225  64.8468494  19.3158126  52.9121542
  63.8028574  18.2680225  53.2333994   2.9835793  82.8950623  22.2348710
   2.4150273  82.8250650  21.4680024   3.6916586  82.2736148  22.0655748
  99.2663865 103.1373004  23.8225290 100.1991229 102.9821424  23.6736795
  99.1735654 104.0893868  23.7886449  93.9072995  62.3469702  45.7994291
  94.0377669  61.4420960  45.5158540  93.5826497  62.7977983  45.0199434
  35.3020664  95.7555989  24.7047254  35.9627815  95.6641940  25.3912660
  34.6053597  96.2718896  25.1100274  15.3425118 104.4524554  49.8307535
  14.9685379 104.5918206  50.7007905  16.2825009 104.5886878  49.9494668
  48.1607910  74.6757726  14.4223710  47.6588246  74.7516231  13.6108800
  48.6978527  73.8930158  14.2995092  49.4915677   9.1075933  12.6003095
  49.3089582   8.3617390  13.1717893  49.2259503   9.8718679  13.1117364
  78.6479902  88.9788628  77.8208542  78.9778948  88.1282425  77.5313044
  78.1552267  89.3124866  77.0711088  84.8939133  19.1357613  85.1309872
  84.2918015  19.5542598  85.7462502  84.3243313  18.7203443  84.4835091
  20.9770728   4.5769346  16.2930795  21.8086196   4.9530876  16.5816613
  20.8435584   3.8224543  16.8668100   8.0736920  80.9698156  31.4471456
   8.6555668  81.2730102  32.1440812   8.5024449  81.2497667  30.6384202
  93.2469845  53.9009809  74.0389538  93.4556770  53.0283451  74.3724108
  92.3335838  53.8385153  73.7596226 103.4876399  97.1653823  32.0580980
 102.9702191  97.5458602  32.7678415 103.5606103  97.8676681  31.4118024
  60.4897976  65.0132275  87.6397705  60.2287245  65.3192568  88.5083389
  60.8651304  64.1463089  87.7940845   0.9571120  82.0499329  37.6401159
   0.6564661  81.1775617  37.8946897   0.8901545  82.5695781  38.4411832
  99.1499138  52.2504187  81.0706520  99.4946957  51.4351559  80.7063580
  98.1991482  52.1537304  81.0165215  40.1083709   7.3448408  19.1700288
  40.5587054   6.5234077  18.9733621  39.3045808   7.0766819  19.6152707
  48.8187696  11.4253605  14.1028425  49.3041898  11.7844332  14.8455926
  48.9797975  12.0436085  13.3900567  60.6505963  68.0104438   4.8239251
  60.2273270  67.7701501   3.9997121  60.9372708  67.1772102   5.1977845
   7.9935924  70.8217573  59.9725437   8.8537303  71.2129068  59.8196077
   7.6703636  71.2552404  60.7623816  67.4554348  41.7035437  85.1392937
  66.9929504  42.2352123  84.4914722  66.7598581  41.2978458  85.6568050
  84.3260766   0.2404678  25.6023427  84.2821790   0.3672731  24.6546003
  83.4731294   0.5335749  25.9229680  13.8014313  95.3761415  18.9127179
  14.2663094  95.0154714  19.6677324  14.4931980  95.6007794  18.2904455
 109.5910506  89.0076283  21.8381711 110.2217250  89.0462855  21.1191484
 108.9203744  89.6489004  21.6032239  78.4080792   1.0755670  14.8594209
  78.8858319   0.4603613  15.4157564  77.5231362   1.0906256  15.2239343
  93.6208248  30.4848719  75.6070757  93.1438923  29.7724128  76.0327053
  93.5036755  31.2340593  76.1912203   5.2894064  84.8743681   1.2547609
   4.4188830  85.2557019   1.1407110   5.4434344  84.3833903   0.4476377
  51.3278104  25.6824720  28.9252206  50.7566358  24.9997652  28.5732194
  50.7616712  26.4499987  29.0065595  58.9196873  58.0414200  84.7632217
  58.6862469  58.5268831  83.9719772  59.5313597  58.6152267  85.2245617
   9.8793503  97.8328828  18.1241819   8.9520451  97.7973584  18.3588334
   9.9568745  98.6103562  17.5712320  56.0227681   9.8619497  24.6591493
  56.2341214   9.0500534  24.1983053  55.4735948  10.3497398  24.0453931
  90.7997417  39.3374252  78.1721973  91.0461903  38.9403462  77.3368406
  90.4061127  38.6214423  78.6708498  49.2689897  26.6793192  38.2695981
  48.7912370  26.5635622  39.0909311  50.1066114  27.0614183  38.5315439
  79.7641851  38.5623348  20.1988241  79.8517419  37.7053440  20.6161138
  79.7091008  39.1794956  20.9284231  19.6502873  58.6498217  25.2112409
  20.0348183  58.3533249  26.0361406  18.7994286  58.2130031  25.1729413
 104.2835140  36.6404605  90.0089931 105.2056313  36.6517162  90.2654934
 104.0991592  35.7207417  89.8182964  23.7381932  97.2269181   5.3508779
  24.3538758  96.4952926   5.3074666  22.8855797  96.8145493   5.4895517
  87.9990101  54.6330309  81.3170147  88.6295223  54.9542284  80.6724072
  88.4870625  53.9877272  81.8284988  63.1777669  28.4989632  16.1713525
  63.1440068  27.9570854  15.3830262  63.1618024  29.3984974  15.8445474
  95.4472733  71.3054609  84.3893051  96.0867596  71.0747433  85.0631428
  95.6234646  70.6954670  83.6730003  12.3292252 101.1896781   5.7239171
  13.0264279 101.3119010   5.0795575  12.5482079 101.7958383   6.4316293
  75.0279284  45.6096935  80.7112026  74.7545338  46.5096617  80.8888054
  74.3085146  45.2369881  80.2015400  64.4654417  63.5528231  84.6613121
  65.4035473  63.4677649  84.4911480  64.2554903  64.4501638  84.4025993
  80.3701592   8.2420576   4.7868844  80.6292153   9.1422499   4.5899888
  81.0680009   7.9100883   5.3517171 109.7827825  28.7468708  49.0835973
 108.8396940  28.7072075  49.2424794 109.9741850  27.9560841  48.5793611
  87.4515343  23.6009789  84.4623280  88.1915379  23.0359721  84.2400837
  86.8301010  23.4748769  83.7452888  23.4395305  22.3805499  87.1179676
  23.1381980  22.9629803  87.8152561  23.6454955  22.9659605  86.3891983
  65.0778867  11.9447554   7.3561784  64.6079064  11.5498484   6.6217443
  65.8116342  12.4065674   6.9504949  26.5909573  73.9561204  11.0373422
  26.6174980  73.0275396  10.8065435  26.6170212  73.9659552  11.9941350
  87.4067879  49.8430300  68.2632637  87.8176022  49.0430498  67.9354000
  87.4772072  49.7755146  69.2154789  28.4847733  91.4291314  16.4225408
  28.0381104  92.2291426  16.6994878  28.0258461  90.7268003  16.8833371
  87.9640866   6.8432701  45.5935308  88.5084344   7.2650087  44.9286577
  87.4691869   7.5611151  45.9885045  99.5224953  56.8181133  68.5937691
  99.6101952  56.8580437  67.6414299  99.2467308  55.9188747  68.7714052
 100.3224373  71.6400290  86.3637543 100.3029728  72.4813461  86.8198681
 100.2017117  70.9896517  87.0556068 110.5662155  42.5550556  27.5443053
 110.3162956  42.6738834  26.6279817 109.7919750  42.1711683  27.9558921
  21.0675617  78.2018022  48.3957406  21.8177506  77.6517252  48.6212560
  21.4554402  79.0131263  48.0678102  13.3938018  27.7700591  57.9177570
  12.6043788  27.3081589  57.6354742  13.3208934  28.6361217  57.5166988
  99.4208241  15.8537638  89.3226051  99.1313553  16.4322400  88.6170483
 100.0287819  15.2467883  88.9004612  28.3574864  54.2436137  49.9739286
  28.2115551  54.1807615  50.9178468  29.1193672  53.6873010  49.8117849
  95.5755520  36.0104537  74.1941690  95.7041073  36.0376263  75.1423073
  96.3247395  35.5138493  73.8650227  20.4647824  97.8166369  22.2646161
  19.7633072  97.1696452  22.3392793  21.2500855  97.3531369  22.5556203
  64.3367292  16.0702074  40.2065488  64.9998284  16.0142649  39.5185014
  63.5511209  16.3819778  39.7572824  48.8259412   4.0800083   3.0385515
  47.9437638   4.1672504   3.3996507  48.9773465   4.9034489   2.5745984
  96.0411167  47.5880909  90.3567219  96.8605900  47.9915857  90.0705814
  95.6809902  48.2039022  90.9949398  86.7883397  56.1527431   9.0366288
  86.3440229  55.3113354   9.1408273  86.2198545  56.6528881   8.4510442
  37.4498750  16.6056812  15.7517644  37.4537421  15.9296501  15.0741216
  38.1032802  16.3121164  16.3866731  14.0074440  81.0084466  19.7507211
  14.3291374  81.3807158  20.5717870  14.7215172  80.4488615  19.4454404
  88.2106786  93.2236461  34.4719716  88.0113749  93.7730912  35.2300092
  87.3768477  92.8087453  34.2510339   6.4760586  70.7926706  68.9267465
   5.5790898  71.0042755  68.6681100   6.3772103  70.1622395  69.6401998
  60.4405309  39.7075546   1.4793226  60.1907445  39.0310181   2.1087095
  61.0799218  39.2801845   0.9094354  23.4757758  40.0400246   7.2812578
  22.7959157  40.3303707   7.8893014  23.4081222  40.6427658   6.5407487
  70.5524588  53.2932568  79.6754742  70.0188923  53.5593987  78.9266729
  71.1646700  54.0179443  79.8029757  85.1183987  40.5321550  86.0183716
  85.4980469  41.2930346  85.5788708  84.2072868  40.5162144  85.7253838
  45.8633424  10.6897819  59.1226121  46.0733033  10.1096714  58.3907434
  45.5033208  10.1090086  59.7929307  45.0301553   0.6321276  17.0228883
  44.8975469   0.2356804  16.1617967  45.9799005   0.7216728  17.1016427
  79.8971940  21.4602030  10.2549096  80.2547074  20.9247673  10.9632322
  79.1035272  21.8472374  10.6243917 108.5144000  50.5199456   5.9220239
 108.7067704  51.3659354   6.3264104 107.6179604  50.6076352   5.5980798
  35.7396313  77.8505782  14.8191663  35.5656716  78.3589415  14.0269967
  36.0243698  76.9953088  14.4971868 110.5058102  90.3211621   0.6262037
 110.9438329  90.4645709  -0.2127246 110.2621703  91.1982349   0.9222051
  70.8640672   7.9365719  10.8693143  70.3148938   7.1797979  10.6645223
  71.2249948   8.2061422  10.0247499  13.0685230  87.8852514  36.4623185
  13.4734055  87.7860550  35.6006547  13.0686184  87.0015553  36.8301698
  92.7737336  91.7574743   5.5112096  93.6222510  91.4150075   5.2301999
  92.4240737  91.0829000   6.0933706  40.5970284  68.8439862   7.0789167
  39.9162384  68.2626907   6.7400190  40.2826687  69.7249786   6.8757936
  64.7017766   6.1764992  21.1249849  65.2032090   6.8380344  20.6483671
  64.3037034   6.6554010  21.8519136  70.7066632  19.6818054   6.9946882
  69.9758626  19.9747932   7.5390359  71.1339284  19.0005100   7.5138303
  35.3451301   8.0121839   5.6706830  35.5201245   8.7833870   6.2099954
  34.7876454   8.3361423   4.9632188  69.1407586   3.3386886  33.2524320
  69.4804097   3.5984314  34.1088220  68.5272885   4.0346945  33.0169317
  46.0659882  98.7712172  20.8778211  45.8965203  98.3435849  21.7172548
  45.2008816  99.0351800  20.5645295  21.1068531  99.3880061  17.4033090
  21.6694638  99.2994431  16.6339799  21.3086601  98.6196879  17.9373380
  48.7301446   4.0937364   8.5750600  49.0964891   3.3338631   9.0274068
  48.5014726   3.7671554   7.7048322  62.8145028  52.0773304  17.5946637
  63.0289269  51.7880810  18.4815618  61.8587781  52.1294105  17.5842115
  37.0747329  38.0589474  39.4276925  37.5553657  37.2312630  39.4151231
  37.0278073  38.3226383  38.5087320  15.1363560  98.0804090  33.8681146
  14.5798107  98.3040837  33.1221505  15.3690907  97.1627740  33.7266561
  84.2167378   3.2512510   0.5502054  83.8287164   3.7502849   1.2689706
  84.1940881   3.8497198  -0.1964930 105.3937721  42.8351688  88.2607079
 105.8476162  42.0398664  87.9818726 106.0634518  43.3462667  88.7151718
  64.4118119  10.9722937  12.2326108  63.7944127  11.2644232  11.5620061
  63.9228917  10.3272760  12.7436277  31.2439724  92.3700575  16.8442937
  30.3098389  92.3446444  17.0516130  31.2768265  92.5913838  15.9136125
  78.7637901  68.5639668  79.2107201  78.1289291  68.3183289  79.8836565
  78.6995983  67.8688860  78.5557556 101.5585709  28.3170199  77.7409649
 102.3189545  28.8116598  78.0465412 101.9308758  27.5502729  77.3053980
  93.6187553  33.1941867  83.0113316  93.5739422  32.7777100  83.8720131
  93.2159805  32.5606990  82.4174500 104.0506749  70.6947140  24.9341031
 103.1584363  70.8865479  25.2227899 104.1867738  71.2679092  24.1796800
 101.5664630  92.9477767  28.9061281 101.9910960  92.1116451  29.0979692
 102.1082358  93.5992698  29.3514081  93.8669782  83.1165246  22.4860879
  93.4291701  83.9081696  22.7989122  94.1903930  83.3496527  21.6158696
  51.2673093   1.0509050  10.7932016  50.7251073   0.3085745  11.0600396
  50.7527352   1.8216741  11.0327073  87.0685196  53.3161449  71.0805035
  87.0349121  54.2523289  71.2771368  87.5334263  52.9318428  71.8237495
  25.5304624   6.3333023   2.7518293  25.5998851   5.6704367   3.4388658
  24.8632957   5.9920395   2.1562883 105.9004168  68.4684948  30.7619878
 106.7672067  68.4277038  30.3579542 106.0728364  68.4333531  31.7028734
  10.5315968  98.6742715  32.7248880   9.8709198  98.6951522  32.0325776
  10.0277516  98.7104253  33.5379525 108.1190109  48.3087111  86.9225407
 108.4731579  47.4292517  87.0542908 108.5947418  48.6473513  86.1641026
   9.7332569  92.1121768  21.1569997  10.3663822  91.8249086  20.4990789
   9.8028275  93.0668429  21.1555787  24.6123310  86.4207248  32.1001455
  24.9985882  87.2562770  32.3626062  23.9673897  86.6542081  31.4324876
  16.3390633  79.6623019  39.1210386  17.2430130  79.5841459  39.4259759
  15.9602352  80.3500823  39.6684762  15.2063462  84.2181376  65.2594777
  15.4650685  85.0631956  64.8918268  14.8887058  84.4263510  66.1381074
  12.1250149 103.6753348  10.2892515  12.8468415 103.0570058  10.1757928
  12.0358368 103.7679461  11.2377759  69.2852021   5.3798283  20.2703401
  70.1866437   5.6986559  20.2258130  69.3102075   4.5289362  19.8326322
  39.7830249  21.8862903  47.5480100  39.7549249  22.2157324  46.6497251
  40.5587007  21.3260067  47.5734731  41.9760987  76.1641530  10.8961126
  41.7701241  75.8090500  11.7608091  42.3572060  77.0238403  11.0748025
  32.8644706  35.4842651  21.2788411  32.8475905  36.4412487  21.2676355
  33.6109830  35.2513969  20.7268163  51.5085125  62.8525829  89.9957752
  52.2115183  62.2828293  90.3078461  51.8540859  63.7390041  90.1009941
  37.7648212   9.9352587  20.3605863  36.8820954  10.0900019  20.6968614
  38.1385661  10.8103884  20.2571889  25.7454730   7.2476662  34.1952058
  25.0248910   7.8050983  33.9015027  25.3157950   6.4855755  34.5835706
  -0.0855449 100.3091172   5.4170915   0.4718109 100.8985452   5.9251901
  -0.0352052 100.6442431   4.5218870  43.7822624  72.0489911  21.3738939
  43.2491871  72.7577261  21.0136720  43.2686611  71.2574355  21.2130090
  33.2567497 103.3158139   8.8896200  32.4746605 103.5907821   8.4111234
  33.0850216 103.5709599   9.7960588  44.5047380   3.8277185   2.4364396
  45.2670766   4.2740763   2.8049966  43.7540341   4.3092239   2.7840349
  68.8582706  47.5735664  86.0387611  68.9769363  48.5229540  86.0102940
  68.1587267  47.4006224  85.4087162  13.0897423  83.6635546  59.8159334
  12.2572609  83.6223129  59.3452855  13.3239266  82.7481607  59.9690362
 101.6400337  54.8713541  67.4678659 102.0997715  55.6897545  67.2805309
 100.7574558  55.0081921  67.1235371  29.4155117  82.1039371   8.6546918
  29.6236511  82.8541426   8.0978319  30.0388905  81.4279846   8.3887502
  48.5920907  31.6946590  15.6566545  47.7528573  31.2431324  15.5670282
  48.5225678  32.4480427  15.0702974  16.6344639  75.1809577  16.7772123
  16.2067124  74.3414763  16.9461175  16.5557572  75.3038267  15.8312055
  20.3678890  97.1183757  11.0041734  19.6406742  97.2390059  10.3935548
  20.0242707  96.5244082  11.6715261  89.6326447  71.4470577  84.7292900
  89.5351505  72.1454525  84.0820026  88.7858105  71.0008526  84.7295952
  22.3881532  15.3425777   4.1194078  23.1996299  15.4942882   4.6038839
  21.8215419  16.0734594   4.3663808 109.5983653  93.5973720  32.5322362
 109.5804362  93.7044410  33.4832593 109.6908479  94.4875316  32.1926900
  22.9330250 100.8759049   9.9773332  23.3492848 100.4312495  10.7157441
  22.4567887 100.1838330   9.5185682   4.9385496  94.2281417  14.5071336
   4.6189734  94.5151786  15.3625413   5.6711479  94.8138885  14.3162652
  36.9408322   6.6787947  20.0237104  36.8126441   7.4775684  20.5353376
  37.5374318   6.1488951  20.5523988  16.3230988  89.3519048  20.0979539
  17.1812531  89.2845372  19.6793004  16.3659760  88.7391285  20.8320447
  32.7255913  90.0356559  34.7752210  33.6138436  89.7294334  34.9582025
  32.5456806  90.6745628  35.4648992  76.2479020   4.8090303   3.8161012
  75.6882573   4.5638168   3.0792733  75.7054616   4.6567667   4.5899221
 105.6316380  89.0789131  53.7004110 104.7338776  88.8424782  53.9335557
 106.0182528  89.3883161  54.5195695  26.0494419  68.0646805  14.7075769
  26.2921330  68.8114885  15.2549478  25.7774540  67.3900465  15.3297731
  58.5392095   0.9353435  75.4197522  58.0510999   0.3361214  74.8550435
  58.0452634   0.9476889  76.2395688   6.1505314  70.8363954  24.1882535
   6.1342427  71.2486879  25.0519582   6.0918423  71.5671972  23.5728570
  36.5851689  31.9497383  18.2582971  36.7037774  31.3107574  18.9610502
  35.6548358  32.1724594  18.2915899  64.8725271  68.9373302  71.3836002
  64.2650509  68.8681459  70.6471062  65.1189613  69.8620224  71.4047575
 108.9383511  87.0934943   2.8884431 108.0902819  86.8403152   3.2530233
 109.4424300  86.2800530   2.8672906  96.1290836  59.6163940  81.5589714
  95.5041885  59.0400696  81.9989586  96.9869709  59.2592478  81.7885208
  38.6077739  11.6888798   4.7702619  39.0994073  12.4560726   5.0634118
  37.6916982  11.9644630   4.8032876  24.9049755  94.2047576  41.8291017
  24.7039982  93.6485509  41.0764619  24.3247601  93.8891343  42.5218889
  71.1767864  58.7937927  77.8735018  71.8400669  59.4412947  77.6346874
  71.4490032  58.4787655  78.7354088  54.3175412   6.5690220  15.3165170
  53.8211633   7.3229683  14.9980756  54.1809083   5.8941496  14.6516057
  87.4952412  46.8349504  86.6863441  87.1571445  47.7097321  86.4948082
  87.8207779  46.8953323  87.5844574 105.8434486  71.5951633  83.2546902
 106.1101627  72.1278048  84.0039539 105.7073402  70.7205057  83.6189461
  23.2464687  47.2473192  79.3903160  24.0000430  46.6871166  79.5761538
  23.5878364  48.1388617  79.4599628  93.7577438  47.2192049  70.5785084
  93.0809689  47.6140881  71.1283112  93.2739830  46.6767693  69.9556351
  54.4979096  20.7163084  28.3190938  54.3975354  21.6608799  28.2009813
  55.0895501  20.6299293  29.0665742  48.1671811  13.4964788  26.7261812
  47.5544835  13.2850635  26.0218164  48.0627442  14.4385422  26.8597528
  42.2597219  10.1674498  40.5083200  43.1621648   9.8989618  40.6807729
  41.8471099   9.3912018  40.1295968  71.0089875   5.6995190  18.2069227
  71.7510987   5.1558388  18.4713575  71.2191678   5.9739435  17.3143121
  64.6126844  28.7497986  50.1511403  64.3201161  29.6529949  50.2731248
  65.1280786  28.7718094  49.3448373  60.2648830  82.3162556  76.2109375
  59.7685194  81.6395283  76.6712666  60.9726858  81.8403435  75.7764769
  41.4119149  15.5688036   8.5451051  41.6934110  14.6677864   8.7037107
  41.3789035  15.9661234   9.4153234  87.4022199  27.3554218   8.6578962
  87.6568700  27.0672834   7.7813360  88.1169416  27.9265488   8.9393445
  86.7360020  64.1805267  86.1417103  86.3348961  64.7756529  86.7750835
  87.2501945  63.5743284  86.6749573  33.4134294   1.9104088  22.8351327
  32.8939296   2.3326481  22.1509858  33.6633302   2.6246775  23.4213086
   9.4088455  77.1090011  30.7220002   9.8596474  76.5085629  30.1282903
   8.5205265  77.1710519  30.3708955  31.2363887  19.7709262  85.3944016
  31.2766671  18.9496505  84.9043846  30.3714728  20.1279807  85.1927376
  78.6939192  18.7082303  79.4473743  77.7697706  18.6600101  79.6920300
  78.9680624  17.7947628  79.3657875  44.9360180   3.4492585  74.6777439
  44.4623804   3.3893788  73.8480997  45.0846148   2.5393078  74.9349260
  77.0946312  20.4450941  82.3284912  77.1834803  21.3055801  82.7382469
  76.2673998  20.1027751  82.6672173   4.9212500  53.2924444  34.3580362
   4.5401379  53.3903828  33.4854528   4.6510550  52.4187671  34.6407243
   2.8368422  64.8457257  18.4891149   3.4189078  64.3350557  19.0518304
   3.3927056  65.1277963  17.7627012  74.3312793  33.0919568   4.0745469
  74.7641306  32.2613315   4.2718622  74.9502473  33.7603358   4.3684503
  42.9938026  95.2963683  59.4125891  43.7204547  95.8115486  59.0621758
  42.8403564  95.6607286  60.2843285  63.6664486   1.0897955  71.0498142
  63.8104773   0.6107537  70.2337217  64.5357990   1.1570098  71.4447117
 107.5123124  67.5640444   8.8063546 106.8957953  67.0504478   8.2844755
 107.8356843  68.2341484   8.2041761 104.0034489  50.1711584  13.2388421
 103.1885915  50.1641940  13.7410280 103.7638287  50.5627865  12.3989316
   4.4933315  74.7065953  32.9536554   5.2797123  75.0681190  33.3624765
   3.9116379  74.5079664  33.6874219  94.9925523  27.2945289  12.1608564
  94.3151049  27.8084139  12.6004144  94.8930125  26.4119319  12.5177022
  32.8895326 100.3256849  86.6390514  32.1500058 100.0912381  86.0783672
  32.5682445 100.1865352  87.5299168  70.5349784  15.3241281  10.3981324
  70.7984261  14.4044284  10.4294320  69.8219089  15.3907565  11.0332128
  20.4766937  51.6671726   1.8601819  20.2774521  51.6985709   2.7958890
  20.5598732  50.7339511   1.6641923 111.2230973  70.8304147   3.6692640
 111.6111522  70.0674883   4.0977403 110.3151755  70.5762724   3.5039541
  15.5113121  41.3496856  12.2380277  16.3278576  41.3631312  11.7387315
  15.6279846  42.0251087  12.9061815  65.7947350  24.1820335  72.0376635
  65.8953667  23.8424230  72.9269171  65.7136869  23.4007335  71.4906406
  82.5199418  74.3457393  37.6188012  82.2203879  74.7162394  36.7886087
  83.0619435  73.5984162  37.3658677  22.4337193  59.1968594   4.8797818
  22.4672981  58.2443801   4.7909662  22.3394676  59.5178596   3.9829465
  15.8964249  44.5856331  47.1780702  16.5312000  44.1271148  46.6275617
  16.4138409  44.9252669  47.9082509 106.1896733  85.3154818  58.4431171
 106.2841443  84.8371187  57.6194191 106.0829166  86.2291828  58.1785727
  68.5283518  20.1006651  58.2499886  69.3277502  19.8681068  58.7223339
  68.0734921  20.7080269  58.8334703   0.8381554  73.1558422  48.9446374
   0.4470583  72.5726942  48.2940885   1.3626095  73.7701849  48.4310647
  64.3689060  31.3593650  86.0988808  63.5993862  30.7931781  86.1580944
  64.8455954  31.2016201  86.9138145 103.8544183  60.8465866   1.4285203
 103.2980685  61.4644507   1.9028112 104.6658330  61.3286457   1.2689515
  80.4053073  15.3641895  27.1171686  80.4569440  16.2630490  26.7921850
  81.1153035  14.9058274  26.6676732  49.7823715  26.4098549  54.6562862
  49.5066261  26.9569421  53.9208317  49.0043116  25.8990502  54.8797560
  53.3339405   8.3596957  79.2775154  52.8068590   8.9722717  79.7905111
  54.2107344   8.4226221  79.6563387  57.3131366  96.4767084  81.8764400
  56.5443797  97.0445851  81.8239594  58.0561919  97.0800052  81.8885040
 105.3870349  74.1169242   5.2417013 105.1916079  74.6156649   6.0349866
 104.7297292  73.4212283   5.2281591  97.6983313  52.9460685   7.5193521
  98.4890609  53.4768341   7.4230691  97.5618129  52.5605095   6.6539403
  15.9179970  63.3200101  14.5899125  16.4711281  62.5457922  14.4856664
  16.3833710  63.8629202  15.2262422  27.1200801   9.6639860  21.4172765
  27.7670623  10.0011242  20.7976075  26.3142539   9.5905054  20.9059259
   2.3382946  70.9359018   7.1387597   3.2782503  71.0917429   7.2305509
   1.9476553  71.8095485   7.1580907  29.6878715  91.6178504  87.9816341
  29.6132131  91.5422741  87.0303440  29.6752830  92.5602642  88.1487465
  76.4032125  20.8787680  72.0607615  77.2697067  20.7517600  71.6743803
  76.0225296  20.0009775  72.0889378  55.0045204  13.3057797  65.8912611
  54.8519516  13.8066018  66.6925907  55.8535814  13.6137891  65.5743122
 101.3866286  53.1341818   0.2056428 100.8433585  53.3669020  -0.5473021
 100.7705598  53.0727616   0.9356519   3.1791397  41.0960213   9.2634031
   3.6938139  41.7948596   9.6671029   2.9408928  41.4405993   8.4027501
  56.8221188  13.0870640  85.6508446  56.8469906  12.5068223  84.8899746
  57.4901676  13.7482440  85.4697800  69.6870184  20.2131772  89.1106415
  69.8425865  19.9216163  90.0089836  68.9191055  19.7169042  88.8273430
   7.2582241  54.2010974  38.2228109   6.5118023  54.4118672  37.6618692
   7.6828190  55.0438509  38.3831903   2.3503634  10.4834537  17.6515790
   1.8529555  10.8391360  16.9151613   2.8598162  11.2255172  17.9772016
  19.9039074  46.8894783   6.4316198  20.0332638  47.5057740   5.7107374
  19.9540230  47.4295256   7.2203370  82.6071453   4.5787641  59.8168755
  82.3280239   5.4150969  60.1895285  83.3979797   4.3508112  60.3055954
 102.5200753  62.0698843   4.0387555 101.7914920  61.4601187   3.9221879
 103.1533675  61.5875594   4.5702955  55.3537703  15.9984589  70.7908106
  54.4628143  16.3035893  70.6195545  55.4704142  16.1167896  71.7334795
 109.1593556  74.8344926  31.9268438 108.4934811  75.4580502  31.6369745
 109.0437465  74.0768198  31.3534280   7.3948380  26.2791113   6.5332147
   6.9166466  26.5342788   5.7442685   7.8462979  25.4712037   6.2888738
  91.7842393  68.2818583   0.7438680  92.2654967  67.7915577   1.4103719
  91.2218814  67.6295797   0.3261205  49.6448898  16.7340803  82.2723866
  49.5873547  17.5054169  81.7085075  49.6094465  15.9925151  81.6681957
 108.9086203  45.9464095  19.5475885 108.4843831  46.7949919  19.4204542
 109.4925361  45.8553533  18.7946054   5.4633089  68.8786987  30.3734704
   6.3697048  69.0271834  30.6429597   5.4899927  68.0548040  29.8869344
 107.6268868  47.4040226   3.7438127 107.3856311  47.3118154   4.6655103
 108.5716443  47.2510997   3.7270662  95.5056004  80.3524832   3.1468507
  96.3712411  80.7298712   3.3032819  94.9811940  81.0834197   2.8197976
  69.5613575  27.8845692  68.4712791  69.9093580  27.7388525  69.3509912
  68.7707520  27.3462296  68.4342527  64.8211765  23.2144308  83.1194210
  64.8634195  24.0636301  83.5590839  65.4038143  22.6515245  83.6292267
  17.8483387  79.1828302   7.8005239  16.9402119  78.9869670   7.5699350
  18.2075306  78.3448080   8.0919477 102.5162892  85.2750281   9.4457074
 103.3895402  85.6491117   9.3285581 101.9195180  86.0081557   9.2953035
  39.6354294  11.2669897  89.5214367  39.0700912  11.2626314  88.7490368
  39.6539283  10.3544652  89.8098660 111.5632157  81.7957858   0.7489702
 110.7570844  82.2730426   0.5524751 111.2747912  80.8997540   0.9226629
   2.0050231  16.2049973  44.3898487   1.8136970  15.2732635  44.2826128
   2.9297344  16.2879813  44.1569090  96.1779837  46.8037693  12.7377530
  96.0629182  47.6398111  12.2860643  96.8738990  46.3622896  12.2509023
  91.9777303  78.1923036  11.7485353  92.7156453  77.9167656  11.2046644
  91.9459252  77.5463299  12.4541780  78.7590890  66.3683347  17.5167772
  78.1782489  67.1288661  17.5379201  78.7671428  66.0479633  18.4187433
  10.1279827  96.0341147   1.5362760   9.5672222  95.2757434   1.6995450
  10.7590290  95.7294349   0.8842202  17.1267410  76.6912440  69.2986699
  16.7209717  75.8259396  69.3518850  17.1353718  76.8946127  68.3633634
  79.8170428  72.3146895   3.5704442  80.4801707  72.9498939   3.8406488
  79.6738772  71.7730741   4.3465825 103.9047437  59.3373916  25.8542177
 103.7079768  58.8249973  25.0700208 104.2619853  60.1599268  25.5194875
  68.0090957  71.0062424  13.9595910  68.8949756  70.6601480  14.0676137
  67.9618125  71.7392150  14.5733854  51.4023209  42.4192858  82.1850014
  51.1581087  42.2644758  83.0974865  52.2686529  42.0215893  82.0981407
  37.5685211  46.7558727  15.9778901  38.1104180  47.1805433  15.3128835
  36.8148419  46.4190463  15.4933950  68.1492186  19.8546445  68.2033348
  68.6036825  20.3791714  67.5441170  67.2342873  20.1282716  68.1380749
  70.9257598  92.0552269  55.4730272  70.4308505  92.8371636  55.7177114
  71.8371482  92.3467270  55.4479361  44.4812584  39.9754238  77.8573990
  43.8825369  39.5414472  77.2495890  45.2427959  39.3969011  77.8975058
  79.2509703  60.4539273   6.9503328  79.5325951  60.6136153   6.0495397
  79.7354226  59.6729199   7.2178479  30.0125309  71.3679174   6.8476125
  30.0697514  72.3042492   7.0379850  29.6355244  70.9850530   7.6397725
  51.8014240  26.8328333  89.7767830  52.5165415  26.1971283  89.8036098
  51.7614651  27.1099043  88.8614368  24.8768230  94.4715003  72.3206663
  24.1208978  94.8453287  71.8678236  24.8006244  93.5284284  72.1756077
  28.6665769  95.7466403  67.3814440  29.1253562  96.1742583  66.6583252
  27.9095740  95.3286335  66.9710207  80.9802051  97.5245044  88.2693386
  81.6184135  98.2153985  88.0916214  80.3168769  97.9459736  88.8157749
   7.9071137  29.4773273  28.9869615   7.9203888  29.4960407  29.9438783
   8.2339092  28.6067728  28.7598630  97.2828584  95.4562596   5.4129525
  96.8352227  94.8609570   6.0141870  97.0584302  95.1300076   4.5415040
 105.1863103  43.1105510   3.3594056 106.0999446  42.8465370   3.2507917
 104.6871047  42.4476323   2.8823587   0.9306380  50.1338320  31.4918729
   1.0979220  49.1920040  31.5266248   0.0736519  50.2095545  31.0722658
 109.1689401  83.0269031   0.2086183 108.8182120  82.8713230  -0.6683139
 108.7687974  83.8517813   0.4837438  24.3773552  61.5647397  24.9694177
  23.9032551  62.3852734  25.1042959  24.6980950  61.6186474  24.0691682
  77.4845176  39.1253988   9.7600194  77.0531969  39.8160128   9.2567846
  76.7892198  38.7557093  10.3041860 102.6115041  64.3403081  17.6926252
 103.0429272  63.6213044  17.2309610 102.7711778  64.1601197  18.6190530
  68.4274583  78.2802109  23.6532708  69.1498356  78.1577925  24.2692396
  68.7484364  77.9098753  22.8310510  44.8496914  10.0330484  65.4453039
  44.2149973  10.2630615  66.1239004  44.4192266  10.2710629  64.6241617
  39.8288245  79.6921197  55.4240561  39.5843215  79.0919272  56.1284828
  40.7860131  79.6885887  55.4278278  58.2108927   9.9400395  75.3111696
  57.7354336  10.4514635  74.6564817  58.3980465   9.1083932  74.8757744
  76.8246560  44.9374328  25.5571576  77.1464925  45.3618101  26.3524934
  77.2298865  44.0703062  25.5676099  81.0886765  10.3210843  81.3382530
  80.7757759   9.5729744  80.8296776  81.8171406   9.9731934  81.8525982
  97.7685738  19.2547989  64.5382977  97.4088860  18.8089669  65.3051662
  98.7157345  19.2416108  64.6759319  34.3808270   5.4489297  84.4909000
  34.4631982   5.3736925  83.5402203  33.4391713   5.3967816  84.6545887
  62.4605560   1.8748760  89.3911552  61.8147230   1.3000233  89.8018646
  62.0218563   2.7234882  89.3308735  22.3002049  77.4820165  23.1632158
  22.2293850  77.8624324  24.0387174  22.8399845  78.1036476  22.6749059
  54.4183016  32.6598525  53.6661911  54.3105984  31.8224978  54.1172695
  55.2015924  32.5432539  53.1285191   1.7395540  97.4873666  10.7711812
   2.3249527  98.0486802  11.2795755   2.3260447  96.9103507  10.2819845
   5.8163735  67.3876361  16.9942590   6.4885136  67.1604268  17.6367780
   6.1572357  68.1677822  16.5567418  62.2069693   5.4774195  75.3115368
  61.4922714   5.6000799  75.9363508  62.5847292   4.6289921  75.5432701
  93.6278348  48.8259734   8.0599805  93.6279206  47.9438666   8.4316274
  92.7013974  49.0369023   7.9439565   6.9078823  46.7806421   5.5120202
   6.9650551  46.5361951   4.5883294   6.9668766  47.7360223   5.5110380
  84.8329501  63.5319904   9.6471711  84.5856767  64.1225938  10.3587076
  85.7764821  63.4108070   9.7534581  74.1357660  48.0037737  81.4255524
  73.2127285  47.9399824  81.6708374  74.5806026  48.2634068  82.2323704
  21.2839694  63.4799138  62.1232843  20.5833430  63.5863772  61.4798355
  21.4016481  62.5326673  62.1947241  76.4080238  49.2040730  86.2165260
  76.5457869  49.4178247  87.1393299  77.2672367  49.3239737  85.8120441
  59.3949938  23.7936211  71.9036055  60.1853275  23.7317729  72.4400520
  59.5825195  24.4960046  71.2809324  99.8442268   3.4771344  86.0985851
 100.3771114   3.8744113  86.7873764  98.9418983   3.5970500  86.3946629
 105.2014828  25.7057524  87.0613480 106.0747433  25.3157735  87.1009159
 104.8976612  25.7053876  87.9690552  74.5843363  60.7521152  90.8207607
  74.4537401  60.6355047  89.8797131  75.2712679  61.4154339  90.8868599
  17.4294850  66.4904050  18.4321138  18.3210465  66.8384508  18.4176656
  17.4863335  65.7088891  18.9818689   8.0146214  97.4516992  40.9474393
   7.7867504  96.5279607  41.0524007   7.2449204  97.8427962  40.5341169
  65.0651650  52.6991062  14.6109220  65.1934700  52.8382407  15.5492231
  65.9439092  52.7634146  14.2368909  95.6224398  66.7929927  22.1415731
  95.1000504  67.5949136  22.1254178  96.1500077  66.8667928  22.9368421
  96.8584447  82.4729375  15.4004308  96.0340361  82.1187953  15.0670167
  96.9280534  83.3381418  14.9969407  19.1690537  71.6665510  66.2444993
  18.3409592  71.5121130  65.7899305  19.6847531  70.8776430  66.0774156
  99.6357541  87.8167585  24.9698659  99.7551541  86.8975071  24.7312280
  98.7595086  88.0347995  24.6522447  37.8405190   7.1001691  66.6452885
  37.4144316   7.8775078  66.2841463  38.3948255   7.4362755  67.3495674
  15.4884144  21.0743741  38.5237428  15.3564354  20.2964643  37.9818269
  16.2955853  20.8959702  39.0063115  18.4691902  66.7428497   7.4307462
  18.8215729  66.0822097   6.8344137  19.1354748  67.4298743   7.4478074
  38.3734800  42.4669544  17.9386827  38.7855987  43.2111976  18.3774301
  38.1220204  42.8048644  17.0791456  95.9125142  66.3324372   7.2935697
  95.4407458  65.7954184   7.9301854  96.1392550  65.7251994   6.5892431
  65.1319838  37.0757413  88.7062645  65.3339911  37.1509504  87.7736568
  64.5358706  36.3289547  88.7627506  10.6481644  58.8652686  28.2868501
  11.5016552  58.5481540  28.5821744  10.1367089  58.0704955  28.1352540
   7.5653645  80.4779915   5.4237005   8.0183884  81.2795786   5.6853601
   7.9988381  79.7845987   5.9212419  84.7574997  22.9810715  79.8211813
  85.6204414  23.3187532  79.5813322  84.5286179  22.3821998  79.1104078
  77.3676920  46.9839478  79.6529055  76.7166185  46.3169479  79.8707294
  77.0810652  47.7630615  80.1294041  55.2310939  84.5381967  58.0096579
  54.7058864  83.8795057  57.5552225  56.1239429  84.1943875  57.9805994
  66.9038582  16.5945065  83.4940147  67.5935602  16.0796511  83.0751324
  66.0903597  16.1642087  83.2307816  68.7633467  23.5887957  85.9591103
  69.4745827  23.1801295  85.4657841  68.1464720  22.8759313  86.1249924
 106.1183123  25.4361919   5.9014818 105.5577378  25.6590108   5.1582834
 105.7660775  25.9485487   6.6292497   8.7186714  58.2671038   1.1661359
   8.6559483  58.7684599   0.3531572   7.8219124  58.2384560   1.4996549
  73.9051199   5.3239828  66.9115829  73.6726236   4.4552854  66.5836430
  74.7248030   5.5369264  66.4654827   3.2823607  99.7933606  10.2643606
   2.4479862  99.6054296   9.8345491   3.1884428 100.6891278  10.5884191
  60.5287600  15.4691684  64.0958118  60.1907015  16.2982953  63.7574387
  60.0047779  14.7995770  63.6561298   4.8900315  62.7619592  36.8929693
   5.0302407  62.2913990  36.0713025   5.4436918  62.3065756  37.5272580
  91.6606526  39.5650236   4.4977971  90.7987456  39.9575523   4.6366044
  91.7334084  38.8989679   5.1813909 101.6751571 102.3312998  90.6020164
 101.1722846 103.1040261  90.8593941 102.2579284 102.6442960  89.9101734
  11.4310738  69.9004225   7.8878995  11.5011021  69.2884544   7.1552202
  12.2355648  70.4173950   7.8458997  52.6828952 104.6191717  73.8149023
  52.6836581 104.1640399  74.6569777  52.4754329 103.9383425  73.1748533
  92.3009066  93.8411979  16.4625856  92.6485400  92.9764108  16.6805764
  92.5873141  93.9944724  15.5621930   0.4489943  67.3823122  10.8869573
  -0.4426626  67.0357040  10.9192296   0.9984204  66.6583005  11.1872312
  19.7032691   0.2448833   5.2031823  19.1701270  -0.4975283   5.4874727
  19.2249538   0.6126106   4.4600602  20.8708092  71.5992860  10.8768007
  21.2864968  72.4589018  10.8097383  20.6554123  71.3663022   9.9737188
 102.0204358  48.4710569   1.3576242 102.8249936  48.0202419   1.6139146
 101.4995150  48.5060225   2.1598932  20.0105950  58.2550100  22.4339982
  20.4539772  57.5332133  21.9882890  20.2460762  58.1481902  23.3556100
   9.2804333  85.8919243   0.3326722   8.6189553  86.3079695   0.8854696
   8.8179394  85.6843547  -0.4792670  73.0270290  28.9701128  78.3056259
  73.2534742  28.0444312  78.2158136  73.8604546  29.4039154  78.4885120
 105.6493048  63.8315109  14.0659448 104.8504262  64.2538074  14.3816778
 105.8062272  64.2266778  13.2083532  12.0843693  61.9569311   8.4535142
  11.2721535  61.5508632   8.7562677  11.8483826  62.8695611   8.2872411
   6.0311776  58.9447927  62.2372961   5.8100420  58.0204725  62.1234274
   5.4327667  59.4081831  61.6512918  22.0934772  26.1099505  84.9843597
  22.4131918  26.2629104  84.0951920  21.1416650  26.1812139  84.9122238
   4.9881359  42.8460947  26.1610814   4.0777632  42.5609539  26.2394830
   5.4051396  42.5401954  26.9665452   5.8337017  77.0719270  23.6054059
   5.7672449  77.9269198  23.1802007   5.2964541  76.4930538  23.0645772
  32.6741406  40.1397482  15.6970712  32.2720524  40.6803206  15.0171109
  32.0110985  40.0884370  16.3855287  43.4793659  36.1141602   8.4676668
  44.1532036  36.7926637   8.4250661  42.9346844  36.2687425   7.6958867
  19.2804428  47.8178612  18.4184285  18.6282154  47.6504029  19.0987226
  20.1211258  47.6647420  18.8497278  46.6355371  44.8763275  89.7991848
  47.2314692  45.6157780  89.6795559  46.6682291  44.6918011  90.7378674
   2.3627993  67.0443312  13.5233518   1.6316172  67.3088161  14.0816137
   1.9692179  66.4632002  12.8724977   4.8020884  61.3540939  17.7609941
   5.1304814  61.9003866  17.0468828   4.1248556  60.8122210  17.3560735
  91.2705131 102.8974465  89.1611767  91.4829250 102.3478717  88.4068012
  90.3151508 102.9561899  89.1532898  74.9117661  24.6886253  66.7657089
  74.8517895  24.1500425  65.9766817  74.6894789  25.5716014  66.4704561
   5.6205364  86.5661720   6.2657758   5.7223173  87.3737506   5.7621023
   6.3644882  86.0243968   6.0026285   0.0506207  55.9904594   4.0117856
   0.4167076  55.1169742   3.8730928   0.2902266  56.2104008   4.9120351
 102.8427601  33.8877177  80.2858353 103.7987137  33.9273000  80.2571964
 102.5877857  34.6399975  80.8199692   8.4196373  94.8370866  12.4040147
   8.0530354  94.0450791  12.0108815   9.3401524  94.8307113  12.1416303
  23.2286640  71.1520330  29.0127584  22.6017662  70.7109097  28.4394857
  23.2753941  72.0459548  28.6737081  18.3662983  33.7880866  12.8576871
  18.6744877  33.5645238  13.7359067  18.1646248  34.7225873  12.9052945
  52.5299741   6.7052830   2.4305078  52.7707006   6.8150366   3.3504125
  53.0089570   7.3966015   1.9734594  85.0664906  39.4100682  22.0937177
  84.4671349  38.9162246  22.6532861  84.6061711  40.2299682  21.9145509
   3.0923554  37.8961281  25.0152990   3.8308092  38.4970681  24.9163743
   2.3266693  38.4665970  25.0825521  47.4776077   1.1081065  73.9943218
  46.6022587   0.8761157  74.3044519  48.0133724   0.3401266  74.1928101
  88.9351945  80.0344972  19.9220868  89.7588258  80.2558378  19.4874879
  89.1786151  79.8875145  20.8360692  17.6725098  57.7296130   1.7607423
  17.4168965  57.2063745   2.5204202  16.8985745  58.2563941   1.5613672
 100.5489735  52.2791123  12.0234701 100.5218463  51.3264261  11.9346734
  99.6635632  52.5195337  12.2963735  98.9274316  49.3343309  12.5130102
  99.5371394  49.2023618  11.7870160  98.0736403  49.0893141  12.1563073
   0.9617130   1.9776943  54.1159916   1.8910877   2.0274806  54.3395996
   0.6277267   2.8591317  54.2825937  68.0657768  29.2178535  76.1971521
  67.5899363  29.6543026  75.4905224  67.4429035  29.1893053  76.9234037
  50.3706166 103.2927112  15.9591314  50.7750221 102.6042632  15.4311868
  50.3400894 102.9291514  16.8440839  25.8144427   2.0853603   8.0374070
  25.9710504   2.2617138   7.1097204  26.6023065   1.6275394   8.3305093
  20.6765839  61.2517188   5.7421323  21.1418911  60.5331002   5.3139898
  20.3370854  61.7809288   5.0203916  13.7800881  78.3868054  17.2167322
  14.1617390  77.7947453  17.8648397  13.3798500  77.8068594  16.5688917
  13.9878460  87.3075084  26.8719884  14.0055462  87.9803494  27.5525781
  14.7296902  87.5200800  26.3056775 104.9771647  80.6255583   9.3181535
 104.1386370  80.1976637   9.4913884 104.7456174  81.4209537   8.8386079
  10.5592052  22.2954226  72.7296019  11.2399665  21.7611575  73.1387043
  10.3205768  21.8139291  71.9374847  11.6252514  87.3699168  14.6984598
  12.4706074  87.0171932  14.9762842  11.2601753  86.6945938  14.1267129
  40.7435751   5.9398156  81.1301517  40.7165909   6.7916816  81.5658474
  41.1849356   6.1102509  80.2980614 106.9792228  39.7287480  25.6049177
 106.9694238  38.8923553  26.0703012 106.9953494  40.3884629  26.2982770
  13.9636513  66.9537739   0.3161832  14.1796013  66.7160133  -0.5855159
  13.1645485  66.4631526   0.5084249  79.6207428  51.2153101  88.2586670
  79.9191809  52.1106720  88.4183121  80.1976299  50.6713581  88.7948990
  74.4379759   4.4207001  79.1891527  73.8313532   3.8543269  79.6660852
  73.9214373   5.1971978  78.9735746 108.1909232  67.4410526  17.1232053
 108.2466702  68.0721752  16.4057084 109.0521817  67.4750022  17.5395128
  63.7354898  22.1276736  63.2330322  63.4564495  21.2149549  63.1601334
  64.2401648  22.2882485  62.4356937  44.3513441  14.6997476  60.5947113
  43.5494947  15.0695372  60.2252197  44.4463634  13.8519859  60.1605415
  83.2863712  17.5488913  70.4793072  83.4161663  18.4667504  70.2407265
  83.9138699  17.0697129  69.9381351   5.8798977  43.6628983  48.3756181
   5.6994435  42.8716568  48.8831636   6.5351387  43.3909909  47.7329942
  63.6464024  47.2625971  70.5104685  63.9469624  47.2154474  71.4180326
  62.9213381  47.8871870  70.5304289  51.3356204  77.4269787  85.9082317
  50.6991859  77.0025483  85.3328800  50.8110233  78.0101815  86.4567757
   4.8621508  78.0368523  18.7611600   5.7659527  77.8634933  19.0244409
   4.9252888  78.2897738  17.8401395  93.6997318  35.6318283  90.6589508
  93.5480976  35.9023809  89.7533894  92.8229141  35.4997587  91.0194874
  15.3934571  81.3292459  10.5903074  15.8990856  80.5165199  10.5971834
  14.4804665  81.0436038  10.6231614  12.7555367  97.5428037   1.4487287
  12.3664566  96.8250684   1.9484350  13.1780049  98.0926303   2.1086141
  98.2258849  80.3677658  33.3649846  98.5509639  81.2377910  33.5965177
  98.5183053  79.8043326  34.0814134   0.8191963  79.8649148  23.4360429
   1.6043230  79.4614033  23.0659314   0.4202887  80.3309015  22.7012273
  32.0991036  73.3040337  19.6216127  32.6800534  72.5880412  19.3645402
  31.3430687  72.8691868  20.0160142  74.2790174  17.4940205  90.7961369
  74.6446609  16.9473302  90.1006699  73.3569527  17.5964642  90.5604744
 104.4136243  49.7753582   3.7018415 104.0892939  48.9266864   3.4005090
 104.0751366  50.4019410   3.0622693  94.2673974  96.3640717   1.3970014
  93.7651639  97.1559552   1.2048837  94.4635205  95.9904937   0.5378171
   3.9747707   7.6274359  56.1807251   4.7883502   7.9629803  55.8042574
   3.3539096   7.6322019  55.4522085  29.3115902  38.7244272  75.3954172
  28.6211371  39.2773247  75.0296164  29.9212980  39.3401837  75.8020258
  84.5054817  51.3657904  86.2141228  84.4792271  51.6852856  87.1160412
  84.7615242  52.1294212  85.6968689  33.8644071  86.7118922  82.6199722
  34.6222491  86.5469590  82.0589924  34.1522403  87.4054423  83.2135868
   0.3160712  55.1097751  44.3143197   1.1423489  55.3541309  43.8974305
  -0.3537849  55.3355540  43.6689111  59.2020126  98.4013340  79.3984318
  59.5981021  97.5501708  79.2117214  59.8422809  99.0382305  79.0811825
  67.0597076  47.5244236  83.9323521  67.7263880  47.5727034  83.2472038
  66.4312458  46.8784237  83.6099339  93.8493972  97.1356420   9.0942308
  93.5788064  97.1782712   8.1770631  93.8907914  98.0499581   9.3744775
  55.0468349  44.8779392  81.5332317  55.2848339  43.9725113  81.7327118
  55.5597544  45.4015875  82.1488190 104.2461638  61.5607367  34.8404619
 103.9898496  62.4518184  34.6027490 105.1694875  61.5034667  34.5946428
  66.8275070  37.6662946  90.9443474  66.8527222  36.7992234  91.3490486
  66.2978745  37.5473213  90.1559544 110.1488023  56.8404815  23.5298845
 110.9925847  57.1006224  23.1603071 109.5368581  56.9020415  22.7964231
  49.1769838  21.4591956  79.5010185  48.2658100  21.7095900  79.6536589
  49.3132353  21.6096544  78.5655928  82.9441643   7.1495754  79.6682882
  83.6248398   7.0075154  80.3261185  82.4905968   6.3088536  79.6075439
  94.1116047  10.4984224  40.9445620  94.2477608  11.4371419  41.0730028
  94.9153519  10.0930834  41.2700033  76.2497997   3.4087291  66.4430237
  76.3546133   4.1325766  65.8255386  75.9833002   2.6671037  65.8996964
  11.0291859  81.1875824  16.7179319  11.2633320  81.8818621  17.3338720
  11.5361019  80.4291705  17.0078870  64.7366953   5.4976606  77.5587559
  65.1027822   5.4663324  76.6748810  64.3596792   6.3745213  77.6309061
  75.3515291   9.3074214  71.4168739  75.8450031   9.8604339  70.8111572
  75.8338881   8.4808147  71.4336586   2.1224972  97.0489816  14.5823213
   2.1834084  96.5260152  15.3817102   3.0206581  97.3334865  14.4132062
  61.7930393  44.6794794  11.4084169  61.0407047  45.1329742  11.0281965
  62.5476150  45.0272773  10.9331342  78.6138296  61.8331385  81.6167068
  77.7411270  61.8796635  82.0071697  79.2051601  62.1041918  82.3189163
  90.8152103  14.9512827  41.4235687  90.4067230  14.0884125  41.3540697
  91.6044140  14.8014450  41.9440746  51.7562104   3.9035261  19.4166776
  52.5091458   3.6937511  19.9692270  51.5838243   3.0971849  18.9305421
  36.1793017  21.2910676  72.4378538  36.3906860  20.5962324  73.0613518
  35.7731342  20.8356833  71.7003679 109.5390129  54.3614531  80.0658798
 108.8435078  54.7514200  80.5954266 110.1927376  55.0554180  79.9804926
  41.2591691  91.1216978  84.2316246  41.3166614  91.2337366  85.1805019
  42.1697469  91.1015502  83.9372253 100.4982858  46.2756161   5.7606431
  99.6073012  45.9916119   5.9648916 100.7899623  46.7343984   6.5484639
  92.7009682  72.0464114   2.9540750  93.3226256  72.4923519   3.5293218
  92.0055919  72.6881246   2.8095456 106.0827355  66.2884323  25.9781667
 105.9561543  66.8623117  26.7337247 106.0540347  65.4035524  26.3420316
  10.9881684  91.0827402  26.4972898  10.5436417  90.2625970  26.2828275
  11.5862938  90.8522014  27.2081491   5.2905985  90.2807406   8.1824704
   4.8292872  89.4978217   7.8817102   4.7213694  90.6494907   8.8579198
  86.8510156 104.6574429  15.2782747  86.4699654 103.7907056  15.4189702
  87.0540099 104.9755124  16.1579629  30.9399839 104.0818343  73.5316992
  31.8469472 104.3718382  73.4339619  30.9229036 103.6288345  74.3747520
 110.3457122  64.5771901   9.8737832 110.9914498  64.9958829   9.3046209
 109.8263984  65.3024677  10.2209398  14.1835591  87.4012355   9.9194928
  13.3179089  87.0364956   9.7354909  14.2700192  88.1328801   9.3083879
  98.4633827  22.7798963  87.0513821  97.5909615  23.1576967  87.1626568
  98.3954430  21.9041562  87.4317646  97.9876666  47.2701839   8.9130803
  98.3475213  46.9816134   9.7518083  97.0409016  47.2897182   9.0526601
  53.3172607  13.5293210  90.3745365  52.4984264  13.2210660  90.7627678
  53.9197397  12.7915215  90.4689026 108.2381344  30.8950090  84.6669197
 108.5679913  30.2737546  84.0177059 107.3224354  31.0317421  84.4239616
  62.6124382  19.8492682  63.2744312  61.7417002  20.0611305  62.9380322
  62.4583244  19.5634902  64.1748810  85.7839775   3.0793053  62.8337622
  86.6192818   3.4402102  63.1308317  85.6662178   2.2862285  63.3566332
  72.2427082  22.4927640  66.2600183  73.0023289  23.0693388  66.1777544
  72.4083757  21.7876005  65.6342888  58.9506340  22.7628922  80.5994892
  59.0431070  22.5703764  79.6664190  59.3399429  23.6309981  80.7046700
  67.2470284   6.7912847  72.4337626  66.4323616   7.1143532  72.0488214
  67.8910112   6.8665260  71.7295933  84.3216996  93.8634233  27.7794858
  84.0044169  93.8921908  28.6821195  84.7857623  94.6923474  27.6621934
 105.6183009  94.6733407  21.5086957 106.3715176  95.1483993  21.1576673
 105.2505784  95.2613000  22.1684762  16.4075275  98.4557084  64.1789961
  16.8385215  99.0726510  63.5875082  17.0059581  98.3784470  64.9220610
  76.7362642   5.7249278  64.9678421  76.8603945   6.2717563  65.7436037
  77.6240969   5.5120581  64.6803045  68.6699247   0.9778515  79.6062136
  68.9060974   0.2100286  80.1266956  69.2279243   0.9222237  78.8304710
  23.7211796 100.2041654   5.3694745  23.2831570  99.3595008   5.2650567
  23.0087754 100.8274249   5.5118295  48.5784622  76.8667320  21.6071531
  48.7669464  77.8042678  21.6487905  47.6938816  76.8161205  21.2449380
  85.9687571  93.8025168  39.4340535  85.0255971  93.8593940  39.5871946
  86.3293557  94.5738534  39.8713609  38.8749787  47.9452748  21.8641206
  38.2661816  47.4283103  22.3917123  38.9269825  48.7878994  22.3152467
  90.1893234   0.7458332  77.7083683  90.0094700  -0.1403709  77.3944807
  91.1268806   0.8673403  77.5584793   0.7420727  47.5217340  14.8297616
   0.0904556  46.8360481  14.6832486   0.8479782  47.5522760  15.7805940
  97.8948979  65.5558423  20.5870744  97.1643977  65.9240440  21.0840913
  98.3178763  64.9504212  21.1960050 106.3902478  62.0544813   0.7683774
 106.8373875  62.7149562   1.2975999 107.0697503  61.7132322   0.1869508
  94.2759037   8.3421707  90.3530884  94.1882706   8.8906914  91.1326313
  93.4269428   8.4095913  89.9161148  80.0323105  29.8032188  88.5901260
  79.6504498  29.9700475  89.4518566  79.3922091  29.2451572  88.1484604
  59.2833134  64.4358925  25.2043268  59.6906086  64.5698861  26.0601255
  59.5209881  65.2148429  24.7013589  85.7890224  12.9123509  83.4049225
  84.9756813  13.3145940  83.1000996  86.0723877  12.3620486  82.6747894
 101.5055847  25.1483965  78.2672215 102.2693253  25.2024913  77.6927662
 101.8122864  25.4917932  79.1064119  77.5844383   7.5051326  76.8212891
  77.1854401   6.9104511  77.4564171  77.2364426   7.2213155  75.9759617
   5.0823876  61.6420428  41.7236730   4.3250939  61.3907341  42.2524282
   4.9598070  62.5769464  41.5588685  84.8548465  90.9254078  51.6067048
  84.9241452  91.1716703  50.6843301  84.4966988  91.7024688  52.0358201
  59.8487043   0.4867661  72.2547388  60.5354929   0.2506816  72.8782940
  60.1720524   0.1704359  71.4111662  47.6412010  18.0070961  88.8344002
  48.3309317  17.3615420  88.9885521  47.1437979  18.0260253  89.6519947
  99.9314027  26.5464667  17.1875497 100.5534987  25.8326105  17.3276922
  99.9693160  26.7158631  16.2462159  79.2603111  21.7655706  84.3515396
  78.6284351  22.0364428  85.0175667  79.2602825  20.8094120  84.3961620
 107.1680646  80.7274369  17.8815767 106.8218379  81.6149000  17.7879258
 107.4342971  80.6698064  18.7992021  57.5992866  91.4141766  52.0592165
  57.6221843  92.3370269  51.8061304  58.5199161  91.1660102  52.1434546
 101.1716609  57.1314354   4.2421266 101.6444688  57.0162866   5.0663968
 100.2832417  56.8295906   4.4314214  22.9211422  77.3246721   5.0599214
  22.3691269  76.6385559   4.6847459  23.0526730  77.0558266   5.9691259
  10.1816841  77.2846512  11.0300847  10.8771607  77.5951294  11.6098615
  10.1479717  76.3400177  11.1809560  73.7365627  48.3014154  88.6962700
  74.2354012  49.0777922  88.9504814  73.3531904  48.5297298  87.8494358
  81.9209056  85.5267886   1.3234731  81.4525943  85.4123453   2.1504041
  82.5900512  86.1835817   1.5160772  97.0730643  79.0563086  21.6697999
  96.5546136  79.5992068  21.0759088  97.9815726  79.2765931  21.4640924
  11.8945214  89.2785028   3.2285234  12.7156731  89.7201017   3.0118867
  11.3878437  89.3033055   2.4168035   4.8447844  57.3369742  10.8379384
   4.5877215  57.7017603  11.6847440   5.6328961  56.8273196  11.0259935
 101.8597274  94.7629336   7.4406740 102.2733168  94.0885810   7.9795858
 100.9207539  94.6341399   7.5747129  42.8266712  72.4728993  13.6466714
  43.5281655  72.8314737  14.1903325  42.9651066  71.5260724  13.6708471
  53.1459570  21.4156723  86.1736393  53.6895466  20.6337285  86.2700939
  52.3689938  21.2339520  86.7023468  89.0950966   4.5050728  85.4771519
  89.3147945   3.5766953  85.3992081  89.7628880   4.9536136  84.9584103
 109.6684174  58.1028447  26.3033029 109.9743991  57.8931556  25.4208967
 108.7545352  57.8183452  26.3138315  81.7768383   0.5657120  26.0248828
  82.0095158   0.1456947  26.8529391  81.5172386  -0.1575205  25.4541159
  24.1102787  47.0444564  10.7997915  24.9557205  47.4668268  10.9516259
  23.7159916  46.9782517  11.6695043  69.3320465  51.7446327  87.9936314
  68.6409760  51.5797615  88.6350822  69.1729164  52.6399994  87.6949120
  71.3070250  43.0245686  30.6109118  71.4510059  42.6728535  29.7323895
  71.7157984  43.8898993  30.5924320  78.8855648   7.6928729  73.7699318
  79.2894220   7.7480316  74.6360111  77.9564905   7.8606158  73.9277744
  92.7454762  49.2348025  14.7740957  92.1636252  49.8172609  14.2858049
  93.5483317  49.2068962  14.2536374  21.6281601  65.7171825  16.6175195
  21.9948765  66.2443713  17.3273298  21.0058399  66.3003389  16.1829301
 102.7498150  18.8066173  54.2560196 101.8293476  18.9797044  54.4535398
 102.7542114  18.5613465  53.3307838 109.4730811  69.8041431  19.3274137
 110.1704268  69.8628584  18.6743470 108.6748652  70.0208012  18.8455983
  73.2871437   2.6102442  88.7709999  72.6643324   1.9525191  89.0804100
  73.7211180   2.9215524  89.5653534  93.5501575  16.4985955  79.6091795
  94.0339088  15.8117092  80.0678730  93.1267166  16.0467339  78.8792801
  48.2266999  27.2057617   2.8385183  48.3803750  28.1496036   2.7963086
  47.3073960  27.1238983   3.0923292   4.8760267  84.0816597  23.7548848
   4.6865031  85.0137643  23.6476823   4.1569515  83.6377863  23.3052846
  42.5245954   6.7425812   0.4384252  41.6803886   6.8610561   0.0030919
  42.7403213   5.8209598   0.2958890  61.4230394  42.8346348  84.0263081
  62.3695707  42.9335785  84.1288757  61.2843037  41.8884802  83.9841652
  11.7357250  99.7036962   9.0605756  11.7734715  99.3105773   8.1886407
  11.5922257 100.6358413   8.8970300  26.7853447  42.2969119  20.7551977
  27.0905873  43.1147627  21.1478540  25.8331772  42.3271910  20.8484479
 110.3013425 101.2038545   2.9048463 109.5976310 101.3354568   3.5402223
 110.2621989 101.9761447   2.3407003   8.9153954  67.0488373   6.8219014
   8.7530800  67.6867298   7.5168725   8.4676644  66.2554471   7.1156808
   3.0464693  84.3213729  14.2005941   2.3787924  84.8960809  14.5749589
   2.5612303  83.7403158  13.6147996  23.6682984  68.4472028  26.4120885
  24.4194027  68.9457122  26.7339250  22.9729172  68.6264626  27.0449659
  96.7795086  57.6908970  54.1573715  96.3200951  57.8184748  54.9873686
  96.6364193  58.5061598  53.6766386 101.9960785  34.3833613  74.4691086
 101.5134907  33.5623765  74.3725634 101.8440151  34.6452165  75.3771496
 102.1041298  26.7748666  90.4052734 102.0163822  26.3749194  89.5400620
 103.0156517  26.6167092  90.6509209  82.5582981  78.0429459  76.3414478
  81.7647076  78.5273790  76.1139059  83.2736206  78.6445475  76.1350012
  14.0507218  83.9194755  19.1499635  14.5996662  84.3101481  18.4700605
  14.0615174  82.9819540  18.9571782  97.1337085  60.2149216  11.6438791
  97.7518802  59.5458625  11.3498422  97.6742892  60.8514730  12.1116468
   2.4166962  73.7192778  31.4904996   2.0602700  74.4783930  31.0290452
   3.1595560  74.0663079  31.9844266  65.9524441  44.1270161  75.4841709
  66.4960337  44.7661972  75.9448147  65.7083797  44.5639372  74.6682310
  13.5007282  75.1040987  11.9068834  13.4963413  75.4864482  12.7843877
  12.9770561  74.3071965  11.9902345  11.2264725  92.5786284  13.4973069
  12.1698757  92.4589280  13.6063310  11.1373230  93.4591750  13.1327173
  62.4389982  15.3696024  85.0010204  61.8875599  14.8301673  85.5677319
  62.7384329  14.7702861  84.3173695  46.1569687  75.0957874   5.7215043
  45.5428883  74.6819071   5.1150056  45.9389397  74.7220258   6.5753194
  76.1793613  18.5153711  80.4113102  75.5667305  17.9874301  80.9233570
  76.3894796  19.2566586  80.9792709   3.1983229  73.4541968  20.4638597
   2.4394938  73.7995247  20.9341356   3.5307690  72.7547339  21.0264131
 108.0998711  90.4538683  13.1186696 108.8459258  89.8902420  12.9138395
 108.4938054  91.2734512  13.4175512  50.8524227  10.3942633  73.3804512
  49.9692631  10.7590461  73.4369040  51.1708927  10.3971136  74.2831135
   2.8241817  52.9961348  60.5298948   2.4267093  52.4266195  61.1886072
   2.6175968  52.5767708  59.6946192  88.1053638  31.6355467  80.8732796
  87.7053547  32.4966931  80.7522488  88.4547329  31.4104152  80.0110245
  53.6361074   8.0319792  74.7252178  52.7458429   7.8233314  74.4421530
  54.1966867   7.4838352  74.1761065  14.1995140  89.4725088  28.3697625
  13.4131619  89.9955324  28.5257360  14.8699185  89.8781709  28.9195081
  48.0597302  97.3937682  23.3105489  47.7365872  97.6527719  24.1735193
  48.8908383  96.9534186  23.4882566   6.8478104  96.0698060  14.1259977
   7.5157543  95.6620339  13.5748025   6.5865132  96.8547753  13.6445638
 107.2771506  88.9396838   0.7670137 108.1999497  88.9400391   1.0213395
 106.8001609  88.9723710   1.5962526  92.4331951  42.7540827  83.4422779
  93.1167507  42.0840549  83.4351254  91.6159344  42.2616673  83.5186577
  73.2748656  92.9758147  19.8495122  72.9444747  93.5011033  20.5783101
  72.5617509  92.3697857  19.6484586  79.3746614  69.6408701  82.5529480
  79.8571444  70.3926277  82.8968906  78.7572098  70.0187159  81.9266701
  30.1839543   8.1347740  25.3272649  30.8934117   8.7759483  25.3696653
  29.4886352   8.5786856  24.8417684   8.3893963  72.2357193   6.7339631
   7.7819058  71.8340413   6.1128064   8.2192513  73.1749300   6.6621038
  77.2900248  48.8123226  73.4285545  77.2377300  49.5832586  73.9934874
  77.8238106  48.1895685  73.9219904  12.8848882 101.3372314  63.8581944
  12.1376605 101.7131687  63.3928442  12.7470823 100.3913349  63.8079882
 107.7951293  83.2503418   6.3710996 108.4350257  83.9465002   6.2223550
 107.9851727  82.6015476   5.6934663  42.9979516  13.2936705   0.7337591
  43.3443452  12.7235353   1.4201948  43.7471677  13.4634769   0.1627275
  60.7734537   3.8682204  89.4945908  60.6002092   4.2322132  88.6264229
  60.0101089   3.3219263  89.6819496  97.3916392  51.1291433   0.3291723
  97.8518157  51.7949362   0.8402368  98.0087094  50.3993518   0.2756902
 111.1552338  93.6167792  38.7673589 111.5582805  94.4577912  38.5517618
 110.2138905  93.7877873  38.7380239  18.8212391  51.7664827  30.0247690
  19.1091248  51.8118872  29.1130182  19.5424362  52.1509353  30.5230829
  10.6060978  92.3470930  18.4637281  10.1483723  93.1376294  18.7496873
  11.3038441  92.6677875  17.8922960  27.5596138  56.4535645   1.7772123
  26.7650505  56.5026153   1.2457200  27.4316403  55.6816966   2.3286458
  20.0879761  94.4651202  51.3723203  20.4970547  95.2685336  51.0507413
  19.2917439  94.7616366  51.8131372   5.9241387  69.8075799  45.8394929
   6.2665840  69.3140284  46.5847226   5.7194086  70.6712142  46.1978933
  80.6815529  11.4045429  74.0397882  79.7734547  11.4849651  74.3315458
  81.1174202  12.1780717  74.3974257  94.0260029  57.6442146  87.5654697
  93.4321880  57.6073790  88.3153152  94.8234749  57.2111702  87.8699875
  64.1104555  25.7334113  84.3386555  64.7657442  25.7286620  85.0363636
  63.9654160  26.6610861  84.1526031  50.1955510  18.3859384  10.7099935
  50.1312257  18.8792694   9.8922368  49.5939160  18.8314712  11.3064500
  26.2631603  94.2473201  15.1526471  26.6302201  94.7834949  15.8555147
  27.0181080  93.7926797  14.7790452  93.3337073  81.7175893   5.0483724
  93.2345061  82.6028327   4.6980401  93.8588099  81.8309788   5.8406087
  21.6994277  22.4377418  75.5735636  21.4880268  23.3688998  75.5065870
  21.2351028  22.0334005  74.8406649  62.7156305  32.3877239  82.7165985
  61.8278074  32.1343517  82.4640083  62.9312849  31.8083549  83.4473991
  84.2276053  47.5880966   1.6467115  83.8391547  47.4902178   2.5160524
  83.5104279  47.9061801   1.0983487  28.3856293  78.0202178  17.4295160
  28.7146088  77.1610979  17.6939222  28.9417359  78.6437754  17.8965875
  95.3091388  75.4667286   0.0644895  95.0748925  74.8044495   0.7146760
  95.9475760  76.0240106   0.5095311  19.7691628  65.3549377  74.0583631
  20.0368687  64.4383708  73.9914914  18.8139530  65.3301994  74.0017911
 107.8702693  79.1405562  33.0211278 108.4271531  78.7309627  32.3590585
 107.2360139  79.6512417  32.5179883 106.3554573  44.1241932  62.4587297
 105.8413219  43.7626648  63.1806660 105.8788586  43.8628101  61.6708469
 104.1964249  97.6213387  41.2927648 104.9426322  97.0238952  41.3424608
 104.4191174  98.2242135  40.5834123  56.1877919   8.1060636   1.8774625
  55.3788568   8.3240831   2.3404142  56.2327100   7.1505011   1.9107553
  76.6338205  41.5100527  85.6556797  77.5516653  41.6378212  85.8954144
  76.1625147  41.5391302  86.4883041  53.4301568  10.8351791   0.5700418
  53.7600614  11.6294229   0.1498338  53.2786275  10.2268064  -0.1532534
  59.5341349  18.5706735  85.3499699  60.1180410  18.9525938  86.0052776
  60.1219797  18.1643522  84.7131252   6.7589375  67.2885374  32.9728433
   5.9722992  67.7724687  33.2243272   6.5726849  66.3830403  33.2210752
  43.3554741  30.0245861  22.2507116  43.9950558  30.3010396  22.9070207
  43.8638970  29.5129851  21.6214296  56.6631599 100.8912087  57.0664883
  55.7554908 101.1824301  57.1534538  57.0332332 101.4592168  56.3907337
  61.2625456  31.1666417  89.2519474  61.4279127  31.7331457  88.4983158
  60.4944706  30.6531787  89.0016556  88.2340622  13.8677478  84.3071938
  87.3124599  13.6364043  84.1916275  88.2964897  14.7686255  83.9897823
  93.7170219  39.1406751  80.6991863  94.5944977  38.9119291  80.3926849
  93.4061432  39.7923779  80.0708008  12.3878051   3.0593479   7.3401948
  12.7909089   3.8534725   7.6910516  12.6100589   2.3776615   7.9743310
  39.4915677  15.5575693  25.1409837  39.9920798  16.2945116  25.4911729
  38.6774064  15.9495104  24.8251363  66.0815526   6.4941919  17.2824117
  66.5973855   5.7291401  17.0277711  66.4973832   6.8068064  18.0858918
  67.9011536  33.6351800  73.6141491  67.4808788  33.7148380  72.7578497
  68.4847116  34.3921566  73.6658907  18.1704322  70.5314064  79.5826340
  18.3700744  69.8384476  78.9532042  18.4744064  70.1870346  80.4224110
   8.2411476  82.3469738  15.6381532   8.5451885  81.4738707  15.3901979
   7.5151821  82.1856097  16.2407895  95.6336212  60.7216358  73.6479187
  96.4529514  61.2130880  73.7062025  95.2573872  60.7782221  74.5262575
  83.0237870  87.6320652   4.4361230  83.6635499  87.3161701   3.7980386
  82.3131900  87.9915003   3.9050027  25.3736774  34.7324705  52.3096609
  26.2707225  34.4303775  52.4520493  24.8313514  33.9633155  52.4843454
  17.9547020  72.8382472  38.4903737  17.6018902  73.1328062  39.3300077
  17.2359558  72.9646591  37.8709623  79.0948296  44.1910028  74.2648554
  78.1990910  43.8623142  74.3413019  79.1994715  44.3867826  73.3337545
  92.4489021  45.1136065  87.2379780  91.9032001  45.7580805  86.7873096
  92.1316814  44.2678404  86.9213200  97.0372772  25.2802181  85.6249428
  96.9233799  25.4122472  86.5661240  97.2170925  24.3444300  85.5343819
  65.6500769  42.6039410  82.4913120  65.1421881  42.9225254  83.2374954
  65.2944994  43.0780411  81.7396259  27.0040032  91.7810205   7.9396650
  27.6315590  92.3381356   7.4792024  26.4075562  92.3951987   8.3677694
  82.2482681  13.5324228  85.5099964  82.1369362  12.5823951  85.4741287
  82.5093365  13.7090242  86.4138126  69.1181326  78.3309031  60.6568146
  69.4301414  77.4329996  60.5443430  69.5616055  78.8265610  59.9684238
  94.1294861  47.7220249  61.5285063  93.1861401  47.7056837  61.6899347
  94.4684982  48.3622074  62.1541786  71.3802958  26.4672971  80.5701733
  70.8866262  26.4007950  79.7527981  72.2886372  26.5855980  80.2924156
  36.6712476   8.1217230  11.8320676  36.6517497   7.8294981  10.9207746
  35.9950114   7.6007927  12.2651597  47.8093239  80.6228403  23.8631460
  48.2486817  80.4404096  24.6937581  47.9026886  81.5681676  23.7453672
  37.8629204  70.1467089   9.9667188  37.7823731  70.3534607   9.0355893
  37.1806332  69.4948200  10.1272031  43.6285783  10.9269703   2.0020982
  42.9830361  10.2557409   2.2233411  44.1676713  11.0093439   2.7887460
 104.6879768  62.2544003  74.1888380 104.3727970  61.4354610  73.8064289
 104.5569229  62.1449852  75.1306868   0.3087183  55.7873464  20.9767457
   1.1263796  56.2617038  21.1272355  -0.0276521  56.1445914  20.1548787
  13.7781330  55.4769943   3.6958715  14.2043110  55.7541324   4.5069143
  12.9053589  55.1938922   3.9685460  19.4347283  96.6811255   3.0219671
  18.9301964  96.0451774   2.5147649  20.0474449  97.0587901   2.3909494
   9.0677349  41.0316515  76.7899370   9.0546409  41.9472075  77.0688868
   8.2539836  40.9193039  76.2986040  66.2773895  20.5206275  89.3226147
  66.7540407  20.9085011  90.0565052  65.7887888  19.7949648  89.7110939
  46.1848446  82.9303888  10.0893613  46.8273922  83.4975199   9.6630689
  46.7109009  82.2832803  10.5591985  88.3426285  52.4489880  82.7831650
  89.0262794  51.7790985  82.7929401  87.7801609  52.2280312  83.5254955
  99.3689685  76.8735603   8.4514924 100.0786214  76.7740110   7.8168889
  99.1921477  77.8141502   8.4674760  80.0973415  62.4713039  88.5600185
  79.7739172  62.3688507  87.6649570  79.6517372  63.2524920  88.8877583
  88.1371117  34.9497461  78.5057974  87.9643536  34.6413589  79.3953371
  88.4068203  34.1651320  78.0284357  70.2000046  34.5933270  81.0513210
  70.6441784  34.9905968  81.8004036  69.3089056  34.4299197  81.3603210
  49.0331174  21.0537947   5.9757730  49.9073125  21.4383591   6.0400220
  48.4383489  21.8025768   6.0183069  43.8956925  80.7170443   9.8874780
  44.7386929  80.9613899   9.5055219  43.6507221  81.4683274  10.4276487
  76.9120264   4.4629577  80.5557346  76.9904518   3.9452022  81.3569927
  76.0516930   4.2326471  80.2050018  21.1203858  97.2603253  19.0518590
  20.9824654  96.3404397  18.8259813  20.5832859  97.3985175  19.8320218
 109.8059802 102.6765136   0.5615064 110.6082587 102.8031758   0.0550004
 109.3090396 103.4837893   0.4288884 102.2803025  78.3684734  12.9496309
 102.0868783  77.7290944  12.2640535 101.4613633  78.8502101  13.0658075
 106.7667250  79.0777139  27.3901864 106.0640054  79.5506076  26.9443342
 106.3551192  78.7251286  28.1791707  39.0562011  31.1686886  13.2818052
  39.3668700  30.6132782  13.9968129  38.5843040  31.8784130  13.7175008
  66.5368080  14.0822601  53.9257526  66.9930267  14.0917194  54.7671843
  66.3942337  13.1539381  53.7410259   0.6940166  42.6386881  89.6526814
   0.1190750  41.8735552  89.6681118   1.5688983  42.2780085  89.5086861
  20.2243706  27.7683381  23.1440374  19.5128247  27.7218727  23.7826177
  19.7915264  27.6721815  22.2957250 107.3896556  80.1034693  41.6464826
 107.5174432  80.9058026  42.1526166 108.1113009  80.0994758  41.0176393
  22.9425713  48.2227615  37.1848031  22.4030014  48.2056660  36.3943502
  23.6773010  47.6423986  36.9858571  67.8602791  59.7258472  83.8936996
  68.7682056  59.7966242  83.5989189  67.6161385  58.8203621  83.7020683
  12.6799580  72.8268484  44.9045488  13.4735008  72.6136426  44.4135782
  11.9915100  72.3135702  44.4816705  70.5066538  19.2015052  59.8117924
  70.9757948  18.4531140  59.4429398  71.1864042  19.8571754  59.9675751
  88.6955738  25.4608154  75.1208115  88.3467197  25.4074049  76.0105753
  89.5568275  25.0467682  75.1759672  50.4975271  40.1783657  88.8712978
  51.4134789  40.4524326  88.9176655  50.0019073  40.9536648  89.1349411
  17.1850010  41.7771260   3.9557573  17.5257298  42.5834284   3.5684511
  16.9377705  41.2367908   3.2053300  22.6719376  84.2891292  21.7095872
  22.2794148  83.5222892  21.2923070  23.5846611  84.0409760  21.8564721
   6.3055512  86.4901690  14.7726556   5.6557413  87.1151308  14.4510862
   7.0923516  87.0157866  14.9171945 110.4510117  50.5556870  82.6374626
 111.0299110  50.0860739  82.0369816 109.8627567  51.0493469  82.0660686
  38.8481232  48.9006449   3.2404538  38.3276840  48.7919442   2.4444982
  38.8666531  49.8463444   3.3872243  63.6147119   6.0733021  46.4747354
  63.2705785   6.9465578  46.6624280  63.4107591   5.5620706  47.2578546
  18.8654801  99.6774177  18.7618467  18.1822773  99.3297271  18.1886407
  19.6588417  99.6603230  18.2265683   4.7378541   0.9299982  19.8642560
   4.0641357   1.5808809  19.6675607   5.4481031   1.4332474  20.2624055
  71.5552807  16.7992282  82.8018093  71.5417624  16.4383376  83.6882687
  70.6379461  16.7973757  82.5284386  22.6923890  99.9835918  81.9751167
  22.0447965  99.7082696  81.3262272  22.8162761 100.9179727  81.8083286
 104.1645913 100.4032878   8.5598298 104.1021256 101.0383681   7.8463861
 104.6862082 100.8457974   9.2294046  82.6585822  74.2502383   1.5812990
  81.7053370  74.3366150   1.5717336  82.9610066  74.9916629   2.1057626
  35.8974267   9.0742243  23.4634420  36.0777713  10.0064266  23.5847303
  35.3252460   8.8437450  24.1953679  68.0520582  41.7559910  81.2024784
  68.7174988  41.9941902  81.8479824  67.2203016  41.8735170  81.6613960
   9.4201561  79.9741820  14.8915979  10.1289650  80.4210643  15.3543302
   9.3709656  79.1118983  15.3042432  90.0207520  36.9951844  79.3532944
  89.4076729  36.2745857  79.2080259  90.1254272  37.0326138  80.3040218
  97.1346951  31.9396877  90.3727531  97.1648884  31.1946654  90.9729671
  97.7675247  32.5619316  90.7313156  95.4635429  52.6399136  58.6699152
  94.7803783  51.9699144  58.6450195  95.8508015  52.6197433  57.7947855
  82.6291752  32.3889232  88.1672096  82.5323296  31.5300632  88.5785675
  82.3961830  32.2429943  87.2503376  91.4056778  43.6119795  53.7196302
  91.2802505  43.2727385  54.6058655  92.3544884  43.7000895  53.6289454
   5.6458708  83.8719372  13.6495611   4.7027394  83.8364843  13.8091871
   5.9329220  84.6733026  14.0873262  70.8380079  54.7061586  87.1514606
  70.9274673  55.5354929  86.6819572  70.2882957  54.9163818  87.9063511
  10.4080197 100.5409745   1.6898462  10.2989002 100.4522637   0.7430383
   9.7837158  99.9182681   2.0622846   6.9219776  85.1653389  37.1553823
   7.4386975  85.6829218  36.5378496   6.1673256  85.7180599  37.3584386
  99.6277046  67.9699612  76.2533760  98.7359428  67.8776884  75.9180117
  99.5696831  68.6760759  76.8970108  84.8976135  34.9589419  75.0871086
  85.8179283  35.1637340  75.2524042  84.4781780  35.8124065  74.9780178
 105.2027945  66.2403409   2.5506040 104.3987517  66.0539595   3.0353853
 105.8664231  65.6903211   2.9669114  82.5546360  10.8191717  85.6065178
  82.7005386  10.1012230  84.9904919  81.9537354  10.4574621  86.2579155
  65.2258297  51.0849468   7.4287053  64.4912049  51.6618285   7.2195073
  65.3622242  51.2021707   8.3688661   7.2357551  14.6845245  82.1224117
   7.5615493  15.4020059  82.6658440   6.2840549  14.7263360  82.2158909
  25.7976147  75.3060297  25.3519555  25.6698700  74.9266271  24.4824907
  25.8535572  76.2487868  25.1960298 100.7382874  76.9767050  10.8118554
 100.1923661  76.8325309  10.0389310 100.1724438  77.4533276  11.4192220
  12.0632740  91.6360406   0.8701822  11.7197605  92.0603136   0.0839063
  12.6152798  92.3020629   1.2799760   7.8170773  96.6305856   6.4870950
   7.3887631  96.0117034   7.0785161   7.2034928  96.7300538   5.7591840
  70.5887318   9.4143409  52.3099613  71.0062695  10.0609982  52.8789330
  69.7094440   9.3081254  52.6730013 102.5019360  41.5173483  73.2045937
 102.5623512  42.4713707  73.2538652 103.2824802  41.2040091  73.6615467
   3.1653782 101.5809230  19.6832486   3.8404986 101.0226754  20.0689908
   2.4805876 100.9721307  19.4063588   2.8948966  29.5848608  50.4982233
   1.9527141  29.7526836  50.5171585   2.9693214  28.6316013  50.5427980
  63.9064789  28.3867836  84.1213036  63.1431770  28.7847733  84.5398808
  63.6660147  28.3215451  83.1970978 102.3580174  89.2740516  66.4409944
 102.4913173  88.9979176  65.5342313 102.9970126  88.7672762  66.9420930
 101.0229874  14.0517616  88.1984806 101.7366505  14.4144738  87.6737309
 101.2853718  13.1467164  88.3666420  43.3853431 100.7474030  73.3439064
  43.1331248 101.5330166  73.8291168  44.2179771 100.9775407  72.9315948
  86.8178749  42.8409386  84.2898750  86.8220806  42.6887989  83.3448505
  87.7435493  42.8842163  84.5296288  18.1508442  74.4449667  40.8128663
  17.7462479  74.5116476  41.6777917  17.9406258  75.2752451  40.3854581
  86.1726665  27.5974512  42.1180487  86.7721272  26.9291806  41.7859507
  85.3064442  27.1951842  42.0542526  34.2782208  91.8168763   7.0584794
  34.2545696  91.7826966   6.1021825  33.5457607  91.2666730   7.3359891
  98.5430622  16.9366133  42.8583622  99.4243336  16.8447566  43.2205057
  98.5046196  16.2889791  42.1545696 106.1272335  27.5145793  63.1746626
 106.4615154  26.9902205  62.4469709 106.8218613  28.1489015  63.3517313
  79.4256787  98.6085299  13.7608548  79.5530467  99.3375377  13.1537648
  78.8046555  98.0319194  13.3157941  33.2162185 103.3726667  58.5115623
  32.9160352 104.2642063  58.6884165  32.7012820 103.0922175  57.7549791
   5.8815280  25.7525659  68.8148069   5.0483600  25.6011152  68.3685684
   6.2530128  24.8781753  68.9317226  65.7640028  27.9674959  86.3162327
  65.1880646  28.0383897  85.5549812  66.3471460  27.2374892  86.1082172
 107.7730851  94.8942498  12.8996583 106.8261628  94.7969131  13.0001184
 107.9505877  95.7966403  13.1650277 102.4754290  56.9282583   6.5471574
 102.2548966  56.8421022   7.4746152 103.4297948  57.0005951   6.5336152
 110.9127669  69.3918160  41.2100240 111.5212684  68.9293162  40.6337854
 110.6903033  70.1906113  40.7318326  77.5531769  49.4960260  80.9946823
  78.0709505  50.0964451  81.5310001  76.9860888  49.0447092  81.6199493
  96.9676304  22.5406241  84.2318821  96.8601513  21.6446590  84.5511436
  96.0799885  22.8986454  84.2197037  25.5038353 104.1425590  20.4077646
  25.8824822 104.6028117  19.6587488  26.1126610 104.3131236  21.1264249
  22.3374940   5.7286203   2.9699441  22.8903771   5.1845682   3.5308000
  22.6161767   5.5151976   2.0794317  93.8018513  51.2975597  74.6834898
  92.9667854  50.8297062  74.6810102  94.2193317  51.0468006  73.8594389
  71.7751218  33.7539566   3.1335565  72.5318624  33.4077442   3.6065313
  71.9614698  33.5666073   2.2135564  61.3012506   6.5003527   8.7619039
  60.6667615   6.4332331   9.4754430  60.7905770   6.3298405   7.9704686
  17.0415207  87.7166680   1.1755868  16.1446472  87.8095678   1.4968797
  17.1159645  86.7926673   0.9370252  62.4354887  35.6886673  70.1714706
  61.6827488  35.1865721  69.8591948  63.1897593  35.1286697  69.9878740
  85.1355457  46.4767218  81.8598080  84.7886944  47.3341131  82.1063995
  84.8383904  45.8892727  82.5546741 101.1558628  21.8961287  81.3412571
 100.2096367  21.9612670  81.4702892 101.2534618  21.5562677  80.4517651
  12.8511902 103.4640101  20.6083127  12.9576489 102.9180602  21.3873121
  12.7507683 104.3523625  20.9503290  47.6853848  29.3267918  72.0025253
  46.9777060  29.9135947  71.7359066  47.5729465  28.5509491  71.4532900
   5.7745405  49.7498737  46.0762998   5.3558727  48.9387349  46.3644048
   5.1811405  50.4422123  46.3674661  92.7480793  31.0092783  64.2453194
  92.1367741  30.3556252  64.5848274  93.6060715  30.7178402  64.5537996
 105.6342320  85.3090314   1.6129037 106.1513142  85.0745229   0.8422777
 105.1873355  84.4985680   1.8571683   0.8381172  85.6075744  23.1839010
   1.5068861  85.3577427  22.5462743   1.0622593  86.5059761  23.4265348
  90.6610107  12.9873812  65.9270525  90.6504631  13.6184037  66.6467285
  91.5898895  12.8578734  65.7356548  94.0409236  76.7060141  30.0632592
  93.7525229  75.9677962  30.6000062  93.6150651  76.5678147  29.2172262
  59.7043992   9.4966400  38.2218477  59.0543653   9.4622076  37.5200578
  59.7292138  10.4179371  38.4803411  22.0924755  91.1642674  29.3775197
  21.9334980  91.3008098  30.3115007  21.2184712  91.1211208  28.9895936
  38.3112808  94.5114068   1.9070550  39.0760609  94.1298608   1.4760610
  37.7705761  94.8398999   1.1887475  87.4804592  68.9750004  80.6296349
  87.5181770  69.0073395  81.5855408  88.1468487  69.5992136  80.3423786
  11.3018791  59.1591311  66.8370199  10.7655517  58.4201241  67.1241617
  10.7227889  59.6697998  66.2712479   6.0966674  50.6638336  72.1104336
   5.7645980  50.7342672  73.0054188   5.9408466  51.5275812  71.7284775
  76.5686607  39.0599775  81.8570328  76.7147255  38.2943296  81.3014507
  76.9009972  39.7958493  81.3429546  32.4916364  19.2770994  22.2802755
  32.3355819  20.2057732  22.4518796  32.9388858  19.2617405  21.4341279
  13.6019512  96.4711789  29.5465394  12.6725098  96.3224439  29.7204610
  13.6145016  97.1722917  28.8949987  54.3634602  93.3762673  25.9093686
  53.5067936  93.7738065  26.0653039  54.9314972  93.7620667  26.5762445
 111.1776638  34.9317026  53.6059952 110.3304672  34.4861889  53.6093807
 111.6018963  34.6457243  54.4149876  58.0753041   9.6244324   5.0192758
  57.9009534  10.2191246   4.2897817  57.2811509   9.0950048   5.0917646
  40.4207317  22.7598977  68.8448381  40.3099624  23.1090403  67.9604959
  41.1732189  23.2349801  69.1973972   4.7639743  32.0016074  74.9525785
   4.5593635  32.7695608  74.4190836   4.5740310  31.2564707  74.3825531
   2.9698936  43.4103441  84.9684620   2.4539272  42.6186037  84.8162937
   2.3212711  44.1121817  85.0227165  71.5167333   2.3651684   2.4592134
  71.3938428   2.4866760   3.4006807  72.4415303   2.1365154   2.3659250
  12.4179927  63.8794184  86.1863232  13.1364337  63.2473993  86.1612988
  12.6779071  64.5621157  85.5677795  40.8675762  91.9072107  20.2529928
  39.9284645  91.9874743  20.0860902  41.2816807  92.2421698  19.4576665
  11.0064403  29.2985511  80.7246685  11.1407367  29.7922468  79.9156857
  10.2651874  28.7236714  80.5341816  92.2128105  40.0704241  84.6815395
  92.7114868  39.6443939  85.3787136  92.7968979  40.0516415  83.9234352
 105.9150028  47.1254826  85.8716774 106.6094398  47.5768757  86.3514996
 105.1098728  47.5643730  86.1462307  60.3220082  12.7975452   9.3607255
  60.0606061  13.5919989   9.8262903  59.5003892  12.4284971   9.0367338
  80.0482845  22.0049262  77.1385670  79.3966007  22.3369360  77.7560663
  79.6112251  21.2762618  76.6978216  68.3291241  77.3319272  30.7866212
  68.5858723  77.2344069  29.8696634  68.1345936  78.2641796  30.8830282
  38.7163349  83.1133322   3.4626314  39.5680805  82.6852111   3.5490915
  38.6031338  83.2331900   2.5197336 100.8670139  60.9706926  70.4646587
 101.0908127  60.2378702  69.8909760 101.6825199  61.1739731  70.9227657
  21.0337063  79.0483192  13.4803411  20.2190396  78.5512165  13.5540792
  21.6752621  78.4114365  13.1656762  89.4743252  45.2979422  69.1513538
  90.4302979  45.2552986  69.1285086  89.1906071  44.3970966  68.9957523
  90.8940125  57.4607658  86.4376259  91.8334866  57.5744104  86.2937450
  90.5674934  58.3460855  86.5983295  51.7120076  58.1991375  19.7158929
  52.5909806  57.8706634  19.5268174  51.8316365  58.7885178  20.4605790
  96.4198208  73.9668751  84.2208576  96.1066723  73.0717993  84.3512726
  96.8265247  73.9544916  83.3544445   4.7905914  46.9620180  80.1491928
   5.0275699  47.3333931  79.2993927   5.5955783  47.0108652  80.6647968
  20.8637048  11.2952936   6.3635370  21.2428332  12.1738232   6.3375970
  21.1376096  10.8918131   5.5398771  56.4746476  19.3639172   6.3906118
  56.5825940  19.0166891   5.5051633  57.0418454  20.1345289   6.4164850
  23.2599689  12.3232162   9.3518564  23.1693841  13.1622255   9.8036119
  24.1418315  12.0251358   9.5747777  85.6391622  35.8870209  17.7066823
  86.0548783  36.0838402  18.5461255  85.4421140  34.9513519  17.7505227
  46.0272499  94.9880866  24.3823358  45.6541630  95.1547841  23.5167428
  46.0400673  95.8458976  24.8068639  46.4681436   7.6889456   1.4637204
  46.7399980   6.8065489   1.2113210  45.7499314   7.8982914   0.8665868
  10.7672016  57.8319407  70.2085114  11.3247386  57.3592854  69.5904636
  11.2744895  57.8543711  71.0199213  18.1295773  60.9931163  13.8053914
  17.4680325  60.8997092  13.1199285  18.6437031  61.7555801  13.5397645
  30.7893749  96.0008744  13.8425084  30.6871983  96.6433362  14.5446702
  30.6163880  96.4933995  13.0401822  75.1194239  88.3556461  89.0705872
  75.0941515  89.1386604  88.5206032  74.3838930  88.4627438  89.6737099
  85.4433346  41.3547230  69.3893814  86.1303902  40.6910944  69.4509506
  85.8518982  42.0792103  68.9156437  44.5652104  15.2069271  26.6387101
  44.4118215  14.8043669  25.7839319  44.8515798  14.4834745  27.1962377
  63.4645844  46.9185257  73.2807493  63.4287167  47.8340960  73.5576534
  63.1546593  46.4261055  74.0408134  48.0343147  85.0652436  34.9853727
  47.7362629  85.9696940  34.8885652  48.9353939  85.0741414  34.6625539
  95.9715557  62.5789070  64.6979046  96.4744186  63.2279968  65.1898813
  96.6261482  61.9522715  64.3895817  71.1674977   1.3873613  13.7813016
  72.0016671   1.3805855  14.2507001  70.5168439   1.1611259  14.4459077
  95.0535011  14.7601664  80.9795761  95.5207825  13.9276111  80.9107876
  95.3063297  15.1067460  81.8352604  42.1699668  33.6791408  44.6038553
  42.5124551  34.0426720  43.7872812  42.5121690  32.7855957  44.6303483
  51.1463357  18.7173355   6.3505193  50.4154588  18.1499422   6.1053296
  50.9854890  18.9314926   7.2694799  97.5764084  35.2178836  71.9880772
  97.8544712  36.0633826  72.3402834  96.9852066  35.4406977  71.2690067
  49.8679018  78.2652569  64.4261980  49.0905142  77.9140615  63.9919615
  49.7105122  79.2082548  64.4732618  93.0497265  61.3159752  42.8904247
  93.9889431  61.4634609  42.7793217  92.6369381  62.0602846  42.4524307
  82.8809834  36.7247939  77.3566961  82.3415279  37.0942163  78.0558014
  82.7234650  35.7819033  77.4054623  16.8551537  83.4581450  28.7838193
  17.1913525  82.7577523  28.2246610  17.1833130  83.2454924  29.6575090
  73.4223843  26.5718937  90.5672741  72.9732752  25.8139873  90.9415913
  72.7441072  27.0322061  90.0730228  97.3600674  31.4360857  31.8995190
  97.5086784  32.0975089  32.5752926  98.2359028  31.2191224  31.5800214
  52.0558835  29.6458137  19.8725625  51.1022664  29.6003426  19.8034879
  52.3203755  28.7606037  20.1229211  37.3229405 104.0196208   5.1085111
  37.5322815 103.2290868   5.6059667  37.1798226 103.7091283   4.2144510
  77.5574108  81.8165592   2.9853936  76.9073578  81.1504940   2.7617284
  77.8778740  81.5578488   3.8494607  91.5500450  44.9213552  75.8095694
  90.9194183  44.2612934  76.0974073  92.2764683  44.8443985  76.4281368
  21.6948220 104.2386703   9.1689225  20.8851811 104.5986394   8.8067933
  22.3198792 104.2795352   8.4451410  17.6215168  97.7720860   9.5332261
  17.4763485  97.9402808   8.6021634  18.1477257  98.5139827   9.8314306
   9.9478909  55.5766288   9.0342542  10.5393120  54.9738116   9.4848749
  10.3767773  55.7515470   8.1965848   7.7524368  52.7995729  69.3008947
   7.1049587  52.7609873  70.0048161   8.5654060  52.4982071  69.7064734
 111.0078144  62.9020405  81.3101578 110.9434223  63.2610083  82.1951675
 110.5919838  63.5606003  80.7537365 101.7218876  36.6725373  79.3434429
 101.6809368  36.4163208  80.2648067 102.4841213  37.2489381  79.2887783
  89.8224545  81.4924431  72.9711533  89.1962337  82.1624470  72.6969910
  90.6694794  81.8167496  72.6652050  44.0612122  92.7232341  29.1629430
  44.8860165  92.4225024  28.7815019  43.3980271  92.1452669  28.7856313
  80.9109307  28.6008156  19.6699926  80.1380921  28.7309921  20.2195379
  81.0440255  29.4455135  19.2398855  11.8381401  87.1098069  32.9734346
  11.5061852  87.2862081  32.0931455  12.6187702  87.6585106  33.0494520
  79.3244982  41.8346739  86.1053085  79.7744560  42.6397991  85.8492947
  79.6948671  41.1614323  85.5345154  74.8095512  86.4511490  85.8887291
  74.7687101  85.5367279  85.6087112  74.1511583  86.5195465  86.5801525
  94.9096966  61.3987064  70.9524584  95.4643726  61.0919380  71.6697168
  95.5228424  61.6055202  70.2471113  33.3646961  69.4838683  38.8100835
  33.7163159  70.3661469  38.9291688  33.1052681  69.2087165  39.6894094
  52.6885510  11.2748373  19.6781274  52.1852304  11.4910210  18.8931676
  52.2732831  10.4822767  20.0181886  54.4033714 101.8156308  77.5529957
  55.1556297 102.3886320  77.7013350  54.5935435 101.3810841  76.7215919
 106.3765907  66.6682291  85.7679653 106.0119438  67.3243284  86.3619328
 106.7240238  65.9887838  86.3457870  66.8219186   3.2859505  27.9314252
  67.2613431   2.9062546  28.6923238  66.0036470   3.6402309  28.2794782
   3.6406318  66.9536591  68.9624357   2.9534713  67.3702478  69.4825268
   3.2893840  66.9353628  68.0721951  89.3948936  40.5401468  84.5443344
  89.1549587  40.4534721  85.4669094  90.3520679  40.5480528  84.5455170
  20.0338165  41.7137671  78.6966228  19.4423095  41.8155622  79.4422722
  19.7258178  40.9236383  78.2527018   9.4232556  86.3420919  34.0035459
  10.0663277  87.0510200  33.9930555   8.9746281  86.4131788  33.1609746
  20.4030701 102.9945020  11.3582727  20.9995743 102.3068074  11.6540643
  20.9143444 103.4993152  10.7258149  63.0773354  59.8649025  74.5171452
  63.8898087  60.0975466  74.0677071  62.6945925  59.1732740  73.9773369
  59.9332190  20.4867887  89.2004013  59.8250675  21.3554120  88.8130665
  60.3841257  20.6485295  90.0291061  20.8839031  65.4238943  31.0608980
  20.7943913  64.4709698  31.0733434  21.4218041  65.6038789  30.2898618
 104.9891186  27.3921680  67.7809715 104.0393639  27.2737598  67.7944851
 105.2073956  27.6787853  68.6677885  10.6114861  79.7941855   1.1405965
  11.1883064  79.3188433   1.7385598  11.0466381  80.6361846   1.0067579
  54.0836717   9.2531526  21.3822481  53.7262536  10.0085628  21.8489858
  53.5871221   8.5070408  21.7183896  78.7585736   4.6506966   5.0075361
  77.9637433   4.7368324   4.4811746  78.7605096   3.7362898   5.2905294
  58.3789350   1.6634119  16.6074106  58.1680680   1.1210668  15.8473989
  58.5045053   1.0376442  17.3207685  89.6883489  12.9736078  10.3789159
  88.7653543  12.7475870  10.2639028  89.9769307  12.4346817  11.1154672
  75.7141399  70.6118965  87.4430084  75.0149059  71.1940765  87.1457291
  76.4470816  71.1966896  87.6354790  90.2231789  21.6583586  77.3378038
  90.9843254  21.4661765  76.7901230  90.1379776  22.6111460  77.3036528
   4.2409030  43.9134455  65.6048584   3.8859836  43.0330849  65.4814196
   4.4412414  43.9620352  66.5395927 108.4849601  80.9796266   4.7931310
 109.1504865  80.7872991   4.1325971 108.8561253  80.6480006   5.6107446
  97.0751381  70.0488806  88.8774681  97.0257664  70.9995890  88.9772129
  96.6354847  69.8721600  88.0457783  45.6028939   4.5201147   8.8293382
  44.6916295   4.2273128   8.8202974  45.9688664   4.1394985   9.6277257
  75.1972389  60.3965044  87.8980160  74.5085764  61.0137749  87.6511288
  75.4994678  60.0299120  87.0670605  95.7274246  54.9281168  54.5071507
  96.2373734  55.6151581  54.0780067  94.9139118  55.3604937  54.7669077
  84.8488712  60.7843924  75.3351879  84.0703583  60.9708738  75.8599615
  84.5109940  60.6239557  74.4540882  75.9745790  25.7804907   4.2176744
  76.5918447  25.6081570   3.5066816  75.1705743  25.3353393   3.9500066
  20.5191513  94.9082164  12.9439660  19.6675392  94.9569396  13.3782598
  20.8893105  94.0749816  13.2354089  40.0203658  18.7516725  17.1307679
  40.6958533  18.7116707  17.8077813  39.1951085  18.6914385  17.6119729
  71.2774750  96.3130836   8.1326696  71.6882035  97.1346454   8.4020635
  70.8473870  96.5210322   7.3032018  38.0797483   1.9458712  19.1008207
  37.5311423   1.8045557  19.8723718  38.1256772   2.8977096  19.0106698
  49.8266793  25.5399788   5.0488015  49.6085836  25.2594030   4.1600057
  50.7096482  25.9022701   4.9757119  60.3082467  26.4026344  20.8364126
  60.8896733  26.8541658  20.2246209  59.4737149  26.3399923  20.3718015
  81.6936493  60.6420040  90.3731728  80.9313393  60.2374840  90.7872677
  81.3333893  61.1289263  89.6319866  29.3741127  69.9656252   1.1606904
  28.8762661  69.5497505   0.4568311  30.1349541  69.3979613   1.2836572
  74.9404145  28.6998642   7.3961850  75.5652619  27.9888809   7.5387021
  74.1449834  28.4132088   7.8449079  92.2610092  76.0703945  65.0329208
  91.9379616  75.2415895  64.6794271  92.3950100  76.6231489  64.2630291
  57.9720970 103.5805921  15.5891820  58.6858364 104.2181567  15.5713006
  57.5352951 103.7334851  16.4270707 107.6644230  55.7133770  81.4692307
 107.2555733  56.5312767  81.7522717 106.9294834  55.1223516  81.3055420
  82.4281406  42.5498104  82.1019745  81.7889118  42.1286058  81.5273476
  83.1260586  42.8377151  81.5135384 101.9671535  54.2281151  59.8146915
 102.7182961  54.7609520  60.0756407 101.3098621  54.8634434  59.5308495
  17.4874774  23.7347627  56.4697170  16.6507045  24.0029287  56.0900784
  17.9722682  24.5523620  56.5825891   7.2518059 101.0472135   4.7107526
   6.4358708 100.7262877   5.0947973   7.9150673 100.4201011   4.9989148
   2.3081108  81.6382483   9.9748346   3.2463595  81.6677526   9.7876378
   1.9743344  80.9364251   9.4160291  61.5572263  12.9960382  13.0226346
  61.4872457  12.3275650  12.3411104  62.3318101  13.5039795  12.7812787
  13.4224502  55.4614258  81.4304638  13.5556594  54.8260117  80.7270908
  13.2360069  54.9279451  82.2030354  73.7543488  73.4140348  81.4317608
  73.3949184  73.8273764  80.6467915  73.0303049  72.8951597  81.7821312
  77.9491997  56.7369270  76.4422369  77.6352644  55.8464766  76.5996408
  77.1531677  57.2660542  76.3913774   0.8051201  99.6431998   8.9447519
   0.1266667  99.5700578   9.6160146   0.7246205  98.8376216   8.4340783
  79.2802812   5.1901997  15.8723565  78.7656308   5.9967602  15.8435746
  78.9679814   4.6800125  15.1250955  81.9375611   0.5330027   7.8451463
  82.4415494   0.3454864   7.0532628  81.0443021   0.6759823   7.5322934
 108.4935474  67.1014643  77.6795864 108.8287544  67.9895544  77.8027248
 108.3559132  67.0261908  76.7353296  11.5399929  81.9391707   4.1976472
  11.6598126  82.8456096   3.9143773  12.2529122  81.7857818   4.8176881
 104.1249943  48.2387304  82.9994869 104.1538048  47.3976135  82.5434971
 103.9432430  48.0108070  83.9112186  51.6765305  99.4609241   4.9091264
  51.8792053  99.7993831   4.0370008  51.3251015  98.5848454   4.7503396
  71.7035008  18.0845869   1.3455221  71.9014169  18.9879501   1.0985586
  71.7609788  18.0794084   2.3009797 101.9662766  65.2221505   8.6942788
 101.2364011  64.9256329   8.1505891 101.9731908  64.6176056   9.4363805
  87.3220444  45.6212568  89.4154644  86.9748688  45.3251696  90.2569103
  87.9450607  44.9407244  89.1605854  90.6287003  54.5199585  79.8359966
  90.4506016  53.5951900  79.6647739  91.1294842  54.5203829  80.6517506
  20.6184288 102.1553115  45.7274839  21.3431641 102.4810676  45.1937410
  19.8410507 102.5723247  45.3559800  62.9172326   8.9672840  41.0864564
  62.6034928   9.2946852  41.9294282  63.2540036   9.7432459  40.6384488
   4.8231455  71.9687096  16.4667436   4.9588438  71.0225622  16.4155313
   5.1860377  72.3073701  15.6483003  28.2472225  88.7190060   5.5540487
  27.8732868  89.0865091   6.3548871  28.1730171  87.7715067   5.6679269
  91.7227936  54.7300863  82.3549366  91.5040207  54.4559622  83.2455730
  92.0268631  55.6327105  82.4500370  33.0052086 104.2521457  27.2586557
  33.3296391 104.8790387  26.6121312  33.3069416 104.5969991  28.0990526
  14.5867630  88.1070880   2.4214956  14.4481846  89.0541772   2.4286672
  13.7675854  87.7477387   2.0808431  31.0029026 100.1241616  13.7620946
  31.5392967 100.8880309  13.9742681  30.4318329 100.4217509  13.0538865
  42.8575321  84.3839697   5.5066415  42.5938889  84.7448710   6.3530847
  43.7266918  84.7527770   5.3492566  10.2630798  39.4983840  88.8876724
   9.5218269  38.9201880  88.7075043  10.1662342  39.7313237  89.8110294
  13.4838001  48.8438845  74.7421503  13.6253826  49.4633293  74.0262747
  13.1693927  48.0486345  74.3120956  20.6140991  90.6481818  53.7507840
  20.5494496  90.9960488  52.8613778  19.8058792  90.1499776  53.8724443
  71.2079431  16.2676514  23.7903425  70.3479100  16.1004007  24.1758367
  71.2435819  17.2186649  23.6877271  81.0995865  50.7176781  69.8204899
  80.2109814  50.4623508  70.0683403  81.5207291  50.9525537  70.6473541
  32.6615239   0.4562986   7.1178171  33.0028964   0.5183590   6.2257119
  33.3528138   0.0116814   7.6083967   6.8382355 102.2146396  16.3746187
   5.9153267 102.4456147  16.4801332   7.3073765 103.0396060  16.4993783
  46.9106575  90.1904062  26.6015168  47.7036854  90.2169875  27.1369001
  47.1699139  89.7137693  25.8129426  74.5762825  53.8831854  76.0554075
  74.6664572  53.4657097  75.1987791  74.5840836  54.8215342  75.8665562
  90.9926415  -0.3243267  23.9200994  90.0749684  -0.1412975  24.1216203
  91.3278199   0.4977262  23.5621663  85.0860596  40.3226757  88.8612556
  85.2062130  40.1607752  87.9255390  84.2832375  39.8517227  89.0846634
  86.7087461  13.4773481  12.9002115  86.3105870  13.1621921  12.0888063
  85.9960080  13.4607923  13.5389253 111.1508751  43.8925982  87.4607754
 110.8676052  43.1065369  86.9937706 111.6444492  43.5607958  88.2108021
   9.6560662   6.3802660  15.5525609   9.9107163   6.1350811  14.6630212
   9.9072545   5.6286228  16.0893747  27.0648953  99.5604352   8.6857244
  26.7070671  98.6730651   8.7132665  26.8298718  99.8866061   7.8170415
  28.9547058  82.3216347   5.2479669  28.8550373  81.5082244   4.7533342
  28.0708882  82.5260118   5.5534669  76.5276910  25.8873737  20.1913949
  76.4128591  26.1663998  21.0997983  75.8138753  26.3143003  19.7176477
  21.9976131  46.4547348  68.0575800  22.6752845  47.1218014  67.9479980
  21.2134544  46.8441057  67.6706314  54.3370625  97.3954276  31.8588563
  54.1941925  96.8716458  31.0705205  54.7557827  98.1957606  31.5420362
  14.1676899  90.8754686   2.6369973  14.8649117  91.2595061   3.1686326
  14.3680187  91.1524943   1.7429277   2.3400589  82.2051791  24.9945089
   1.4400288  82.1243171  25.3101655   2.2586676  82.6471094  24.1493436
   1.0503475  68.0474472  83.9395905   0.1587192  67.7985239  84.1830444
   1.5682880  67.8841114  84.7278023  42.8875257   3.6884249   8.6207124
  42.2514773   4.4007624   8.6858484  42.6003123   3.0504024   9.2739030
  10.1039020  71.0742712  76.7706776  10.5811016  71.8809891  76.9649076
   9.8364822  71.1683893  75.8564281  95.5850030  28.4016788  39.9111673
  95.9345151  28.7943352  39.1112348  94.7371865  28.8279522  40.0365754
  28.3495232 102.7980117  14.7973462  28.4211441 101.8704061  15.0224134
  27.5813194 102.8478269  14.2284795  75.1989031  70.8486700  67.2927380
  74.4463682  71.0140276  66.7247772  75.8820915  70.5354166  66.6999865
 109.6912575  46.1421013  83.2660484 109.0769863  46.1363173  84.0001202
 109.4599152  46.9250250  82.7663040  35.3453060  89.4016079  30.3583738
  34.7266957  88.7376050  30.6627580  34.8669621  89.8831276  29.6834203
  77.2313118  36.4641690  84.9580288  77.3065186  35.6897402  85.5155563
  78.1095314  36.5857339  84.5972157  66.6557313   5.1817310   2.5716039
  66.3736154   5.4067600   1.6850396  67.4785329   4.7084225   2.4482366
  40.1256844  72.4990252  10.6699296  39.4845864  73.2096008  10.6526109
  39.6899315  71.7949394  11.1501523  76.0817051  64.9414158  78.0291271
  76.1346245  65.3590727  78.8887739  75.6303644  65.5817413  77.4791193
  70.2222013  30.3334093  75.0839329  70.5610704  29.6059060  74.5622635
  69.8619270  29.9186587  75.8677769  29.0773007  99.4925479  66.2603589
  28.7526127  99.3520621  67.1497842  29.2840668  98.6147765  65.9394380
   7.2204205  83.9249639   9.7968980   7.0936390  84.2486338   8.9050504
   6.3377949  83.7186698  10.1045629  12.8629490  63.0193178   4.9601003
  12.4391171  62.4091194   4.3565580  13.0926701  62.4841324   5.7197210
  90.7980728  47.5033760  74.0704393  90.7375908  46.9172812  74.8248053
  91.0486889  46.9331694  73.3436060  97.2859955  31.0784578  87.7254295
  97.6300430  30.2269149  87.9951286  97.1666145  31.5589237  88.5446548
  75.8590121  90.7277313  69.0992308  75.4463191  90.6548921  68.2386398
  75.7259078  89.8696915  69.5020771  21.3130757  73.2061557  23.0548402
  21.1355492  73.3528046  23.9839383  22.0558449  73.7775520  22.8598234
  18.3209606  74.2305879  12.0667955  17.9028603  73.6512593  11.4297696
  19.1334339  74.5064835  11.6425344  31.8476292  86.4613298   2.8933450
  31.3622757  86.1064319   2.1485540  31.8883415  87.4029020   2.7259656
  28.3014199  97.5778750   6.6648504  28.2794663  97.3163966   5.7443162
  27.4187561  97.3950414   6.9868871  84.4799232  26.1389446  87.7710724
  84.8941135  26.7710996  87.1836662  83.5542202  26.3824940  87.7707386
 108.1579399  49.6640921  57.7991438 107.9039955  49.9978733  58.6595726
 109.0774250  49.4177532  57.8996229  32.0029307  21.5541256  34.4812223
  31.7144109  20.7608545  34.0298864  32.8779794  21.3405788  34.8051378
 102.7565862  13.3606470  40.3592607 102.2105218  13.3091343  41.1437341
 102.8338338  14.2981756  40.1823446  59.7972585   6.1885727  18.7849923
  60.5405332   5.9995640  19.3577310  59.6682740   5.3820217  18.2859155
  26.4781185  93.5144929   1.0275289  27.4348637  93.4855584   1.0340902
  26.2672707  94.3962745   0.7205316 108.2995987  67.9139233  71.2339401
 108.7003613  68.6437798  71.7060995 107.7023411  67.5174332  71.8682146
  73.8354970  12.5568808   8.6459466  74.5127488  12.9829777   9.1713067
  73.8362886  13.0379045   7.8183957  92.3818588  66.2721395  78.0154037
  92.6857948  65.6784773  78.7020016  91.7952251  65.7382822  77.4795914
  80.2584457  15.4784584  78.4441137  80.6104565  15.7200849  77.5874138
  80.6704712  16.0907137  79.0537071   3.4973804  33.1064343  83.2156277
   3.1838695  32.7444816  84.0444469   3.9996520  32.3950267  82.8183270
  62.6924420  11.4704836  10.3975507  62.7969171  10.5233133  10.3070756
  61.7634584  11.6263092  10.2274534  26.3493530  53.8295794  81.3870811
  27.1464816  53.4222078  81.7260075  26.0702506  54.4249582  82.0826817
  70.3064824   6.6947258   5.5287381  69.3714334   6.5033090   5.4560396
  70.5730058   6.9281757   4.6395322  98.5986519  46.3224792  83.6386490
  99.0307713  45.6985140  83.0554104  97.8593636  45.8364439  84.0039635
  98.4402753  12.4926889  42.7644750  98.9034749  12.0680845  42.0424005
  98.2730390  13.3818138  42.4518701  33.0714218  24.8101282  74.8651505
  32.4563781  25.3149605  74.3330812  33.6279766  24.3624496  74.2279148
 104.2433453  34.9516463  72.9496622 103.3875275  34.6594119  73.2633781
 104.0981197  35.8531237  72.6624632  97.6441193  30.1925445  61.5262318
  96.8779659  30.0144982  62.0717001  97.7636909  31.1405301  61.5833187
  28.0062386  72.6485375  23.2370778  28.2176968  72.0843367  22.4933072
  27.8917500  73.5179214  22.8532811  99.6104336  31.0771585  78.2793617
  99.4115162  31.0841799  79.2156410  99.5223236  30.1592398  78.0226612
  95.8651066  53.0812120  85.9276676  94.9422264  52.8275585  85.9142590
  96.2994099  52.3792744  86.4123249  73.3296681  39.7902096  30.3951474
  72.8516580  38.9612282  30.4180833  73.7840081  39.8280704  31.2367936
   7.2852317  46.5247059  77.5052500   7.6339523  45.9783077  78.2095766
   7.8614131  46.3521671  76.7606211  94.8968601  68.2378483  69.3809175
  94.6144676  69.0648794  69.7714376  95.4645920  67.8422070  70.0422668
  79.1282558  63.5782099  71.4382935  78.5110950  64.0793705  71.9713879
  78.7234402  62.7152443  71.3508558  16.9359199  65.5080318  85.4911423
  16.4192573  65.5531549  84.6866226  16.4944927  64.8453760  86.0224247
  81.9383527  13.1458509   2.4072095  81.7979814  13.1910932   1.4614412
  81.4679528  13.9031780   2.7556535 102.5025558  40.8279324  64.2843103
 101.8323517  40.1445866  64.2938948 102.0940876  41.5702963  64.7296000
  74.9573036  92.3676185  27.5738641  75.2372166  93.1941012  27.1804067
  74.1352078  92.5792054  28.0161496 111.0213280  75.6803179  76.5352726
 110.0839806  75.5969095  76.7103529 111.1736488  75.1199675  75.7743263
  93.3732319  55.9326267  68.2858944  93.1842518  55.7774305  69.2113304
  94.2646122  55.6053066  68.1653023  92.1602821  59.3427181  81.8633366
  91.9024467  59.9930143  81.2099934  92.1626091  59.8229742  82.6913357
  70.8769704   1.3951385  24.6786138  71.5816403   1.9877804  24.9402543
  70.5386544   1.7696369  23.8652726  14.7894088  51.5110159  84.1545010
  14.1357986  51.7228603  84.8209476  14.6547405  50.5806494  83.9741611
  93.8518144  31.7432201  18.1066819  93.7950421  31.9024074  19.0488454
  94.4908715  32.3834312  17.7936860  88.7318039  61.8991709  78.8978004
  88.3721924  62.7139330  78.5469770  88.3253860  61.8095684  79.7597933
 106.3739109  36.4397931  86.7817211 106.2375641  35.5050874  86.6269112
 107.3007965  36.5817094  86.5894032  49.1092774  81.3167290   2.2640821
  49.2095371  80.6516913   2.9451867  48.6309143  80.8724288   1.5640756
  77.1702577  14.3872869  34.9811574  76.7223550  14.6952522  34.1932699
  78.0235482  14.0858877  34.6692487  48.0448724   9.4280136  22.5312539
  47.6229669  10.2827919  22.6182767  48.5982228   9.3537701  23.3087655
  63.9878369  31.1456001  19.9250051  64.8040200  30.6568230  20.0307008
  63.5434056  31.0547913  20.7679006   3.6473553  59.6159351  10.0033113
   3.9963334  59.9717987  10.8205053   4.2794030  58.9451206   9.7449609
   8.3815853  80.6602383  54.8367739   7.6183216  80.6646252  54.2591667
   9.1306964  80.6058025  54.2433882  76.5222360  27.4087131  15.8147737
  76.8708612  27.3093498  14.9288675  75.5994035  27.1665466  15.7375642
  54.3006421  16.7044676  11.7224046  54.7835256  16.5905321  12.5409814
  54.9387170  16.5030992  11.0379049 102.8660679  57.5558186  90.9881973
 103.2676697  56.6876459  90.9532833 103.2185745  58.0136442  90.2250671
  82.0612718  17.3713148   2.1138307  82.8878976  17.0717466   2.4922201
  82.0817853  17.0532024   1.2112638  15.2958294  74.4937257   3.0128309
  15.7814213  73.6826185   2.8626844  14.3757435  74.2364935   2.9536840
  97.8541851  42.8736496  88.5445499  98.7634468  42.6539040  88.3415794
  97.8648663  43.8181973  88.6992931  90.6240082 101.7506695  82.0889473
  91.2418652 101.2421131  82.6141644  90.2127171 102.3474789  82.7141571
  32.3424431  93.5884885  19.0270063  31.9066139  93.0190114  18.3929845
  31.6631409  93.7968902  19.6683713  22.3305126  62.1939520  12.5784417
  22.0080372  62.4232320  11.7068502  21.7355725  62.6422516  13.1795236
  18.8718029  94.0266637  34.5056268  19.0641018  94.9388627  34.2884942
  18.1997677  93.7670020  33.8754102 106.3813972  49.9897432  83.0379486
 106.4905453  50.3172970  83.9307117 105.7188606  49.3030930  83.1140900
  36.2339016  82.4970201   4.9959108  36.1778923  83.3257536   5.4716131
  36.7644020  82.6986865   4.2251035  76.5637113  12.7625978   5.7709333
  76.6299249  11.8078888   5.7904168  76.5772916  12.9846847   4.8399564
  15.0408164  60.3342485  73.5456085  15.7187168  60.3177071  74.2211819
  14.2365638  60.0974083  74.0074778  58.3046819  33.2404793  22.4812146
  57.9188062  33.1846035  21.6070195  59.2428208  33.3452881  22.3226663
  87.1013927  51.7217207  88.6448765  86.4423275  51.5800714  89.3244457
  86.7100143  52.3740625  88.0639267  85.9544660  27.3823250  12.8133031
  85.6668950  28.2880581  12.9281160  85.1983834  26.8561542  13.0735132
  17.0935909  52.4147606  72.0815563  17.4368183  51.9196558  71.3377142
  16.9982044  51.7651892  72.7781105 104.6339226  55.7000399  77.2982645
 104.2452049  55.4084778  76.4735651 104.1511822  55.2222204  77.9727173
  62.5194264  30.6456650   0.7071420  62.1202661  30.1540459  -0.0106410
  62.6506330  31.5246284   0.3515550 109.0564589  86.6829900  10.7478639
 108.2543950  86.7350177  10.2280351 108.7735896  86.8664936  11.6437169
  15.6418792  57.6525640  74.9861908  14.7403423  57.4309540  74.7530746
  15.5731765  58.0566931  75.8511734  21.5938083  56.6033506  73.0105782
  22.4014369  56.0944223  72.9401541  20.8945171  55.9603739  72.8930521
  85.3284359  49.0341377  71.4093256  86.2499523  49.2797518  71.3273907
  85.0597191  48.8115835  70.5179834   8.5236637  37.2754455  89.0125847
   8.2652370  36.7102790  88.2845592   7.7751056  37.2553539  89.6088123
 106.4960098  58.2021475  82.7303219 106.4412975  58.6080694  83.5954571
 106.1701965  58.8727903  82.1300602   3.3752529  89.2567253  88.6388111
   3.8153163  88.5682964  88.1401730   4.0210620  89.9608994  88.6963272
  23.2435123  50.9342098  66.2771797  23.4461395  51.8214417  66.5738106
  23.5878555  50.8954859  65.3849030  82.5155068  65.3178203   8.5800954
  82.7842713  64.6762741   7.9225179  82.1490098  64.7925365   9.2914220
  10.9686557  49.7179461  84.7092342  10.6710617  50.4854012  85.1977825
  11.6640846  49.3442965  85.2505302  69.2959404  54.5295811  77.7556992
  68.8936710  55.2169228  78.2867098  69.8601913  55.0002146  77.1422148
  83.9593507  12.2061336  17.4855348  84.5939923  12.8920687  17.2782823
  84.4030858  11.6565311  18.1314966   2.8813449  56.6459751  75.0942755
   2.7175514  57.5617218  75.3196907   3.7928382  56.6304970  74.8024321
 109.4747829  51.3628769  87.8921795 108.7173843  51.9128942  87.6920223
 109.7782230  51.0533237  87.0387554 104.5091534  61.6829443  76.8014526
 103.5618877  61.7494583  76.9218063 104.7019386  60.7538509  76.9273710
  48.1448270  28.4700859  15.0381395  48.7184716  29.0045345  14.4890138
  47.4683763  29.0766609  15.3393480  42.9664041  17.8687609  40.5037900
  43.7395192  18.3719719  40.2482339  42.5246955  17.6722372  39.6776601
  38.0718328  31.4365280   0.2398988  37.4819757  31.3313091  -0.5065802
  37.7799512  30.7781685   0.8704587  17.6160618  97.0528010  12.9897043
  18.1262776  96.9794206  13.7962552  17.7467056  97.9573277  12.7051088
  88.6492443  76.1278820  71.1996794  88.1839371  75.7006359  70.4805279
  88.7849045  75.4328012  71.8436384  60.9892365  88.0258516   2.3853418
  60.1925942  87.9924087   1.8557378  61.1953160  88.9584092   2.4493524
 110.5990410  55.0833273  87.0605946 110.2934551  55.2806568  86.1752033
 109.7984314  55.0163746  87.5809383  47.9286190  76.5951971  11.5621492
  47.0064827  76.3427714  11.5154764  48.2216164  76.6015414  10.6509134
  78.3108617  34.1157520   4.3575498  78.6251641  33.3052814   3.9568254
  78.9076234  34.2677296   5.0903531   3.1370536  39.8441005  86.3768578
   3.9455024  39.6892524  85.8883286   2.6963321  40.5439520  85.8949852
  24.1793147  33.9531493  75.2898788  23.8041774  33.6257243  76.1073732
  24.1874496  34.9046063  75.3942442  14.2439834  40.7773542  75.1849365
  13.4265319  40.8658648  75.6750059  14.4617454  41.6707182  74.9190092
  72.9996587   1.3300217   9.4293901  72.2249223   1.3244999   9.9915239
  73.3177186   0.4274738   9.4510480  69.7210022 101.1595086  15.8708402
  68.7930008 101.3749103  15.9637948  70.1459786 101.6115264  16.5997526
   2.9154960  39.9787974  76.7766953   3.4850398  39.4126821  76.2557650
   2.1241561  40.0751781  76.2468624  28.8419052 101.5285520  38.0641862
  29.7985169 101.5618733  38.0614778  28.5894676 101.9615439  38.8796827
  21.3518230  74.3014956  84.0130043  20.6868068  73.9344549  84.5954704
  22.0947353  73.7028885  84.0903854  56.9879628  16.0480869  28.8872835
  57.6905061  16.6319120  29.1733095  57.3971273  15.4848850  28.2303068
  13.4323403 100.6628446   1.8154641  12.4793144 100.6383924   1.7296621
  13.7217613 101.2395219   1.1084195  48.1066605  99.1321067   2.7575036
  47.5369831  98.7991647   2.0640584  48.9008614  98.6020688   2.6901552
  93.2027531  59.3733072  70.9508801  93.0306721  59.2391586  70.0188780
  93.6045933  60.2408075  70.9978104 105.6317807  11.5778149   0.7449933
 106.0898973  11.9221628   1.5116617 104.8896600  12.1700228   0.6234094
  88.3519268  87.9897499  86.0001183  88.9552402  87.6084232  86.6379547
  88.3155155  88.9181805  86.2301731  85.4985715   6.7073715  28.3223840
  84.6155931   6.4950025  28.0199262  85.6197167   6.1691416  29.1046068
  96.8258190  35.7195735  85.6138229  97.7260113  35.9191728  85.3568363
  96.4326668  35.3352189  84.8302841  92.8450775  58.8996124  90.1809692
  92.6470470  58.3788204  90.9593010  93.8010025  58.9441204  90.1594067
  81.7796898  61.5268373  56.8723202  80.8983231  61.8866062  56.9722605
  82.0741749  61.8478107  56.0199738  99.4093610   2.4337805  36.6649171
 100.0703717   3.0709684  36.9356366  99.7983743   1.5834749  36.8695661
  15.5151645  77.1500778  89.5647621  15.5308048  77.2408438  90.5175209
  15.6463615  78.0398703  89.2372131  87.0179272  53.8137341  66.9026279
  87.1343994  53.4734821  67.7896976  86.2836075  53.3123016  66.5482616
  56.6842413  59.8054743  86.8265533  56.7595482  58.8617277  86.6854954
  55.7956696  59.9275208  87.1608925  40.5123039  97.1052484   6.7422220
  40.3007408  97.9780845   7.0733377  41.0487171  97.2670201   5.9661313
  65.9572693  81.6660360  57.4107095  65.3531452  81.9954351  56.7453023
  65.4577728  81.7018012  58.2264634   1.5891067  26.5071321  55.3223848
   2.3596088  26.7404199  55.8402109   1.3764659  27.3042297  54.8369503
  81.4683723  55.4738474  81.6541767  80.6200409  55.5250788  81.2137890
  82.1094608  55.5142927  80.9445286  48.3213612  88.7468747  41.0676786
  48.7522408  88.3159641  40.3295156  48.3913800  89.6815542  40.8735105
  56.5161038  29.2245663  20.2288743  56.0852243  29.3743122  19.3873521
  56.2979795  28.3196438  20.4519674  73.0883027  15.3296078   4.0897962
  72.5314427  16.0707748   4.3281480  73.7663365  15.7094133   3.5310003
 100.0680923  73.8915491  79.1215086  99.6012211  74.4316244  79.7591496
  99.5089340  73.9008570  78.3446693  21.5937988  22.6158285  70.2212143
  21.6122714  21.7527318  69.8077440  22.4874202  22.9456902  70.1270390
   7.8062908  64.0121603  64.8049974   7.4627963  63.7800646  63.9422226
   8.2496921  64.8494864  64.6689463  33.2985588  98.9774970  12.2137758
  32.8044411  99.3521432  12.9429647  32.8419682  99.2864064  11.4312574
  77.5129796  23.3627975  18.7307187  77.0552827  24.1740549  18.9511892
  77.9385568  23.5478151  17.8935357  73.5233498  12.7387321  62.7023029
  74.4535589  12.9612470  62.6644754  73.2349205  12.7590561  61.7898178
  38.7778469  29.0857724  27.5677701  38.5709950  28.5246662  26.8203660
  38.5542294  29.9687461  27.2735139  18.1873460 100.0698927  71.5313339
  17.2764058  99.7777370  71.4986324  18.1488891 100.9996370  71.3069916
  82.2322750  28.6963820  57.1505833  81.8347645  28.0278015  57.7084494
  83.1164551  28.8056540  57.5006056  93.2719474  59.5584313  13.0864354
  92.7890878  60.1478396  12.5070592  93.9490609  60.1097158  13.4786531
  56.0798120  17.0901346  87.8322315  56.6486931  17.0583868  88.6013889
  55.3903294  16.4526355  88.0178070  68.1250429   8.1582910  50.4353762
  68.0802965   9.0933430  50.6351423  68.1188345   7.7299333  51.2913561
  19.5898290  86.5260438  73.3017302  19.3776460  87.1828524  73.9649153
  20.5403657  86.4279739  73.3572817   4.1917034  95.1100425   3.0781862
   3.4589812  94.4943694   3.0954858   4.8935601  94.6346263   2.6336500
  42.8581090  86.2679008  77.0089197  42.4029918  85.9385041  76.2339354
  43.5409255  86.8409399  76.6601849  46.5201564 102.3403597  81.6504955
  46.8564506 103.1438533  82.0474052  47.0415111 101.6416100  82.0456791
  73.4481621  13.1983972  77.7682447  73.9524364  12.4037969  77.5934553
  73.9752293  13.9039159  77.3931789  99.6920681   4.2579457  70.5091619
  99.7157383   4.9946165  69.8984385  99.9974442   3.5105956  69.9949217
 110.5057816  57.1067167   1.7797490 109.6833424  56.7516825   1.4424440
 110.6267361  56.6708241   2.6233121 101.6471954  96.1195115  56.4433002
 101.4912219  96.5192524  55.5876637 102.5463004  96.3646350  56.6618681
  33.0390450  78.5713891  13.0503579  32.4741932  79.0543131  12.4470731
  33.9189717  78.9034394  12.8722974  39.8626180  98.7058345  82.5022888
  40.1179166  99.4976303  82.9756927  40.6459518  98.1558779  82.5154018
  58.1145950  99.7581277  90.1777458  58.8792701  99.5929215  89.6261883
  57.4960895 100.2070782  89.6014404  23.4544274  42.6461647   1.0284349
  23.1885144  42.3437933   1.8968126  24.0560814  41.9714729   0.7137319
  61.3435602  24.5917344  57.4729061  60.5157471  24.6076584  56.9925928
  61.4548063  23.6759186  57.7281284  55.2789116  17.6156974  66.2309504
  55.2155828  18.5539091  66.0521221  54.4002438  17.3666620  66.5175819
  22.2559639  49.3913619  14.9221441  21.7941090  49.9726596  15.5263158
  21.6856667  48.6267478  14.8423978 108.3919101  72.8793553   5.1071283
 107.4534230  73.0596856   5.0528356 108.5454326  72.2071067   4.4432374
  18.4261031  64.1338054  90.5070972  18.0739398  63.3086577  90.1734161
  18.7933154  64.5666162  89.7363472  88.8027763  11.2283015  67.2220516
  89.2977428  11.9292903  66.7979479  88.2089233  10.9093988  66.5424442
  63.8584137  12.4371910  63.8914251  63.5332251  13.3278298  64.0227556
  64.7251606  12.5536251  63.5022879  20.9721466  73.7999372   7.0259878
  20.4542252  74.0052728   6.2476465  20.4241558  74.0801028   7.7590963
 105.3516154  70.1288656   0.6224462 104.6788316  69.7311751   1.1751100
 105.0163560  70.0336174  -0.2690486  93.6779933  92.1631149   2.2318384
  94.1134648  91.6593770   2.9194757  92.7637009  92.2094683   2.5113984
  25.8739182  73.4758739   4.8568174  25.9207150  74.4292382   4.7851106
  25.4155918  73.3200077   5.6825849   5.4270788  58.3504138   2.2675916
   5.4745241  58.4575412   1.3175985   4.6296784  57.8408674   2.4116346
  92.1265368  61.8566070   1.5514394  93.0594067  61.7018352   1.6998884
  91.8877940  62.5199203   2.1989366  24.3234440  85.4766993  10.0582143
  24.1611763  85.8827690  10.9096834  24.8094555  84.6777848  10.2625867
  24.7444340  71.7353503  15.3630086  23.8347527  72.0255069  15.4303380
  24.8574349  71.5139894  14.4386407 105.4038906  24.9542260  66.3879299
 105.0831127  25.7375765  66.8348026 105.5106449  25.2253938  65.4761744
  50.9861751  91.7387513  77.6958513  51.6738315  91.2459961  78.1436872
  50.1744266  91.4505771  78.1132841  91.8506813   1.2236969  73.3266020
  91.0969830   0.6819946  73.5605431  92.5597572   0.5974252  73.1809044
  34.0969463  97.6711479  78.1290913  35.0211377  97.5522450  77.9100990
  33.9127679  98.5829977  77.9036140  70.3291273  22.0229650  80.8363342
  70.9589863  22.6595783  81.1743259  69.4898510  22.2967982  81.2062836
  89.1577435  23.3034444  56.1154604  89.7364044  23.9576864  55.7238626
  89.5386124  22.4632549  55.8600092  20.7816596 103.2716270  78.9173126
  19.9107547 103.5544014  78.6384058  21.3814874 103.8731946  78.4762239
  65.3249645  24.9313450  59.7030115  65.4760170  25.5651093  59.0017557
  66.1338186  24.4210625  59.7429991 109.9744987   1.8017843  57.5120592
 110.4204464   2.6331928  57.6737022 109.0436840   2.0093465  57.5940990
  16.0507771  88.1645850   5.9588167  15.4239365  88.8762621   6.0885354
  16.8814942  88.6062554   5.7825586  80.4439449  11.2297058  63.0364418
  81.2154102  11.7113554  62.7379799  80.2596855  11.5871131  63.9050865
  12.0133778  41.5743975  18.3664819  11.4886662  41.0107199  17.7979966
  12.6697918  41.9571570  17.7843686 102.8191662  15.6495476  54.6941710
 101.9088936  15.9416401  54.6459246 103.3335400  16.4479625  54.5750761
 107.4297142  11.6932011  50.7370377 107.1345425  12.3245490  51.3931656
 108.3808041  11.7986870  50.7139969  50.0598669  18.8760817  33.3614206
  50.2495575  18.4166896  34.1794705  50.0610924  19.8027444  33.6012673
  90.2600861   8.1552738  50.5349779  89.4232273   8.3575767  50.1166773
  90.3360081   8.7967229  51.2413883  63.7565422  24.3827629  54.6132660
  63.0648327  24.7311234  54.0507555  64.3187141  23.8838601  54.0205717
 102.1203423  49.9213648  82.3128319 102.6727200  49.1435003  82.3906040
 101.3670731  49.6298313  81.7992020  78.8626189 102.3789323  69.2416000
  78.4337039 101.5876386  69.5673561  78.7734695 102.3252684  68.2900715
  73.3160782  12.2411728  86.8030071  72.6363659  12.4671626  86.1680603
  73.6974382  11.4300120  86.4671230  99.6766663  18.3444524  60.8008528
  98.8451290  18.5254216  61.2390518 100.0870705  19.2035007  60.7016993
  62.8914067  63.8025705  17.6110956  63.2001683  62.8981284  17.6647779
  62.0819851  63.7495700  17.1029111  81.2217903  26.5137076  58.4366226
  81.1092567  25.9653258  57.6601934  80.5152512  26.2452102  59.0239382
  89.9937920  89.5627860   2.9729101  90.3182702  90.4565004   2.8623601
  89.1961675  89.5305161   2.4447175  77.7450037  15.3535974  87.7649879
  78.6184645  15.1520061  88.1006336  77.3659229  14.4999361  87.5557232
   6.9721500  36.2874699  86.5913582   6.4248458  35.5152893  86.4484119
   7.0514385  36.6883993  85.7257938  77.1439028   2.2920281  54.7410393
  78.0824280   2.4590218  54.8277235  77.0493364   1.9016662  53.8721848
  47.8630634  89.2239693  75.3150845  47.6261802  89.8831848  75.9674311
  48.4683509  88.6406544  75.7729006  95.4476547  28.4980392  55.8143902
  94.5285225  28.7435722  55.7088280  95.6935978  28.1216526  54.9693584
   5.0522796  10.6721413  51.0347986   5.9376613  10.3322029  50.9052992
   4.9220268  11.2834740  50.3098583  91.1783409  29.3749452  76.1485481
  90.5129528  28.8274312  75.7317495  90.9940910  30.2590656  75.8313560
  18.1021491  35.7733941  58.2938957  17.7956954  35.9527731  59.1827965
  18.3197299  34.8412657  58.2990932  93.1583405  20.9205365  82.0627213
  93.6823368  21.7114973  82.1893597  93.2706356  20.4262853  82.8747177
  54.8397542  25.7369697   3.7943384  54.2588998  25.1961077   4.3294164
  54.2522050  26.3354957   3.3330556   8.0646034  64.3256382   7.5250932
   8.5704514  64.0732328   8.2975217   8.5647961  63.9775137   6.7869588
 106.7512608  48.8843489  67.7491331 106.1915302  49.3047094  67.0962620
 107.1185207  48.1250620  67.2965479   2.0819370  20.6698298  55.6297731
   2.3723499  20.5122089  56.5281343   1.1658946  20.9334469  55.7169533
  46.9288345  95.0288955  75.7580280  46.4856143  94.3069712  75.3123713
  47.1871753  94.6650902  76.6048670  10.8945366  76.9658832   6.9080755
  10.4567047  76.1187772   6.9914075  11.6262814  76.9188456   7.5233575
 109.4837098  83.0450205  37.3368474 109.2476229  83.4181885  36.4875909
 109.1671948  82.1424917  37.2982141  20.3847023  81.5781836  12.8936788
  21.2199017  81.8598227  12.5203821  20.5538079  80.6940226  13.2191011
  10.8551355 102.1783159  84.4270897  11.5785833 102.5112990  84.9580956
  11.2701459 101.5820241  83.8038445  62.2286697  96.5592316  72.5936270
  63.0741115  96.2066517  72.8713942  61.6263957  95.8183000  72.6608849
  30.4126735  93.5299150  76.4572239  30.7776399  92.7167586  76.1082125
  30.2247615  94.0599660  75.6826496  35.7862373 102.3223776  84.6795940
  36.3108201 103.1148592  84.5655155  34.9002834 102.5833491  84.4281673
  16.6085712  37.8200531  78.7033701  16.6597358  38.2300282  77.8399277
  16.1554996  36.9912100  78.5484934   7.1091839  44.8330972   7.4979898
   6.9407841  45.6158827   6.9734689   6.3276669  44.2931298   7.3801442
  19.0074150  13.6127996  76.0728407  19.3881313  12.7346563  76.0605288
  19.7513954  14.1983950  75.9321022  89.1844654  45.7821226  84.8185730
  89.9023914  46.3912487  84.9911404  88.4689999  46.0916328  85.3740311
  73.5481262  15.5478060  44.3003607  72.6863194  15.2995157  43.9658928
  73.4071922  15.7020092  45.2344847  71.3851786  17.8246486  74.0920782
  72.0592642  17.4507058  74.6595335  70.7039928  17.1532071  74.0547848
  52.3770805  83.5146633  89.2166042  52.7712627  82.6924196  89.5077515
  52.5480266  84.1283933  89.9309921  79.7446537  17.1446824  72.0522642
  79.3994617  16.7547321  72.8553915  80.0125885  18.0266750  72.3102045
  18.5199924  96.5002159  77.1661663  19.2647691  96.5819344  76.5704632
  18.5455556  95.5889383  77.4579763  21.1584183  85.5817584   3.5838720
  21.9089504  86.0683254   3.2430288  20.5270954  86.2574891   3.8309690
  13.2412812  76.8826798   5.0983259  12.3551937  77.1046332   5.3843519
  13.3247372  75.9468822   5.2814885  51.9120499  81.9228748   2.9517480
  50.9728047  81.7598871   2.8652307  52.1342465  81.5879349   3.8204690
  86.1504173  18.5310280  72.2304678  86.8287373  17.8613973  72.1426201
  86.3632488  19.1773105  71.5572262  61.9144106  28.3864975  88.0957222
  62.3745108  29.0832186  88.5638237  61.2407780  28.0908418  88.7081242
  94.6434689   3.8342068  87.8819561  93.7297440   3.7386870  87.6132298
  94.5959759   4.1553590  88.7824249  13.5639282  68.1374160  12.9955121
  12.6965424  67.7394227  13.0694314  13.5329052  68.6285857  12.1745225
  22.6399609  76.5323237  51.7122480  21.7640396  76.1795310  51.5556356
  22.5454518  77.0668010  52.5006887  31.9719406  58.6525814   4.0404054
  31.2033268  58.1019966   3.8910028  31.7885300  59.4568012   3.5547944
  93.5053921   3.2781997  60.2437210  93.6501598   3.4967989  61.1643124
  93.6216545   4.1072100  59.7795486  26.3241954  88.7137858  65.0853968
  25.9188743  89.4820098  65.4876137  25.9294172  88.6628393  64.2148876
  36.9707009  69.3883316  17.3232957  37.0974632  70.0158433  18.0349084
  37.7175995  68.7936954  17.3924371  66.1369605  79.2769066  81.6583443
  67.0061965  78.8773028  81.6269112  66.0405441  79.5696012  82.5645828
  65.3111930  95.1248637  70.0228453  65.9877200  95.7583830  69.7836971
  64.7915740  95.5704502  70.6919384  78.9287758  22.7396584  69.7579241
  78.1998825  22.8830194  69.1542768  79.4669151  23.5268950  69.6748877
  58.0179024   6.4486766  54.2269754  57.3218250   5.8601922  54.5191956
  58.4047270   6.7826128  55.0363493  67.0362659 104.3558111  90.1402760
  66.3186259 103.7903996  90.4258156  67.8288932 103.8662945  90.3601551
  83.1681347  38.3403420  88.7428856  83.1699562  37.8275061  87.9346657
  83.5758972  37.7665663  89.3915367 105.1626973  95.4869536  12.6347276
 104.3674950  95.4832820  12.1019384 104.8480372  95.4072122  13.5352060
  56.2234879  19.7078872  63.9474678  56.1543226  20.6617260  63.9879608
  57.0994711  19.5168185  64.2826939  81.5983872  69.8938624   9.4176027
  82.0498042  69.5355872   8.6533471  80.6828074  69.9591640   9.1461679
  13.7874742  96.9660518  75.5785990  13.2951780  96.6759584  74.8106623
  14.5131726  96.3455633  75.6463146  89.6446705   1.0318469  49.5734549
  90.1356506   0.5768066  50.2576399  89.4526863   0.3540867  48.9253712
   9.3471333  70.9994809   4.5150586   9.4247338  71.4563695   5.3525945
   8.5029408  70.5509786   4.5642015  14.8937503   0.1168877  58.3976936
  14.2187110   0.7950073  58.4243870  15.4711620   0.3817757  57.6816893
  77.1259832  23.4788370  67.9064989  77.8304911  23.9515257  67.4632597
  76.3292551  23.9466286  67.6562500   6.6958901  98.7049607   1.2459489
   6.9938370  99.5932273   1.0498735   6.1124130  98.4824351   0.5205079
  86.2386036  16.2905073  81.9019032  85.4305553  16.8005979  81.9575500
  86.0753345  15.6588149  81.2015247  79.4010401  64.5765114  80.1887989
  80.0981045  64.3001509  80.7837391  78.5974312  64.2492867  80.5929947
 109.3749718  61.3246969  16.3611337 109.2795234  61.9727156  17.0591279
 110.0761084  60.7477961  16.6641542  98.6930180   3.6574394  54.0770674
  99.2739964   2.9743370  53.7423134  99.2154598   4.4583493  54.0343189
  81.5248013  53.2089138  78.9582682  80.9280300  53.3217335  78.2184267
  81.9533825  52.3688650  78.7943411  89.6127319  18.8859284  77.5314522
  89.7328949  19.8350024  77.5638580  88.7415218  18.7675893  77.1530056
  76.7123508  14.2564809  69.3772745  76.7746973  14.5432079  68.4661627
  76.7280960  15.0676239  69.8852444  24.4107766  70.6972066  62.8537846
  24.7470327  70.3613463  63.6846638  23.5595365  70.2718416  62.7504110
  47.4484110   5.3239918  70.5374002  48.2486343   4.9868694  70.9401751
  46.8081141   5.3341603  71.2488413  13.2346817  59.2378662  25.0716611
  13.3840176  60.0442997  25.5652162  13.2315346  58.5480300  25.7352563
  88.7437820  26.1858034  77.9742241  88.7117958  27.0999765  78.2561779
  89.5768738  25.8593082  78.3142185  37.8865429  81.9363789   8.8999196
  38.5410401  82.5901584   8.6541005  37.8932282  81.3076428   8.1782075
  83.5417271   2.7185634  83.6075497  83.9428520   2.1489485  84.2639542
  82.6018906   2.6551729  83.7775993 106.7072392  11.1663353  75.2419806
 106.7446232  11.0337245  76.1892128 106.3491917  10.3473806  74.8994255
  74.3323326  13.5763228  55.0596189  75.1360083  13.9176488  54.6674013
  73.9740181  12.9863203  54.3964911  80.9964466   5.1813883  45.4073954
  81.2137318   6.0147834  44.9896955  80.8699036   5.4018164  46.3302326
  74.0451527  11.8641436  89.3584919  73.3066368  12.1278203  89.9073982
  73.8033628  12.1508098  88.4778118 110.5642605  12.1841598  24.0880251
 111.1974621  12.7168381  23.6068416 110.6458950  12.4767041  24.9957609
  79.7296333  22.0325255  37.9679799  79.5247698  21.2803626  38.5234189
  80.6456375  21.9054294  37.7209616  48.0972910   9.8650020  75.6506109
  48.3630276   9.3288416  74.9035215  48.1130457   9.2633164  76.3948965
 102.3781018  44.9393056   9.3532583 101.4804845  44.6181718   9.4392129
 102.4957042  45.5247543  10.1013490   7.6095668  24.6509457  71.4324713
   6.7698852  24.2407584  71.6396236   8.1805412  24.4093513  72.1617508
  43.1978698  89.3031303  62.1412897  43.2565589  90.1038936  62.6624107
  42.6057286  89.5273903  61.4234400  98.2160282  37.6143527  73.6806011
  97.6262951  38.3330560  73.4527540  98.1420040  37.5361490  74.6317244
  93.4916401  11.0361814  76.2948751  93.0543137  10.3136384  76.7453337
  93.7206078  10.6797659  75.4365206 107.4071673  79.0374557  66.4851618
 107.2825078  79.2651931  65.5638409 107.9911140  78.2792154  66.4675617
  97.4099827  14.3296325  67.5565481  97.2672653  13.4782445  67.9700708
  96.7931271  14.3469131  66.8248224  25.6726071  65.4370216  21.9549199
  24.7369858  65.2809016  21.8265554  26.1023613  64.7888473  21.3968679
 102.4206881  76.3149504   1.7019292 101.9158940  77.1114091   1.8664476
 103.0931048  76.3125590   2.3831674  63.5974217   0.7316339   1.4042779
  64.2540265   0.7562626   0.7082197  63.0066205   1.4570845   1.2020036
  11.8965813  61.0477046  12.6615735  11.0678478  61.4173750  12.3569986
  12.5664040  61.5288160  12.1756669  27.3345467  86.7635898   2.7739831
  26.9336983  86.5364794   3.6130163  26.9520375  87.6112989   2.5474569
  60.6214519 104.4576537  38.8313246  60.2370162 104.9295566  38.0925798
  61.5045924 104.2328383  38.5384750 101.3297896  56.3251711   0.6828710
 100.5834346  56.5985543   1.2162038 101.2612538  55.3711350   0.6461355
  20.1494880 103.3864846  64.4243288  19.9343295 103.3676272  63.4918118
  19.8007102 102.5637092  64.7672939  48.2394501  79.5946840  21.3420888
  47.3849198  79.6119265  20.9111615  48.0891224  80.0146107  22.1890184
   1.1999556  57.5468866  16.3135263   0.9749504  57.8100959  15.4211541
   1.4659926  56.6309161  16.2331888 100.1309872   9.4646603  58.8790894
 100.5641842   8.6162210  58.9724970 100.7516479   9.9969846  58.3814526
  13.1709286  69.4260422   5.9170171  12.4816223  69.4144360   5.2529832
  13.6934944  68.6453620   5.7334634  95.0625229  18.1673205  62.4965954
  95.1361275  17.2357261  62.2893620  95.2858829  18.6128533  61.6793776
 106.8626551  67.4550442   0.3217527 106.3959126  66.8777601   0.9260007
 106.3959651  68.2888404   0.3784295 101.4758015  40.8582926  82.2492790
 101.5897465  41.5054512  81.5532589 102.0228195  41.1789370  82.9663467
  67.8781605  53.6827660  90.6440639  68.7127256  53.3422184  90.9661865
  67.4081898  52.9093552  90.3323078   0.8520595  36.1854744  85.7076836
   0.7409088  36.4484906  84.7940731   0.8223716  35.2289605  85.6868744
  71.5790606  10.9018660  54.3488359  72.2669458  10.3403640  54.7062778
  70.9851980  11.0509944  55.0845814 107.2484875  33.8260341  86.1822224
 107.2019196  32.8740096  86.0944080 107.0188046  33.9937758  87.0961952
  61.2817765  11.5653503   5.8465024  62.2206880  11.5404880   6.0310670
  61.1506463  10.8904446   5.1805135  15.8989612  33.6953378  71.3300180
  16.8401424  33.6947560  71.1556435  15.5425731  34.3402839  70.7190609
  27.8499790  92.5819901  12.7070066  28.1661221  91.8029312  13.1645509
  28.5655495  92.8205375  12.1176931  36.1108967 102.5361518  17.8071615
  35.7288548 101.7749862  17.3702356  35.4501721 103.2224444  17.7140161
  76.8880458  94.4192151  65.3270912  77.6525397  94.4496063  65.9022903
  77.1329303  94.9577210  64.5745802 106.8026738 100.4113654  24.8789617
 107.7467112 100.3036050  24.7631475 106.7046647 101.2925509  25.2397176
  63.6491966  28.1314230  73.1670952  63.5568953  27.3070526  73.6447191
  63.2244968  28.7814140  73.7268925  79.1907120  18.7867546  76.1286163
  80.0117397  18.6994076  76.6128778  79.1914940  18.0475235  75.5205297
  34.0239711 103.3414907  63.7069464  34.4274802 102.9405079  64.4767666
  33.7570615 104.2119369  64.0024376  70.3607368  42.1383524  90.3479099
  69.4843912  41.7629910  90.2621555  70.4678774  42.6779413  89.5645905
 109.4094806  91.1700062   5.4502794 108.9535289  91.4744238   4.6656343
 108.9143519  91.5482501   6.1769220 100.9938812  11.3184321  62.7739429
 101.1641121  11.6894257  61.9081402 100.1577091  10.8623469  62.6789045
 101.2556362  17.6546037  68.1921196 101.2950706  16.7049992  68.0784178
 102.0557880  17.8719962  68.6703730  16.8010036  26.8201661  86.6481686
  16.8583290  25.8798718  86.8178463  15.8616535  27.0030951  86.6281128
  17.7561852  99.6509723  12.5033685  17.9650875 100.2725009  13.2007142
  18.4278675  99.8023967  11.8384286  39.3494793  78.2775716   9.5208188
  39.9916931  78.9534430   9.7376081  38.5058399  78.7283377   9.5571061
 104.5959906  85.9502105   5.9189721 105.3714948  85.7516960   6.4437696
 103.9825063  86.3456396   6.5382501  21.7725750  78.0150370  18.9290544
  21.1109825  78.6370782  19.2317029  21.2838455  77.2100429  18.7576982
   3.0053660  73.8887123  17.6204892   3.5863634  73.3644227  17.0693132
   3.5070559  74.0398053  18.4215566   9.8922154  92.5916127   5.4578611
  10.6620594  92.0228294   5.4496881   9.2456528  92.1121339   5.9758207
 109.7097111  32.0137167  57.9035234 109.9092865  32.6484823  57.2154284
 108.9626598  32.3909974  58.3680725  71.7184639  26.4504528  56.9258308
  72.5788021  26.5265512  56.5132046  71.3783836  27.3451281  56.9373703
  81.8894386   2.3817044  65.2573824  82.6871014   1.8670808  65.1343727
  81.6694641   2.6958695  64.3803692  41.8851563  63.7904076  18.1920644
  41.8787667  64.0573279  19.1112729  42.2653099  64.5366732  17.7285978
  12.1314994  15.2075326  55.0787926  12.7602474  15.0806975  54.3682909
  11.4695255  14.5309544  54.9364376  84.4480996  80.2823905  15.6910631
  85.4051022  80.2628950  15.6917306  84.1898064  79.3661217  15.7908937
  65.5769254   3.0122888  20.8396837  65.4619599   3.9438475  21.0273286
  64.9020673   2.5778330  21.3612577   9.6329304  91.2738089   1.7168351
   9.6633049  91.9680861   2.3750802  10.4724690  91.3384489   1.2616273
  80.0885963   3.6830112  86.8258476  79.3137503   3.4753734  87.3480797
  80.6769180   2.9408216  86.9646549  20.9489056  92.1972612  13.4032747
  20.2127262  91.7037395  13.7648031  21.7254254  91.7486099  13.7378808
  56.7326065  83.7000422  30.7382222  56.0554787  83.1314067  30.3716298
  56.5664097  83.6934332  31.6808626  19.6147534  76.5919594   0.8574411
  19.0414234  77.3523907   0.7611963  19.0205952  75.8415250   0.8497163
  12.7045342  91.6316847   4.9394723  13.2485195  91.3890413   5.6887552
  12.5987240  90.8178715   4.4467756   8.2363216  56.8963385  85.7302856
   7.5828449  56.4623213  85.1817894   9.0385143  56.3931179  85.5907249
 102.3318577  31.2899017  60.2126980 101.8797684  32.1130514  60.3978062
 102.1850491  30.7552791  60.9929895  27.3076912 101.9787244   9.9060365
  27.3069760 101.1110429   9.5018598  27.1552750 102.5819186   9.1786023
  60.5250740  30.8407474  81.6720867  60.7252693  30.1249456  81.0689449
  59.6172333  30.6868148  81.9335556  28.9670845  79.8238400   3.5182115
  28.8764855  79.1301803   4.1715642  28.1447026  79.8009280   3.0289480
 100.0974274  42.3111486  69.0520859  99.8843575  42.4070978  69.9803257
  99.8177528  41.4223814  68.8327694  90.3691292  32.7100658  65.1263666
  90.9482193  32.0960426  64.6748447  90.4152679  32.4503350  66.0465002
  89.5685153  63.4291212   5.8882066  89.3871598  64.3318514   6.1497804
  88.7089543  63.0084554   5.8675691   1.0952040  87.2151641  12.5306150
   1.9380327  87.6159696  12.3179647   0.9109398  86.6376142  11.7898675
  47.8015996   0.6764877  17.9409334  48.3702184  -0.0928557  17.9727289
  48.3778478   1.3889444  17.6641961  15.0256916  67.2566930   2.9878160
  15.3029724  67.0018629   2.1078130  14.1088101  66.9863752   3.0377218
 110.7198334  16.9862509  81.5653324 111.1203384  16.3352668  82.1415615
 110.9243488  17.8268492  81.9749641  17.8150841  52.9030591  21.2019655
  16.9455811  52.5613627  21.4103814  17.8075691  53.7988401  21.5392324
  68.0336952  46.8064690  88.8442135  67.9684544  46.9919157  87.9074192
  67.1326208  46.6347075  89.1176987  54.2210957  85.8809356  14.0148946
  53.4836193  86.1068849  14.5817300  54.2406269  84.9239377  14.0173169
  10.5728332  16.0855579  44.0986300   9.8526756  15.7690072  44.6439791
  11.3505641  15.6578457  44.4569969 103.1182098   6.1884314  71.2450790
 103.7211514   6.6147774  71.8541145 102.8682709   6.8798161  70.6320953
  24.1720101  84.8194531   6.3383600  23.2978340  84.7270087   6.7171689
  24.7106358  85.1506642   7.0569726  63.8935562  82.8348140   4.5102426
  63.5410115  81.9522313   4.6242162  63.3731838  83.2107452   3.8002225
 105.2853350  58.9764772  18.4738847 106.0021214  59.4205407  18.0208322
 104.9239116  59.6414582  19.0598890  59.3864436 103.0834236  88.5912323
  59.4894595 103.8968916  88.0973816  58.5729881 103.2022641  89.0815353
  91.2347317  14.6758127  56.1800909  91.1774254  15.5281353  55.7482386
  92.0603943  14.7071910  56.6633368  50.8778715  29.1542125  82.4359035
  50.5838823  29.3276978  81.5416431  50.5269957  28.2872057  82.6394272
  20.9555046   5.8360046  69.4744873  20.4963867   5.0570875  69.1602707
  20.2738658   6.3648528  69.8891163   4.3434993  55.3826809  71.9611216
   3.5053340  55.4156113  71.5000057   4.8164550  56.1560678  71.6538525
   4.1768733  17.7733862  82.3152447   4.7127811  18.5645342  82.3710632
   4.7436897  17.0763457  82.6455212  38.2819554  72.4508552   1.4536783
  37.6527878  72.1301190   2.0998308  38.0412861  73.3675460   1.3195535
  57.6262280  51.7634528  13.8757917  58.2434937  52.4646697  14.0843889
  57.7581688  51.5980720  12.9422590   2.4537937  18.8637245  89.8513126
   1.8976394  18.1133807  90.0608730   2.2665874  19.5006168  90.5409241
 101.6089249  53.1323719  87.1589088 102.2777367  52.4654818  87.0033932
 101.3899422  53.4599638  86.2865734 101.3310528  69.5498371  84.8474121
 101.8768787  70.0370312  84.2302036 101.0263729  70.2097034  85.4702854
 109.5056825  71.5542594  10.7341691 108.7777619  72.0729629  10.3916570
 109.0943675  70.7597212  11.0744115  85.2161503  10.4643965  67.7413273
  85.5473709  11.0321045  67.0454645  85.7108402  10.7244587  68.5184240
 110.7378674  24.2829156  62.4042177 110.1400185  24.6696234  63.0439568
 110.5181599  24.7154522  61.5790701  13.8644787  60.1181517   6.0888025
  14.7740265  60.4155050   6.1120721  13.8228604  59.5336834   5.3318998
  26.1339852  42.7794818   3.2787629  26.8515011  42.1686486   3.4469434
  25.4227730  42.2291080   2.9508897  69.9063873  72.5286007  75.1470900
  69.0675974  72.9129553  74.8922586  70.3739595  72.4048567  74.3210793
 100.4914188  32.4637747  76.1804628 100.8127975  33.1983399  76.7033005
  99.9571514  31.9527054  76.7884016   2.8923122  38.5619593  89.5440483
   2.1764270  38.3080268  90.1264954   2.8345672  37.9481435  88.8118362
  80.0153828  44.7680616  76.8604279  80.0382519  44.8089695  75.9043741
  80.9124756  44.5489264  77.1123075  23.5502907  90.3372745   1.9447156
  23.3333012  91.2586168   1.8023416  23.6160752  90.2509026   2.8957387
  90.9078312  33.6571693  72.7461290  91.2074661  33.1179023  72.0142555
  89.9837494  33.4296179  72.8487253  75.9824944  53.2406235  73.4461164
  75.2502823  53.8560486  73.4094286  75.9329939  52.7599525  72.6198387
  88.9608860  29.6753669  60.9479952  88.9025021  28.7316489  61.0970688
  89.7000885  29.9576521  61.4866304 100.8301544  14.7214544  71.1983585
 100.6025887  15.3560936  71.8778276  99.9926662  14.4896579  70.7969618
  10.9226695  45.9557295  76.6874218  11.8774120  45.9242010  76.7482471
  10.6868545  46.8052769  77.0601034  19.3206021  71.2012581   8.4506723
  19.1652199  72.0400599   8.0165120  18.8531204  71.2721244   9.2829439
  50.9683129  88.0851487   4.9090596  50.0380417  88.1166128   4.6858426
  51.0353752  88.5789994   5.7262822  14.0668198  82.5834540  35.7614538
  14.0543076  83.5045938  35.5015012  13.5270878  82.5501303  36.5512677
  78.4456539  20.8207250  56.5281439  78.5645342  20.4884171  55.6383848
  78.4969854  20.0426292  57.0832729  97.7455239  63.3361367   3.3952733
  97.7442651  64.2808382   3.2410928  98.4330325  63.0004910   2.8200265
  81.7873287  48.0544376  77.9139757  81.1719322  47.5696468  78.4639692
  82.1392632  48.7335157  78.4894991  66.1649800   2.7403868  67.0301648
  66.0836125   3.4735573  66.4201852  65.6445981   2.0410097  66.6348001
  35.4978749  88.5735015   1.2456342  35.8285805  88.8192014   0.3816339
  34.6774193  88.1142143   1.0663244  88.0187607  56.2565517  78.7680483
  88.3320999  56.8924093  79.4112635  87.3528004  56.7292452  78.2687473
 100.2962589  43.6746883  82.5927544  99.8217869  43.2237482  81.8943501
 101.2187958  43.5788202  82.3561764  35.7181641 101.9687919  11.4493104
  35.4988190 101.3961820  10.7142946  34.9796482 101.8789605  12.0515939
  82.4575043   9.0588731  59.9959564  83.3082390   9.4882083  59.9056625
  82.6552010   8.2212573  60.4149389  89.3066692   7.2541082  90.3407288
  89.5434093   7.6559508  91.1766148  88.3720684   7.0641685  90.4224777
  27.5856110  40.6129722   0.5662462  26.8160912  40.9770338   0.1286050
  27.4371811  39.6673528   0.5644723  23.8216778  71.6369108  34.1440889
  24.5805165  72.2195343  34.1748544  23.3442875  71.8224911  34.9527189
   2.6950546  56.8041460  36.6881486   2.1675822  57.5743560  36.4765283
   2.0671746  56.1731986  37.0401403 107.4581718  38.5324454  68.9179897
 106.7407894  39.1175151  68.6744881 107.4298859  38.5039520  69.8743486
  88.2042694  58.8076735  47.0011234  88.7592506  58.4436321  47.6908302
  87.3582458  58.3765316  47.1219206  89.6129036  30.8263612  78.4202290
  90.5057526  31.0867596  78.6466074  89.2957115  31.5279269  77.8515291
 101.0335159  50.6534910  69.1634655 101.2828255  49.8870659  69.6798611
 101.6732883  50.6813812  68.4520292  98.3775520  39.2842221  76.4699745
  98.5411930  39.9712253  75.8238459  99.1543007  39.2915392  77.0292902
  10.5283252   9.7043020  75.2731752  11.2930576   9.3611670  75.7354403
  10.8941738  10.2508771  74.5777273  13.2910539   4.0739620  20.6363603
  13.9787246   3.6802042  21.1732980  12.9446794   4.7855270  21.1748143
  61.9191262  67.8584568  28.9587804  61.0073277  68.1494133  28.9729043
  62.2692772  68.1265525  29.8083326  26.6617485  73.6171011  15.6721898
  26.3915726  74.4963221  15.9371587  25.8588024  73.0975679  15.7121488
  51.9939418 100.9998695  59.9678564  52.3616595 101.8371115  60.2507687
  51.5584750 101.1974887  59.1386747  81.9794369  24.6552968  49.7643423
  82.3723507  25.1071453  50.5111265  81.1552048  24.3054485  50.1026869
  99.5899396  62.6422016  20.7924577 100.4521994  63.0422906  20.6799051
  99.5046096  62.5190238  21.7378541  29.3371578  76.7561678  20.4084321
  28.4656044  77.1372274  20.3016015  29.2057892  75.8171896  20.2769300
 105.2048874  41.0328007  81.9035625 106.0879612  41.3730049  82.0473289
 104.7320938  41.2461662  82.7080345  47.7056314  23.0339420  14.0937635
  48.4204007  22.7837360  13.5083219  47.9018117  23.9383257  14.3383619
  46.3692374 104.4021771  88.7674713  47.1304412 104.5919805  88.2190418
  46.6173454 103.6191005  89.2588615  79.7828866   6.3957537   2.8733465
  79.9345971   7.0495975   3.5557767  79.4719697   5.6237543   3.3461877
   8.1258389  84.4267801  24.7827169   7.4709603  84.3648414  24.0873548
   8.9377018  84.6508411  24.3278524   9.4870468  43.8460503  41.2215444
   8.9637753  43.1765197  41.6621515  10.2810284  43.9166877  41.7514917
  65.2290344   3.4493667  44.7504663  66.0658169   3.4929422  44.2877245
  64.9161291   4.3538576  44.7652531  77.6552725  60.1951599  89.3906212
  77.9543066  61.0124397  89.7891998  77.1769619  60.4709816  88.6087132
 106.2989521  31.3075948  71.0090733 107.0577240  31.3015151  70.4255772
 106.6723633  31.3886023  71.8867064  90.0420856  58.2700396  82.7407169
  90.5566502  57.9916048  83.4982967  90.3623772  59.1503716  82.5440979
  28.8588616  53.1481745  13.1568166  27.9399964  53.0501989  13.4064504
  28.8321587  53.3624479  12.2242853 102.0029068  52.0004749  66.8794250
 102.5632286  51.8844128  66.1120939 102.1538162  52.9057026  67.1514845
 108.2730865  16.8568563  50.5731201 108.9245129  17.5279117  50.7769966
 107.4399662  17.2409880  50.8462191  22.6265855  98.3800695  39.9692583
  21.7350240  98.0471012  40.0716496  23.1632896  97.7963987  40.5054569
 106.2573528  57.3295736  74.0428114 106.6632938  56.4848375  74.2374086
 106.7249870  57.6478052  73.2706213  15.9731766  44.1933248   6.8722555
  16.4653298  44.9027983   6.4591428  15.5319592  43.7532065   6.1457273
  86.2349701  39.3760705  78.5790873  86.4213467  39.4183969  77.6411629
  85.3513241  39.0118527  78.6314917  16.3218018 100.3709153  15.3636953
  16.0621926 100.3690127  14.4423696  15.4969403 100.4367713  15.8448240
   1.2892715  13.6667860  76.9230556   1.2682716  13.7434745  77.8769445
   2.0621101  14.1663110  76.6595602  72.6268911  17.6581740  54.5160818
  72.6428032  18.0309618  55.3975630  72.0102119  16.9285297  54.5757055
  19.0430065  74.4117812   8.8616964  19.5049854  74.8236708   9.5918676
  18.5106655  75.1142148   8.4882852  30.9382626  65.9402279  13.3328458
  31.8494793  65.7651571  13.0977365  30.6137654  66.5039066  12.6305600
  61.2687774 104.3009461  58.9128113  60.4722114 103.8034890  58.7277269
  60.9729572 105.2083612  58.9857531   5.6514732  16.2615061  86.7779446
   5.9617130  15.3780377  86.9766140   4.9847499  16.4362526  87.4421501
  31.8349162  34.0215445  82.8506851  32.4382297  33.4832740  83.3630466
  31.1938278  34.3357730  83.4882545  83.3323860  17.6569676  60.7070732
  83.9848518  18.3347976  60.8833075  82.8296661  17.9952943  59.9660969
  37.2479244  56.9485245   3.9154931  37.0136830  56.0307927   3.7771722
  37.7721688  57.1800847   3.1488248  14.4673916  61.5482364  16.4948865
  13.7882801  61.2103687  17.0787450  14.7758194  62.3468260  16.9230958
  74.7691727   6.8172318  56.8235874  75.2477169   6.3411552  56.1449289
  75.1199770   6.4777178  57.6469326 107.7394009   8.8554329  85.4794884
 108.5159492   8.2957846  85.4816628 107.1158218   8.3976358  84.9157524
 104.5651436  11.9911814  65.4219294 104.8875523  12.2561097  66.2833786
 103.6800957  12.3528481  65.3758049   3.5993186 102.8894901  60.5499697
   3.5624114 103.8169956  60.7836437   4.3001357 102.8338623  59.9003601
  95.0192833  18.1580877  81.3501740  94.7765160  17.8870559  80.4648209
  94.2821217  17.8832054  81.8953991 101.2446022  28.7972283  69.7502804
 100.5077553  29.3878126  69.9068022 102.0108891  29.3704867  69.7299719
 104.9096870  31.6451192  86.5428448 103.9753914  31.8290448  86.4454365
 105.2438927  31.6214681  85.6461906  68.5764218  16.9249285   6.8498346
  68.6706544  17.6764191   7.4351617  69.3426229  16.3811911   7.0328924
  90.7852650  29.7244334  65.2491379  90.9769630  28.7868810  65.2710247
  89.8309994  29.7725034  65.1916838  32.8007169 103.1096834  86.4438534
  33.0296941 102.2037206  86.2364101  32.4497838 103.0703280  87.3335266
  66.2405106  80.3110460  29.7972795  65.5969425  79.7954587  29.3112584
  66.0380265  81.2194208  29.5734807 109.1495705  46.0878468  63.7155199
 108.8265324  46.2003565  64.6095133 109.4268227  46.9643736  63.4489441
  56.8515487 102.8465914  77.4686337  57.5660510 102.5384671  76.9111538
  57.0997329 102.5700885  78.3507824  21.2626262  90.1670519  71.8022251
  20.5145164  89.6349314  71.5312815  21.4994807  90.6637088  71.0189867
  95.5779743   8.2996827  74.6035528  95.3740597   9.1761333  74.2772293
  95.3991795   8.3461976  75.5427551  86.0714531  16.8530250  65.7298088
  85.3247452  16.8370879  65.1311398  86.1515713  17.7711463  65.9883928
  53.3999344  47.2521792  24.9789735  53.2037255  46.4367793  24.5176050
  53.5442444  46.9850002  25.8867284 106.5205002  33.6051083  75.4177666
 107.3071384  33.9035368  75.8742428 105.9709549  33.2315755  76.1067533
  26.8080517  58.4101210   7.5817987  26.6027256  57.6459447   7.0431825
  27.2461029  58.0491791   8.3525583 105.2863979  20.9208751  53.8296223
 104.5391083  20.3447700  53.9905119 105.0001812  21.4907432  53.1157875
  57.9821825   4.3346509  67.2545624  58.7844944   4.8070019  67.0322704
  58.2797813   3.5892782  67.7761793  40.5594345  89.0758804   4.0063115
  40.4467674  88.8830046   4.9370881  39.8406025  89.6721343   3.7965509
 107.5673103   3.6546627  80.4110146 107.0637035   3.0833805  80.9908772
 107.7610683   3.1104589  79.6477747 111.1241341  17.0206976  78.4886932
 111.5592766  17.4957323  79.1966581 110.6694221  16.3014054  78.9269733
  11.6029731  60.2339268  80.4872417  12.1882717  59.5143032  80.7234573
  10.9672347  60.2700329  81.2019157   4.5039073   3.3398616  90.9433174
   3.5491744   3.2815915  90.9070587   4.7334567   3.9496499  90.2421093
  76.9294734  98.4915826  72.3222065  77.7591319  98.5659287  72.7937746
  76.9706912  97.6341531  71.8987131 100.4850101  45.4881477  51.5919447
 101.1041451  44.8149204  51.8742180 100.5287552  46.1558867  52.2763729
  75.9281158  31.2232685  89.6444798  75.4705906  31.9994664  89.9676132
  75.4794502  30.4889417  90.0636387  46.7524334  68.4013168   1.6897126
  46.2963577  68.3813647   2.5310346  47.2852894  69.1957096   1.7249128
  93.1792407  75.5501679  40.7841798  93.0230050  74.7706250  40.2511426
  94.0038066  75.9057025  40.4526540  11.2908164  26.6229749  71.6397667
  11.8785755  27.3252845  71.9182158  10.6594554  27.0534635  71.0633135
 106.5812778  29.4033051  66.8948698 107.4114037  29.3323302  67.3661280
 106.0554600  28.6747241  67.2248888 107.9092884  18.1345952  78.7544060
 107.3772812  18.8920653  78.5106039 108.3072853  17.8470027  77.9327488
  86.7036533  48.8666868  62.6670361  86.4134407  49.7030640  62.3030663
  85.9346104  48.5238361  63.1222963 110.4607773  21.4289021  76.2660933
 109.8675060  22.1793294  76.2325907 110.1305485  20.8323359  75.5943060
  14.9011799  65.4303411  30.7098028  15.7443711  65.5750600  31.1391088
  14.7409149  66.2362770  30.2188608   2.7692405  16.4959133  57.9249001
   2.9280178  16.5628922  58.8664627   3.5586254  16.0803890  57.5778532
  15.3522106  78.7125401  11.8841382  15.6555172  79.0737704  12.7170488
  15.8814522  77.9250483  11.7576906   0.1668350  37.1097016  68.2200289
   0.3548328  37.8910732  68.7399817  -0.0065716  37.4436808  67.3399067
  95.4496861  18.3208609  87.0084953  95.6392002  19.0539098  86.4228630
  96.3002872  18.0829382  87.3774147  22.9905220  88.4077910  40.9238931
  22.2042748  88.9417795  41.0374662  23.3868214  88.3767585  41.7946550
  79.6456814  32.7321053  88.1326580  78.9096212  32.3374391  88.6003017
  80.3075790  32.0413518  88.1012630  94.6842480  23.2551551  82.0697117
  95.1153851  23.6744118  81.3250160  94.5734978  23.9585185  82.7094364
  31.0584251   0.1483148  60.2231741  31.7595951   0.6622419  60.6237698
  31.4998714  -0.3844763  59.5617390 107.1051602  88.5965590   8.8088628
 106.4212804  88.1375746   9.2965909 106.9957738  89.5161823   9.0508481
  21.5732666  79.0348414   0.9440824  21.6150089  78.4512595   0.1865026
  21.5195366  79.9130849   0.5672094  91.4076900  50.4369450  90.2686977
  91.9964409  50.9652662  90.8076668  91.9551754  49.7204113  89.9476624
  77.3759270  43.9994478  81.6136074  77.3084307  43.2504940  82.2058487
  76.4685154  44.2483759  81.4378834  82.2133255  41.3923645  76.4148760
  82.8815746  41.6773081  77.0381546  82.2675610  42.0257998  75.6993008
  10.3580371  30.9006429  82.9819393  10.2667324  30.2764106  82.2620583
  10.6148235  31.7194414  82.5578403  68.0734916 101.4459610  62.4350214
  67.6977725 100.6101159  62.7114820  67.3921485 101.8483893  61.8964624
  82.5961399  72.0190620  85.3204918  82.0040512  72.0601130  86.0714722
  82.0326424  71.7822027  84.5838737 107.5504112  35.9024382  54.5592690
 107.9503250  36.7492557  54.7572756 106.6091251  36.0582018  54.6363544
  92.1441269   8.7931156  71.6476679  92.2110367   8.7602317  70.6933737
  92.7822590   8.1491661  71.9548368  27.8595635  48.0174241  16.2049791
  28.4758469  47.9696090  15.4741308  27.8332134  48.9460284  16.4357015
  53.4548564  98.0100593  72.9464579  52.6101489  97.9585162  73.3937311
  53.2714935  98.4984109  72.1438837 103.1499577   6.7131418  51.0337210
 103.0859375   7.1305943  51.8927097 103.1924629   7.4426520  50.4154634
  66.5277052  21.2872434  83.7879276  66.0660219  20.4632807  83.9433670
  67.3713732  21.1754060  84.2260456  93.6409850 104.7871641  64.2165327
  93.0451865 105.0091050  64.9320745  93.1718249 104.1230584  63.7114716
  12.6899330   7.4560481  44.0397739  13.4552757   7.5398964  43.4710455
  11.9804470   7.8711647  43.5493231   1.1789080  69.6431569  27.8222867
   1.4846178  69.4571976  26.9344827   1.4718434  70.5381218  27.9939290
  93.6842442  35.0401616  47.9013062  93.9761448  35.8100915  47.4132204
  92.7341080  35.1400757  47.9603863 108.8891315  45.2139711  58.4651899
 108.5960388  45.5924463  59.2940950 108.5700321  45.8218765  57.7982140
 102.6358128  45.6603575  72.2444391 102.9537010  46.4983463  72.5805283
 102.9439926  45.6331635  71.3386154  96.1652184   6.8805999  53.7133074
  96.9838524   6.7900831  53.2255888  95.5220795   6.3987523  53.1932831
  90.3277969  70.7494640  49.6989775  89.5559025  70.8068562  50.2621126
  90.7004356  69.8887920  49.8903513  91.3316345  59.2974615  65.7804441
  92.1045876  59.7482443  65.4404831  90.5966473  59.7007895  65.3185368
 110.6707096  67.1813917  74.2484713 109.7326279  67.2588968  74.4223166
 110.7471371  66.4109659  73.6855888  15.4978653  81.9326405   1.9859144
  16.1042782  81.3393811   1.5425798  15.4242226  81.5808562   2.8730699
  96.5145588  11.9814587  87.9547310  95.6147671  12.0715630  88.2685375
  97.0506668  12.3554194  88.6539936  24.4963828  64.7870159  58.9930296
  23.6938087  65.1369715  58.6061954  24.2347614  64.4984102  59.8673820
   3.0786220  34.2421556  60.4989719   4.0034381  34.0796661  60.6848383
   2.8481761  34.9828935  61.0597181  88.9141273  26.7559624  84.8175240
  88.6154938  26.6859508  85.7242489  88.1106949  26.7285180  84.2979431
  56.2305827 100.4113889  88.4855843  55.6948753 101.1825833  88.6713600
  56.7985339 100.6823776  87.7643108  18.4208866  63.9800147  27.4828264
  17.6774403  64.2584149  26.9480153  18.0232998  63.5600940  28.2455941
   3.8892929  59.2328167  50.1487589   3.5214321  60.0478935  49.8073530
   3.5296241  58.5513496  49.5808935  28.1542870  65.1317064   8.8418599
  28.5037419  64.3434159   8.4262773  27.2353646  64.9251513   9.0126058
   6.2367622  46.1428356  50.3475285   6.5889160  45.2815533  50.5720472
   6.6497222  46.3599968  49.5117426  32.5532051  78.8912276  19.2058965
  31.6304108  79.0301875  18.9928933  32.8940483  78.3799199  18.4719869
  36.8234440  87.4715618  13.0449601  35.9041210  87.3970155  13.3009073
  36.8450733  88.2160977  12.4437734  27.3053924  73.8637209  83.8927841
  26.5830318  74.4891500  83.9499664  26.9564907  73.0591154  84.2763329
  65.1621243  62.8808776  11.9332620  64.3549153  63.0016164  12.4333402
  65.4006287  63.7625579  11.6469213  12.6557437  33.5723948  69.8579264
  13.0364314  33.1149244  69.1082382  13.3111087  34.2280173  70.0964499
   2.6510040  32.6799178  86.0498810   2.2225181  31.8768883  85.7536030
   1.9642822  33.1617665  86.5108204  26.7226502  85.5758957  17.6667234
  26.8470284  85.1003555  16.8453714  25.9679886  85.1529721  18.0764314
  96.5469742  40.5992031  66.0485220  95.6656742  40.7553625  65.7091713
  97.0565605  41.3511801  65.7467270  26.7840573  82.6698903   6.8745633
  26.5113732  81.7561082   6.7916223  26.9851967  82.7763657   7.8043195
  85.5322266  34.0932298  84.3955231  84.5797634  33.9992189  84.3811417
  85.7013035  34.7100115  85.1077175 101.1323738  75.4909182  65.9241676
 101.5749168  74.6702766  66.1408043 101.7816257  75.9894228  65.4279852
   1.5247723  95.4259328  27.4588128   2.0339485  95.5833129  28.2539293
   1.9426533  94.6662501  27.0532438  19.9616138  50.7805204  74.9050999
  19.1816417  51.2850094  75.1361370  20.6847469  51.4003420  75.0006199
  85.4101945   5.7741249  16.4282533  85.1214028   4.8656500  16.3416120
  85.6143189   6.0469044  15.5337354  38.5380265  85.7029490   4.0365049
  38.5278603  84.7522143   4.1471025  39.2231461  85.8612088   3.3870527
  29.0147392  34.9353790  70.1228285  29.8380748  35.0458193  70.5983925
  28.3363143  35.1190209  70.7726383   0.5017082  13.8823485  82.0037746
  -0.2209481  14.1478443  82.5725555   1.2570373  13.8218248  82.5886250
  60.5362798  45.9412086   2.8964635  60.8847047  46.7837513   3.1879255
  59.6037961  46.1039341   2.7542135  12.1639530  78.9746761  85.2445698
  11.8640224  78.7604284  86.1279583  12.0583431  79.9237967  85.1793861
  54.6976466 101.0268227  81.7033958  54.8553558 101.9182533  82.0143795
  54.2231746 100.6039030  82.4191093 108.0725861  57.7531958  67.8858042
 108.0035686  57.8703642  68.8332939 107.5171471  58.4407282  67.5183582
  81.3929272  58.8367701  70.4355717  82.0665836  58.8026428  71.1147308
  81.5331268  58.0431652  69.9190712  88.4221649  34.0458870  62.5113440
  87.6807785  34.4317889  62.9778719  88.2590008  33.1031442  62.5404358
 104.9905968   0.9828201  67.9295444 105.2245235   1.3676344  67.0848942
 105.1202393   0.0422158  67.8083420 110.3232574  31.2651944  78.3495760
 110.3408146  30.8103776  77.5075197 109.3983746  31.2775302  78.5958910
  95.0180722   3.9202917   3.6409398  94.7685720   3.5827911   2.7806588
  95.9529019   3.7272585   3.7120458  84.4590759  36.5346408  82.4627495
  83.8271141  36.4906645  81.7451668  83.9513397  36.3119674  83.2430363
  95.8769512  39.2550492  70.7043839  95.6197166  38.8954329  69.8554230
  96.2988949  40.0880098  70.4937410 109.1709995  34.7129893  88.8851357
 109.2359924  35.6535029  88.7194729 108.3596039  34.6129966  89.3830013
  96.9140911   3.8090709  69.4637060  97.3466969   3.1141779  68.9675140
  97.6227760   4.2372105  69.9440193  22.3927490  39.3827319  38.6581802
  21.9461910  39.2850232  37.8171849  22.7025882  38.5018516  38.8686109
 101.9973469   6.4087170  80.7456589 101.7473221   5.7178330  80.1321411
 101.5080929   6.2088966  81.5437412   7.8787605  30.0279951  90.4250145
   8.4596721  30.6356025  89.9672031   8.4358875  29.6152759  91.0849476
  36.6945926  41.2155104  83.2790852  35.7756511  40.9645748  83.1852341
  36.9052020  41.0166311  84.1914082  21.8666073   0.2765664  90.1511669
  21.0781475  -0.1316157  90.5088615  21.6430279   0.4728707  89.2413807
  29.9656101  64.5351235   4.5840284  29.5891663  65.2102534   5.1485845
  29.2523285  63.9114038   4.4482156   8.4663955  73.2909155  56.6418076
   8.0300609  73.7818193  57.3381186   8.1711856  73.7089062  55.8328772
  99.3361759  46.9197083  68.1683350  98.9347553  47.4187899  68.8796759
  98.7425613  47.0394325  67.4270487  82.9068757   3.3022297  17.0789071
  82.1769143   2.6836431  17.1062871  82.4909497   4.1642416  17.0922300
  28.8076016  87.4434737  32.6272889  29.2683026  87.6727251  33.4344026
  28.1324383  86.8241815  32.9045316 102.9108429  36.5951777  87.3475266
 103.0842113  36.6779160  88.2852554 102.2441483  37.2580886  87.1678162
  71.4878746 101.3316087   9.8331186  70.6339356 101.7631320   9.8613283
  72.0359799 101.8462447  10.4255410  87.6159669   1.0226763  32.4843427
  86.9080354   0.3880537  32.3733445  87.1695233   1.8526352  32.6519414
  14.1777703  72.1308068  29.2609330  13.6127564  72.8579883  28.9997884
  13.7508389  71.7614047  30.0339147  93.9238930  18.8773429  88.9900684
  93.9794254  18.1000519  89.5459080  94.5438862  18.7091398  88.2804585
 104.6185207   5.8710426  68.4438705 105.1354122   6.2458044  69.1570377
 105.2673244   5.4882193  67.8533316  87.2829914  14.5328677  75.6866837
  86.5906906  14.0304399  75.2571249  86.9072723  15.4051721  75.8056402
 102.1850586  56.0090971  73.9241457 102.2195911  56.9343376  74.1669750
 101.6587067  55.9907246  73.1248665  18.3205124  97.0202950  31.8701288
  17.5989529  96.5817479  31.4192888  18.5074993  97.7891520  31.3314935
   9.6241561  60.9389210  89.6697903   9.6201316  61.8583345  89.9360561
   9.2826549  60.4679394  90.4299164  80.8647728  86.0673618  69.4813013
  80.6337738  85.6357670  68.6587429  80.6879234  86.9946957  69.3231153
  25.3064820  87.9625658  24.3948861  25.8997437  87.2326211  24.2175504
  25.6806275  88.6984424  23.9104005  67.5717069   7.6725758   3.5593149
  68.5215379   7.5546348   3.5711881  67.2242642   6.7998302   3.3753797
  12.7224533  35.7869267  88.0286407  12.3640720  36.1680651  87.2270679
  12.7350322  34.8446107  87.8609753  98.6353588  17.4643254  38.0520296
  97.9778290  17.4494278  38.7474871  98.6657906  18.3787537  37.7707362
  27.6481434  99.5816497  13.8599416  27.2845074  98.7260941  13.6318418
  28.3999058  99.6856145  13.2766172  84.4270515  79.5899963  88.2537079
  85.0413132  79.5785093  88.9877319  84.2277145  78.6675501  88.0937481
  85.7941532  52.1070766  68.9669418  86.3040733  51.3210154  68.7712049
  86.0923195  52.3757744  69.8359251  20.8335964  76.2065315  81.7880344
  20.6282131  75.6498289  82.5391293  21.7493335  76.0117149  81.5888119
  88.6925602  45.5681229  63.5515594  88.2661533  44.7233677  63.6957932
  88.0486012  46.0812187  63.0634212 100.1942158  55.6375933  72.0736122
  99.8720932  56.5373421  72.1276808  99.5647430  55.1268387  72.5826550
  71.3666722  77.0651535  10.0216028  71.9738861  77.6279596  10.5019971
  70.5106827  77.2525004  10.4068395 110.6756306  27.2030044  36.2576985
 110.4868031  27.9552507  36.8186831 110.2461529  27.4095106  35.4275537
  90.7342816  11.3072098  12.5448438  90.4532815  12.1584785  12.8804132
  91.2307550  10.9179962  13.2647439  84.3616963  27.0445860  18.6271306
  85.0992871  26.8562115  19.2073938  84.7655870  27.3877848  17.8300592
  90.5130482  42.5995445  55.8928871  90.6476021  41.6589165  55.7773304
  89.7821236  42.6631975  56.5076494  88.5548592  62.4973249  37.2976422
  89.3273449  62.5779581  37.8570986  88.0009842  63.2374525  37.5459623
  19.8813912  91.2711219  27.6637479  19.1782662  91.8546967  27.9488775
  19.5748135  90.9166864  26.8291112  73.8080592  94.6261409  61.8692350
  74.2249389  94.4472090  61.0263634  73.8606353  93.7963024  62.3434019
  86.2924290  56.1951065  89.3257141  86.4003849  55.7508230  90.1666546
  87.1751213  56.2274647  88.9568710  99.2844963  12.0485330  86.8774891
  99.4996738  12.9785883  86.8072701  99.0176201  11.9326162  87.7893925
  14.6872898  76.3558535  14.5152303  13.8896366  76.8749575  14.4126912
  14.3883606  75.4473285  14.4770356 102.5851059  30.8465934  72.3575735
 102.6746941  29.9833989  71.9537210 102.9287148  31.4542603  71.7026615
  17.0262619  39.1460363  10.9364721  16.7341896  39.1830627  11.8472692
  17.1220013  38.2113854  10.7534524  19.4361583  16.9261611  70.7385778
  18.9965717  16.4605856  70.0270796  19.0287105  17.7922821  70.7457829
  46.5469452  89.7978834   1.6770097  45.7233902  90.2857069   1.6803285
  47.1404358  90.3334478   1.1505433  39.1381642  95.7050113  12.1564122
  38.6191651  96.3266353  12.6667711  39.3561074  96.1776904  11.3531038
 111.0596371  25.1390743  89.7363758 110.6666565  24.2684269  89.6749687
 110.3953743  25.7275271  89.3776131  93.2197475  19.1376090  84.6635056
  92.3726273  19.1504824  85.1089954  93.1730270  18.3787501  84.0819740
 109.1097598  63.3031479  26.5821859 109.4163327  62.4020026  26.6830941
 109.3624978  63.5437302  25.6908532   8.6540595  18.1825018  51.5473700
   8.4849254  17.5911736  50.8139133   8.5207549  17.6422775  52.3262262
  21.1913964  95.3797606  25.8430024  21.3879677  94.4576196  26.0080739
  21.7816063  95.8583859  26.4250776  35.2324673 101.6428832   3.5439416
  34.8203655 100.9167603   4.0120813  36.1653610 101.4285497   3.5429784
 100.2077866  24.4801092  64.5674276 100.5793858  23.7905431  65.1175547
 100.1639366  24.0918303  63.6936140  93.6863232  43.1797838  66.7199993
  94.3570805  42.9108572  66.0923004  94.1232491  43.8252544  67.2755957
  25.7095810  93.8401393  20.8871766  25.3857704  92.9606465  20.6925508
  26.5328976  93.6945657  21.3532087  28.9085957  74.5420245  32.9646989
  28.9680954  75.4823617  32.7960035  29.2416664  74.4370345  33.8559266
  85.2371502  11.5153587  70.8449841  85.9483528  11.6597879  71.4691401
  84.4729805  11.9209766  71.2545490  19.1759678 101.6446332  36.0025903
  18.7168404 101.1009053  36.6427347  19.2520519 102.4999598  36.4255163
  19.7354690  38.7710905  70.0505257  19.8839275  39.4713807  69.4150877
  18.7832538  38.6823392  70.0910282 105.4863739  42.3052406  79.0428352
 105.9515381  41.4729023  79.1268492 105.7346058  42.7983427  79.8247957
 102.5235558  73.4422922  66.9554806 102.8170204  72.7502918  66.3628197
 102.1521282  72.9751492  67.7038431   6.6855804  36.0463190  56.3108158
   6.3808719  35.2044344  56.6493702   7.6037876  35.8959317  56.0860825
  78.2923746  76.5364313  83.4066868  79.0575314  76.5133476  82.8320217
  78.5995579  76.1567163  84.2298985  29.4215962  85.9433536   6.8197652
  29.9972626  85.2492908   7.1408960  29.9967858  86.5159325   6.3122770
  17.2874156  46.5015221  79.5569229  16.3458816  46.4742470  79.3865871
  17.4883548  45.6430531  79.9295902  96.2051582  32.0296788  85.2554417
  95.3555393  31.6232085  85.0846672  96.5584087  31.5425730  85.9998703
  89.6453381  39.6569085  60.5574369  89.1694260  39.7138786  61.3859844
  90.2772999  38.9507437  60.6922865   2.2159334  77.3047618   7.6023599
   2.7950474  76.6189174   7.2699853   2.7275749  78.1097893   7.5224420
  23.9738461  76.9409613   7.6819917  23.6624714  77.6741818   8.2127115
  24.8895260  76.8315033   7.9384633  68.2537742 101.9983551  50.7629728
  68.5339637 101.0830963  50.7680941  67.4844451 102.0165131  51.3322163
  98.0377293   6.4137763  84.3884182  97.4408531   7.0808935  84.7274208
  97.6278973   5.5822647  84.6268654 100.3400612  41.6085434  75.4203224
 101.2647820  41.8381786  75.3287077 100.2790833  40.7179260  75.0749063
   7.8355781  38.4657812  63.3122873   7.9350082  38.9506316  62.4929810
   7.0927802  38.8828611  63.7487841  88.7548065  65.1162052  67.0904922
  88.2570553  65.5748463  67.7673340  89.5855236  64.8959208  67.5119543
  13.5225288  46.8887806  89.7311592  12.8107826  46.3249969  89.4281864
  13.1001464  47.5097084  90.3246880   4.3678709  67.9103009  19.3155118
   5.2145859  67.5615434  19.5942041   4.4812390  68.0983953  18.3838388
  54.4823834  88.1580237   6.6682073  55.1127526  88.1830386   5.9483167
  54.0664192  89.0199713   6.6523858  45.5205918  20.2103222   3.2592317
  46.2168218  20.5617369   2.7042409  45.0288392  19.6240366   2.6841852
 108.0994511  45.6614923  66.1075783 107.3880863  45.0528526  66.3069391
 108.8970947  45.1707220  66.3054514  88.1361389  25.2185202  81.7994308
  89.0253162  24.9572420  82.0388603  87.5805092  24.8175550  82.4678040
  50.1526448  85.3508643  15.2656003  50.7635590  86.0760645  15.3963682
  50.6586930  84.6948842  14.7861787 101.8550777  43.4828424  65.4490614
 101.5601063  44.0280962  66.1783934 101.4161777  43.8508034  64.6821165
  90.4000282  48.5897303  82.6378632  89.5358944  48.3437920  82.9680729
  90.2983093  48.6015129  81.6861629  56.5905572  13.9961899  20.9273073
  56.9428826  13.2675159  21.4383146  56.7339707  14.7661150  21.4776536
   1.0777561  22.0610762  78.0893087   1.1023990  21.5679288  78.9093256
   0.3338043  21.6943359  77.6115322  46.6357709  40.9072769   0.4204007
  45.8269406  40.8135021   0.9236165  47.2691918  40.3563393   0.8802720
 103.8372421  10.2514756  78.8656664 104.3602753   9.4839650  79.0971708
 103.4218407  10.5147910  79.6868515  16.1602584   9.5885402  59.4333887
  16.4851657  10.4146016  59.7915649  15.3769771   9.8328346  58.9404202
  94.1700172  71.3825798  78.3239746  93.6227322  70.6273031  78.1088829
  94.1292858  71.9374609  77.5450754  91.0183048  58.3938026  72.2153234
  90.6677723  57.9111052  71.4667463  91.8798923  58.6932182  71.9250679
  36.8381874  40.9668446  69.5428991  35.8954994  41.0209942  69.3859482
  37.1213237  40.2034283  69.0396547   7.4353214  78.4319285  19.8182985
   7.8853604  79.1728643  19.4124528   7.9422089  78.2478098  20.6091234
  89.4294549   3.2051886   9.1098138  90.1768399   3.3995855   9.6753713
  89.3976880   3.9378107   8.4945985  76.0058451  65.7874203  51.3414145
  75.9228754  64.9022484  51.6961193  75.1562309  66.1942005  51.5114641
   9.1831104  76.7785406  84.2467213   9.0836994  76.2440395  83.4589100
   9.9857513  77.2782469  84.0974236  90.0761795  51.8931246  79.0490913
  89.6722698  51.1946154  79.5640373  90.9604168  51.5753651  78.8664150
   3.0187599  11.9780874  64.9075413   3.4568302  12.7482510  64.5453691
   3.0970947  11.3138449  64.2227983  96.9361688   2.6808107   1.2757417
  97.6971150   2.2191990   0.9234544  96.5431882   2.0608175   1.8900892
 106.6160297  49.3011475  62.7857065 107.0377064  49.7180414  63.5371161
 106.2964249  48.4647131  63.1240225  52.7156445  95.9972266  16.0763475
  53.3221337  95.2937869  15.8449003  51.8734070  95.5580548  16.1946698
  49.5354844  54.0518845  13.6163255  50.4920007  54.0207374  13.5979577
  49.2621137  53.1738460  13.3507272  38.2204620  46.1514378  56.1756134
  38.3088962  45.2901697  55.7674026  39.1190616  46.4176178  56.3702869
  95.8172607  55.7718658  80.4824734  96.3240433  56.0941362  81.2278175
  95.2136040  56.4856529  80.2766991  68.2723714   0.5047739  14.9936124
  68.0313493  -0.0392878  15.7433626  67.8630639   0.0736416  14.2433950
   1.2612005  69.6656457  12.3752614   1.1065623  70.1273564  11.5511628
   1.2578102  68.7390987  12.1349927  47.1454425 102.4554226  90.1606846
  47.9315467 102.7470676  90.6224346  46.8612666 101.6769359  90.6396770
  63.1625457  82.5217000  70.0311089  63.4974284  83.2869497  70.4985237
  62.3141666  82.3450509  70.4376459  74.2553043  12.5988400  52.0783615
  74.7747564  12.9226136  51.3424444  74.3011761  11.6457200  52.0029402
   8.5200683  27.2421837  58.6692667   7.8249637  26.6039968  58.5087252
   8.2864849  27.6455307  59.5053196  86.6122913   1.0399014  64.7897339
  86.6931248   1.5133557  65.6177044  87.4174595   0.5259567  64.7281122
  46.9053645  97.3105821  73.8451576  47.3156257  96.5483687  74.2537594
  46.0996432  97.4451533  74.3440866 104.4952011  15.5556178  84.5445251
 105.4281807  15.6927526  84.7087479 104.1595268  16.4257133  84.3289089
  31.0285942  33.2792211  63.2567978  31.2271778  32.4599791  63.7102747
  31.3756362  33.9613819  63.8316441  35.3553959  91.8357972  24.6870920
  35.5967041  91.3024000  25.4443857  34.4915863  92.1854023  24.9058458
  99.4071393  59.9951235   6.2140867  99.1340689  59.5144901   6.9955369
 100.0096850  60.6627462   6.5418931  49.4552132  66.2242428   5.6260225
  49.4927689  65.5560962   4.9416276  50.2770897  66.1220113   6.1059209
  91.3354778   3.8706222  53.3548355  91.0651398   4.5506516  52.7378178
  90.5169010   3.4578454  53.6301136   0.3856269  19.9756706  49.0321636
   0.4489223  20.0430059  49.9848938  -0.4614075  20.3678179  48.8200855
  24.7063156  66.0546211  17.9427739  25.6137749  65.8579985  18.1753465
  24.5500370  65.5529682  17.1426793   9.1259571  70.8280698   9.1591283
   9.8233029  70.5827347   8.5510560   8.5799977  71.4385847   8.6637231
  98.8154602  23.6926246  78.1789684  99.6863842  23.4514284  77.8634596
  98.5008144  22.9115772  78.6341524 105.5905437  12.0763063  68.1093884
 106.3350677  12.1230340  68.7091684 104.9764156  11.4787805  68.5360432
 106.4385891  15.2548170  57.9502821 105.7799625  14.7219312  57.5047684
 106.7697430  14.6911848  58.6494827   8.4207145  18.8434911  74.9422026
   7.5083820  18.5550308  74.9682856   8.7881938  18.5514379  75.7764006
   3.2713596  17.8220403  63.3993387   4.2121211  17.9067039  63.5543585
   2.8880683  18.5868049  63.8288260  79.9633880 101.5201322  89.9915314
  80.8026595 101.6139016  90.4421616  79.5267959 102.3621166  90.1206970
  72.0745993  22.2639489  69.8509216  72.8776026  22.7443051  70.0525999
  72.3778343  21.4162278  69.5258856  92.4481010  34.9718833  52.0182657
  91.5209007  35.2094817  52.0099735  92.8877831  35.7079220  51.5926313
 101.6803265  47.5315189  43.9967203 102.2179699  47.6430607  43.2126713
 101.7206860  48.3802128  44.4375420  85.5859470   7.1595776  58.4012461
  86.2348652   6.4712036  58.5471344  86.0912704   7.8959978  58.0568981
  43.7596126  97.9921827  80.4321003  44.1671176  98.8355753  80.6292439
  44.4817443  97.4426273  80.1275539  70.7592292 104.4651880  42.0475721
  71.1608310 104.3820464  42.9124594  70.6350322 103.5628123  41.7534208
  98.8003254   7.8711313  53.0152941  98.2465458   8.2773823  52.3485708
  99.4328403   8.5508543  53.2479572  34.8885814  41.9273376  62.0162153
  34.7712222  42.5738764  61.3201952  34.0518752  41.4641619  62.0564365
  22.6215068  13.1343031  88.0405521  22.8706447  13.8249934  88.6546421
  23.4152404  12.6098037  87.9351139  17.1858589   9.3168157  75.2331543
  16.9447986   9.6998757  74.3897152  17.8229515   9.9292028  75.6010103
  69.4509217  55.1018743   0.6113168  69.6576210  54.1813041   0.4498884
  68.4960457  55.1453690   0.5608579  16.5897647  17.3697555  83.1498528
  17.2788803  18.0146074  82.9900932  16.5704719  17.2706676  84.1017151
  86.0548973  17.5938904  77.6886988  85.9512711  18.5338879  77.8366756
  86.3089275  17.5228488  76.7685604  76.6033359  93.9136759  41.7566347
  76.5887923  94.6705285  42.3424625  75.6889720  93.6360017  41.7013216
  70.5443811   7.3362511  65.4650450  69.6169233   7.5542825  65.3727245
  70.9876108   8.1840169  65.4978085  77.3127317   8.8210690  87.0722866
  76.7398596   8.3094960  86.5010262  76.9935274   9.7196293  86.9890404
 102.3680401  28.1148839  83.1037807 102.1249294  29.0372229  83.1839085
 101.9633675  27.6937699  83.8621521  51.7739673  83.4127227  37.0424986
  51.9728370  83.7886158  37.9000425  50.8285995  83.2636753  37.0597267
  10.8234397   6.4411098  59.4718504  11.3049308   6.7912382  58.7223101
  10.1839534   7.1208763  59.6844578  89.6961403  10.4483521  80.4502583
  89.8203754  11.2453425  80.9656334  90.5464172  10.2944434  80.0384617
   7.9331681  72.5009469  16.1605951   8.6609074  73.0214313  16.5007802
   7.7737232  72.8551916  15.2857705 101.3355732  67.6747465  40.3506088
 101.7448521  66.8253088  40.5154562 100.3970623  67.5101805  40.4419947
  25.6195251  18.0646455  73.6725140  26.0713569  18.8977170  73.5380840
  26.2765972  17.4983788  74.0772676  50.8788104  95.8126995  83.3302689
  51.2141986  95.9076187  84.2217541  50.9104724  96.6977051  82.9669666
  24.5772835  99.7051696  11.5403959  24.1349598  99.0582017  12.0899602
  25.2470490  99.2052583  11.0737821  93.6476231  32.2418690  77.7905083
  93.2976532  33.1138086  77.6075459  93.2358074  31.9868827  78.6161137
   3.6335655  61.3583890   7.4114438   3.8049360  61.1702953   8.3342000
   4.4967171  61.3366131   6.9982549  66.7190504   9.8325253  41.9515228
  66.2157154   9.2054987  41.4321709  66.0786152  10.2159059  42.5507736
 101.6792774  20.2056265  67.1119785 101.4510536  19.2767072  67.1474171
 101.0017872  20.6386900  67.6313019  68.9337440  82.3597494  79.7507334
  68.3697219  81.7505327  79.2743349  69.5352168  82.6979700  79.0873528
  97.7547832  96.8863473  79.3269491  97.2576423  96.0685799  79.3452978
  98.1533809  96.9438622  80.1953030  13.0424301   5.8498335  71.5427542
  12.8325168   4.9276745  71.6903639  12.2419731   6.2213081  71.1719465
  83.4391494  63.9033738  88.2511711  83.1115146  64.0381280  89.1404057
  83.0427833  63.0778924  87.9724121 109.0301800  11.4628029  11.0913122
 109.4133759  11.5150070  11.9669056 108.1380177  11.1488307  11.2386477
  29.5133682  80.7105354  12.8542348  29.0033528  80.7196526  13.6641904
  30.3511997  81.1063079  13.0942937  76.2695499  98.2706985  59.6185970
  76.2260146  98.2183072  58.6638212  76.7461295  99.0824148  59.7924423
  10.9664146  35.1902866  74.0772486  11.0537902  35.1119995  75.0272322
  11.6418258  34.6100640  73.7259769  64.3258715  14.4944811  81.2076187
  64.4166470  15.4157114  80.9640503  64.5557690  14.0128684  80.4129982
  70.6381413  81.3644818  22.2316858  71.3498398  81.7491964  21.7200967
  70.7369896  80.4205350  22.1074792  14.8672000  31.9152832  65.1790190
  14.9193279  30.9832358  64.9673510  14.3511478  32.2940207  64.4673443
  41.8339821  59.5463268  14.3029329  42.6638790  59.2126594  13.9620706
  41.7879864  60.4469232  13.9819261  57.7870175  70.6442992  13.6021825
  57.5957104  71.0582868  12.7606126  58.6527439  70.9756819  13.8408109
  15.7042400  25.2278376  43.4076786  15.1845638  25.5854607  42.6877689
  15.5698196  24.2816925  43.3531666  13.6156837  16.3263452  62.5371552
  14.0052596  17.1971357  62.4584723  12.8035060  16.3809133  62.0335579
   8.6704723  10.9589767  89.2750263   9.1617481  11.5181494  89.8768616
   8.6091129  10.1171017  89.7263718 110.6740761  48.2555962  57.8556013
 110.5696392  47.9796648  56.9450045 111.5204334  47.8947639  58.1196404
  32.5533863  92.1344880  22.0599290  32.9835125  92.9516438  22.3118802
  32.9199311  91.9259337  21.2006303  82.6933765  26.8690944  68.4223795
  83.3200455  27.4031854  68.9104986  82.1751213  26.4309835  69.0974379
  97.9878044  29.5059466  47.0834255  98.4724426  30.0342441  47.7176666
  97.5963497  30.1454353  46.4884043 109.2618847  63.8319063  74.9049425
 109.3414307  62.8946161  74.7277546 109.5196342  63.9249992  75.8220768
  92.3658562  20.9953260  70.6532431  92.7042484  20.2360415  71.1278057
  93.1106663  21.5939093  70.5967617  32.5186534  89.5403496  40.3894234
  31.5647216  89.5079771  40.4615307  32.8039975  89.9879936  41.1859322
  62.8662964  69.3956391  -0.1312236  63.4327599  69.3377630   0.6381913
  62.2620102  70.1103393   0.0694581 105.7515907   5.3699613  64.6072006
 104.8235035   5.1724929  64.7332859 106.1602211   5.1439500  65.4427624
  25.8042427  76.0189895   4.6675512  26.4846703  76.5141682   5.1236841
  24.9823090  76.3928679   4.9851629  26.7075440  77.8072742  24.3237516
  26.9976326  78.2401566  25.1266786  26.2184712  78.4811596  23.8516065
  35.2968403  86.8841485  41.3772603  35.1120754  86.3498405  40.6048604
  36.2456127  86.8239311  41.4887735  92.0800018  37.9383421  88.9785290
  93.0222797  38.0183244  88.8303661  91.7260361  37.6708579  88.1303596
  25.0459758  39.4435477  67.4317932  24.6621314  38.6922073  67.8838778
  25.6552688  39.0584373  66.8019629  50.8977600  86.1289362  31.1832830
  51.6746041  85.5826596  31.3029691  50.9209725  86.7425112  31.9176027
   9.1462890  55.7854509  43.1855726   9.5176975  56.5392303  42.7272034
   8.6246387  55.3345871  42.5216198  95.3239441  29.0560842  48.0359650
  96.1952972  29.0216780  48.4306765  95.0338078  29.9577165  48.1742144
  30.8062741  67.7111713   0.3878709  31.0229107  66.9138578   0.8711835
  29.9607369  67.5222770  -0.0191001  87.1166415  87.0839921  65.6074142
  86.6519447  87.4173537  64.8398447  87.9579444  86.7815510  65.2654123
  96.4853378  91.3137284  70.1212931  95.9265323  90.7803694  69.5560455
  97.1596618  91.6578463  69.5355463   5.0806133  33.9614058  70.4124594
   5.3453342  33.8299012  69.5020437   5.6193344  33.3460546  70.9098053
  11.8664352  17.7124715  58.2606602  12.0630256  18.4909165  58.7818193
  11.1128513  17.9653144  57.7273512  10.6597320  20.4549718  70.2905846
  10.6946842  19.5450079  69.9956703  10.0102035  20.8666849  69.7206450
  13.2533642  45.8720891   9.8611661  13.7710663  45.2139501   9.3974134
  13.9027306  46.4251933  10.2954885  27.4749080  14.4832039  71.0507774
  27.6378433  14.1016078  70.1881838  27.1778671  15.3742468  70.8662701
  90.4662132   3.4763551  76.1624670  89.6636009   3.8094592  75.7611084
  90.2355576   2.5984672  76.4663410  18.0358497  22.9945445  59.2857170
  18.1423751  23.3839869  58.4178352  17.6823131  22.1216035  59.1147709
 100.7217693  40.5512571  47.8727674 101.0378838  41.2778664  47.3357964
 101.2747097  39.8108125  47.6233006  84.5103359  18.0406785  63.6473751
  84.5843792  18.8286221  64.1857958  85.0068951  18.2446027  62.8548574
  34.3205258  93.3656053   9.4168779  34.3426033  92.5262240   8.9573213
  34.6854683  93.9910535   8.7908861 104.8783493  16.4435279  71.1447668
 105.4082870  15.9467173  71.7681217 104.3921852  15.7771349  70.6591749
  25.5736920  64.4563667   8.9889737  25.2872559  64.2340092   8.1031152
  24.9487778  65.1188938   9.2835351  93.9148426   9.1999203  51.3182640
  93.6590481  10.1213324  51.3607359  94.4379520   9.0599424  52.1075630
   9.4483940  39.5406008  65.4359818   9.1269008  38.9910674  64.7212172
   9.3519679  38.9970827  66.2179804   4.0420143   0.8494966  58.1246233
   3.3790676   0.4941293  58.7166166   4.1027919   0.2056585  57.4189234
  13.4084407  30.3490281  62.1210384  13.5492412  29.8421311  62.9206991
  12.7629558  31.0113549  62.3678398  95.1131725  31.8428683  43.8588476
  94.2790508  31.8787789  44.3270254  95.7487869  31.5741587  44.5221901
   8.1240741  62.6919746  87.6294613   7.2947112  62.3872089  87.9975796
   8.6512081  62.9307127  88.3919334   9.0954296  40.3144979  71.8626547
   8.4831993  41.0468483  71.7914772   8.6862651  39.7205567  72.4919748
   2.4457160  23.4342432  76.2492847   1.8577758  22.9920912  76.8617105
   2.4215404  24.3534064  76.5153456   8.1939312  76.7119411  25.3417131
   7.4004933  76.7427091  24.8071691   8.3407685  75.7792334  25.4989644
 105.4678917  13.9071822  78.3982468 105.1528931  13.9730597  79.2997265
 104.6760654  13.9621437  77.8632402   2.2636119  51.7425585  76.4833355
   2.5285999  52.6619673  76.5096521   1.3595573  51.7447662  76.7978525
 104.5695686  25.7935095  21.1245775 104.2921638  25.0019026  20.6634521
 105.0074673  25.4708552  21.9122148  37.2662922  83.9117531  13.2780382
  38.2200142  83.8406590  13.2381364  37.0494648  84.5879773  12.6362153
  38.8618466  50.5661944  11.4473649  39.7545525  50.3672151  11.1650583
  38.9726826  51.0887954  12.2416135  98.0657768  61.5818167  34.5665765
  97.3209476  61.2929106  35.0938225  98.8203335  61.1392641  34.9551988
  19.6926776  61.2497282  90.6491661  20.2296440  62.0411158  90.6091690
  20.2251235  60.5772877  90.2242374  27.1564671  70.7755546  11.6244336
  26.2860104  70.7865337  12.0224401  27.6137444  71.5132205  12.0281431
 105.4977989  46.4457464  53.6494827 106.0586357  47.2128391  53.5343266
 105.9719658  45.8935356  54.2711496   8.1780521  24.4915366  63.0068636
   7.5241081  25.1865673  63.0811501   8.1067459  24.1914392  62.1007252
  91.6564083  40.8477736  45.1279879  90.9133148  41.4040565  44.8943472
  92.0675182  40.6331205  44.2906427  10.0263873  45.8966970  68.4826708
   9.6194736  45.7930088  67.6224947   9.7598640  45.1167011  68.9693022
  79.6114111  37.8998590  50.1846409  78.9138603  38.2379222  49.6230650
  80.3627682  37.8007483  49.5999384 101.2632088  73.9006738  10.3824636
 101.9553475  73.5501937   9.8218080 101.4329295  74.8422340  10.4123136
  50.4407688  91.4153079  32.5551053  50.1193615  92.3154358  32.5031682
  49.6674343  90.8973674  32.7785322  91.8721390  24.1267204  68.1549215
  91.1652374  23.4953380  68.0212164  92.6563644  23.6790538  67.8373861
  91.5061665   6.8864441  63.9409304  91.8753147   6.7144603  63.0746841
  92.1296692   7.4848646  64.3524790   1.3783542  28.5837436  53.1983185
   0.9980956  29.1044331  52.4908495   1.8596355  27.8875041  52.7512693
  42.5732414  51.0818529  50.0018358  43.3710281  50.8643723  49.5196819
  41.9283763  50.4427862  49.6985674   6.5349385 103.9442948  12.2980043
   6.7817684 103.0198363  12.3241254   6.7434784 104.2227677  11.4062616
  98.5702095   7.7499617  19.3003961  98.8076028   8.6735571  19.3831464
  98.6025962   7.4131859  20.1958104  64.7594981  88.3213524  52.9843541
  64.4090133  88.6041407  53.8290044  65.3121667  87.5685481  53.1942960
 109.5685820  87.6398520  24.1745874 110.5130391  87.5322465  24.0621015
 109.3091922  88.2318524  23.4685537   1.7368794  11.4122999  28.4849759
   1.7947651  10.5898512  28.9712545   1.9572807  11.1741341  27.5844594
  98.4083705  87.0870761  16.6262361  98.9787726  87.3612670  17.3443624
  98.4223227  87.8233842  16.0147783 104.3899736   9.7997558  21.5429422
 104.4613299  10.4431188  20.8378049 103.9244089   9.0624130  21.1482164
  56.3089089  63.2397953  26.2046644  57.0814757  62.7722815  25.8871671
  56.4188807  64.1331212  25.8789274  31.1515760  90.7779217  85.2683640
  31.2188315  89.9430275  85.7316875  31.5085697  90.5985641  84.3985271
  30.8942224   8.6109579  21.9889375  30.2181722   8.7955320  22.6409551
  31.1283780   7.6951158  22.1393701 107.9236321  97.3894385  49.8277494
 108.8259272  97.3579864  49.5097753 107.5051265  98.0651359  49.2943498
   1.2266089   3.7672270  11.9763681   1.1844588   2.9841698  11.4274808
   0.5126859   3.6580980  12.6045629  49.3431465 101.5478686   7.3340341
  49.8977022 102.3034505   7.1396276  48.9986460 101.2782268   6.4826604
 101.5502891  30.7684315  16.0911294 101.8174467  31.4135063  16.7459031
 100.6104431  30.6569469  16.2342950  30.3918840   6.5672005  10.6776067
  30.9715987   5.8534181  10.9434530  30.9762860   7.3135651  10.5447885
  38.5214901  57.3642015  84.7515678  37.8757024  57.5662708  85.4285812
  38.0005550  57.0758533  84.0020943  23.7492462  97.4318103  47.9778596
  23.7133976  97.7427796  48.8824292  24.6791836  97.4573783  47.7524873
 110.4352293  18.6134613  36.6945001 110.7886300  18.6054361  35.8049604
 109.4859800  18.6424387  36.5748521 104.6803651  15.6671656  24.6999952
 104.4887409  14.8098982  25.0802633 103.8218531  16.0291613  24.4805547
  90.8749232  18.3002794  13.9361593  91.6411194  17.7626598  14.1364976
  90.4277453  17.8277624  13.2340261  86.3737211  26.2883795  35.0586435
  85.7570789  25.5592287  34.9928495  86.8323753  26.2907255  34.2184850
 101.3257441  24.1539801   9.0374299 102.0459661  23.7859619   9.5493623
 100.6684742  23.4584988   9.0143224 102.4729905  16.8152988  43.0451127
 102.2218308  17.7266634  42.8948709 103.3508453  16.7438782  42.6702806
 108.3701691  18.5016191  38.5050603 108.1007585  17.7759445  39.0681192
 107.5514683  18.9364803  38.2666131 110.8909516 102.8716258  45.8852025
 110.4733710 102.2600106  46.4916536 111.8250756 102.8050355  46.0832235
  23.7265445  56.6338623  17.7044793  24.1202022  57.4877632  17.5252935
  22.9605342  56.5982902  17.1315976 102.5043211  14.5457065  35.9581586
 103.1450233  14.7691286  36.6333028 102.6886854  13.6305941  35.7464620
  10.6533576  26.5405643  30.7617208   9.9067498  26.1324299  31.2001630
  11.4191962  26.1893595  31.2160131 107.0922808  84.2685560  40.9427091
 106.6109805  83.9110974  41.6889020 107.9632764  84.4614557  41.2896749
  10.8543492   5.1818884  36.0275003  10.4805471   4.4149435  36.4614412
  11.5903474   4.8363150  35.5224153  34.9111018  98.1766108  17.4400827
  34.7558998  97.9286317  18.3514806  34.1834514  97.7839831  16.9577905
 107.6540809  82.5955991  25.4170152 107.7032571  83.3629517  25.9870931
 107.4330096  81.8737868  26.0055276  67.4398279  52.4072742  77.7983952
  68.1380606  53.0255890  78.0137873  67.8924417  51.5769386  77.6503658
  24.0175677  31.4311397  46.1212655  24.5466281  30.6346500  46.1650773
  24.0403033  31.7830265  47.0111581  22.6585771   7.7168882  12.8053304
  22.3295022   8.1555450  12.0207712  23.6035634   7.8680122  12.7856847
  89.2575273  36.1522854  40.1166650  88.3789882  36.3402355  40.4469224
  89.8439130  36.5935314  40.7312223   6.4148475  15.2645243  40.7450315
   6.4439441  16.2147320  40.6332418   5.6168366  14.9942434  40.2907583
  86.9517789  13.1581247  22.6230642  86.9021270  13.4964359  23.5171052
  86.9745633  13.9403808  22.0718881 110.8413272  84.1602568  25.6592771
 110.8476310  83.2079844  25.5624791 111.1064820  84.4900445  24.8006936
  39.9532421 103.4940318  27.4712106  39.0536814 103.2522849  27.2507974
  39.9122481 104.4339065  27.6478025  98.6026578 100.7869653  25.4432985
  98.9039569 101.1137418  26.2910386  98.7012629 101.5320949  24.8505994
  79.5255523  77.6414422  40.9946939  79.0983777  78.2394699  40.3814145
  79.7474580  76.8747453  40.4663392  63.8964173  14.7564876  52.9238149
  63.5514292  14.5083130  53.7815019  64.8471722  14.7336090  53.0323144
  52.3652555   9.4313038  38.1215783  51.4893819   9.1093243  38.3346769
  52.6607133   9.8682535  38.9203378   0.3539802   4.8044479  36.5652295
  -0.4288863   5.2863109  36.2984773   0.0756360   3.8888872  36.5876981
 107.7995000  20.0426853  41.9720098 107.3246607  19.6551407  42.7072450
 107.1136961  20.3436935  41.3759347 102.2831545  16.8053520  18.6091539
 101.9022402  16.7881430  17.7311727 102.6438317  15.9271181  18.7310048
  68.5105734 101.1448220  35.0680467  68.3681803 100.2136735  35.2380964
  67.6314883 101.5233878  35.0566789 103.9808926  13.9078272   1.1023828
 104.8175511  14.3469179   0.9493085 103.7264833  14.1780651   1.9847032
  32.8057433  14.9087847  32.8623029  33.5316707  15.2340019  33.3947488
  32.0857144  14.7953070  33.4827157  37.9446149  57.8803205  73.8781166
  37.9811788  57.9544640  74.8317385  37.2344995  58.4676600  73.6192656
   8.6772920  22.7256763   2.0728799   7.7671433  22.4609697   1.9394704
   9.1471005  21.9041288   2.2162935  68.9684706   0.9145745  88.1608963
  68.4651642   0.1033219  88.0917168  68.3767276   1.5921792  87.8339100
 105.7959160  30.4664696  19.2312261 106.6587863  30.0919140  19.4084092
 105.8141241  31.3227165  19.6587011  59.7813372  96.7490701  11.8945619
  60.4760651  96.1182860  11.7056295  59.6290855  96.6629580  12.8356477
  33.6561299  11.8340481  18.4222432  34.2251159  11.1927021  18.8478776
  32.8683234  11.8531883  18.9655896  22.6802112  20.5772865  28.4511586
  22.3529531  19.9455250  27.8108426  21.9006110  21.0522259  28.7390539
 110.9089193  12.3596418   8.0688497 111.4997658  11.6122425   7.9765054
 111.0570655  12.8809822   7.2798749  94.4116983  10.1665962  36.5491792
  93.6401698  10.2599991  37.1079751  94.9977359   9.5937527  37.0438024
 107.3417339  29.0421188  12.1019288 107.8209648  29.8677433  12.0317670
 106.6004381  29.2432678  12.6731225 104.7764454  19.7346867  13.9919874
 105.6588015  19.5960129  13.6478254 104.4487342  18.8537205  14.1729184
 102.4166259  20.9071196  21.0564443 101.9298324  20.3284443  20.4695913
 101.8894968  20.9370268  21.8548604   8.8417908 101.6758565  33.3100911
   8.0363270 101.8189553  32.8131124   8.8663765 100.7306937  33.4594175
  98.5009103  67.8573636  18.7514516  97.9616694  67.2160415  19.2142125
  99.1359048  67.3306684  18.2660505   0.1894117   8.6375702  26.3644906
  -0.0390862   7.7220953  26.5255185   0.7181359   8.8892210  27.1216985
   7.6625539  13.6599529  12.7630063   8.0017520  13.4182108  13.6248323
   7.0412541  12.9647196  12.5465127   4.1036035   7.7649248  31.1727639
   3.7951995   7.3587883  30.3627225   4.8689080   7.2476757  31.4237520
   3.0347777   4.5029772  26.2342092   2.9917289   4.1087902  27.1054097
   2.3322488   4.0765942  25.7434198  36.9202472  16.0918463   4.0966913
  37.6593019  16.6329229   4.3746587  36.5406180  16.5665377   3.3572408
   0.6094314   6.5973556  12.6056691   1.4872600   6.2229240  12.6794931
   0.7495786   7.4622047  12.2201558  22.8289128  11.3789642  27.8972265
  23.4475232  11.4714563  27.1726629  22.1556426  10.7862223  27.5631639
 110.9954171 104.0289477  31.0941907 110.0946336 103.7521056  31.2620469
 111.2625556 104.4751243  31.8978044 106.6903624  15.4369676  15.8798333
 107.2085199  15.9849728  15.2903959 107.3205123  14.8161924  16.2455865
 103.6500840  69.0273634  41.4728662 103.3056407  69.1431276  42.3584100
 102.9288010  68.6293630  40.9854528  72.1949177  86.4996747  13.0115720
  72.1128301  85.5464343  13.0402871  71.6779332  86.8071298  13.7561723
  65.5108070  40.4693556  86.7022896  65.2248240  39.6502018  86.2980175
  64.8407888  40.6590319  87.3590469  92.6518676  42.7497757  18.8666841
  91.8503759  42.2297562  18.9252206  93.2360336  42.3637569  19.5193406
  13.5014773   4.3710363  34.9458619  14.1392900   3.7784565  35.3436967
  13.8646747   5.2449978  35.0890848   0.3880073  17.6409519  31.5170690
   0.1930262  17.4554766  30.5984803   0.9192611  18.4368360  31.4931890
  15.0499106   4.8731077  40.5630418  15.7372142   4.6022642  41.1717244
  14.2329169   4.6743906  41.0205003 109.1520605  11.3782490  13.9887449
 109.0016136  11.4976585  14.9264737 109.0541730  10.4364574  13.8484784
  35.9642506  55.3821802  89.4912148  36.0358429  54.4705725  89.2082405
  35.7653832  55.8667421  88.6900330  98.0525407  14.4413317  40.8003637
  97.4614105  14.0998114  40.1294252  98.8178000  14.7460211  40.3127405
 105.6289706   3.1660355  17.6979371 104.8178038   3.0663193  18.1962320
 105.7043514   2.3533047  17.1979162  99.8399787  86.1768393  14.2520639
  98.9110761  86.1753825  14.4830819 100.1386361  87.0607046  14.4661161
  81.8615723  74.3914938  89.9137115  80.9655094  74.5651150  90.2020836
  81.8454361  74.5542097  88.9705849 100.9121880  49.3352974  31.3534566
 100.3748068  49.3545425  32.1453401 101.5776047  50.0077808  31.4991590
  18.7620736  15.5793369  22.1158239  17.8886128  15.3641975  21.7886945
  18.6254169  16.3389862  22.6819345   7.1177770  29.4735229  54.3461248
   7.7374936  29.4648540  55.0755807   6.9784976  28.5494030  54.1391774
  10.0450040  25.5512703  64.6697255  10.7355071  25.2115333  64.1004964
   9.2543603  25.5217970  64.1309854  36.8625379  94.1148853  90.7995701
  36.3979554  94.7867870  91.2985229  36.2285614  93.8211441  90.1453304
  99.6282491  16.5048826   4.9446222 100.3440246  17.1404112   4.9454233
  98.8750634  16.9920051   5.2787706  93.5682111  65.8667437  33.0118486
  92.6274304  65.7717864  32.8630277  93.9137225  64.9773303  32.9356881
  18.4644986  12.4156702  31.1702462  19.2685939  11.9033134  31.2548181
  18.3990003  12.8965223  31.9953080 111.1884484  34.3940533  14.1029855
 111.4544472  34.5621670  15.0069829 110.2547130  34.6039284  14.0850946
  42.3045969  58.2928944  86.5476418  42.3736525  58.9430761  87.2467327
  42.6698828  57.4935913  86.9270039  22.4780274  18.1081808  14.6515962
  22.3374368  18.9827478  14.2888280  22.0576192  17.5187385  14.0254613
  96.1587200   2.5232256  16.6255113  95.5388770   2.3983848  15.9068700
  96.9971213   2.2244728  16.2732908  39.6119357  12.4326790  17.4730893
  39.4073440  11.5924776  17.0626756  40.5404426  12.5708521  17.2859594
  97.0463023   0.2483070  14.2960092  97.0476803   0.7768286  13.4979459
  97.8034672  -0.3296721  14.2018148  64.3205404  49.7395658  88.9315319
  64.6141815  48.8531351  88.7211800  64.2998695  49.7643280  89.8881912
  56.7484666   6.4440525  41.6177961  57.3575879   7.0633781  41.2157461
  56.0180093   6.3921297  41.0013887 109.4251117  25.8834017  18.8147184
 110.3395376  25.8294809  19.0924856 109.4635758  26.2610996  17.9360315
  97.4643187  85.1482777  25.9400197  98.2620053  84.6210746  25.8954068
  97.3575358  85.4964665  25.0548097   8.6228272  97.8625373  26.4885160
   9.3354794  97.2274474  26.5593835   8.3031269  97.9648093  27.3849317
  59.7443824  78.5445050  59.6789953  60.3819995  78.3744649  58.9856263
  59.7900443  79.4902019  59.8197194  88.0787616  83.1194619  29.1639539
  88.6875014  82.4203185  29.4024202  87.6123481  83.3181981  29.9758645
  14.5227338  29.8188198  35.3935834  14.5126248  28.8626278  35.3509160
  15.3476573  30.0303543  35.8306047  85.5906777  86.1523322  12.3790189
  85.9347253  85.5398849  11.7288133  85.6780104  85.6904749  13.2128640
  73.9392166 103.4178761  26.2095949  73.0734091 103.0110148  26.1768075
  73.7629871 104.3583850  26.1847040 110.9160051  17.0279205  73.0665036
 110.4659662  16.2272251  73.3359166 111.8450341  16.8340195  73.1911489
  35.2406128  73.1444005   4.7378370  34.5016126  72.5370888   4.7736474
  35.8456633  72.8251270   5.4073259  19.1865302   2.6713074  56.3535997
  19.8872520   2.4205864  55.7516309  19.5364667   3.4256971  56.8275949
  22.0573665  12.6048935  45.5285188  22.3239709  11.8127287  45.0620195
  21.1507035  12.4376285  45.7858487 108.2751236  33.7455833  27.5246927
 108.7390837  33.0736721  28.0242082 107.4388990  33.3396042  27.2963449
  71.9573812 100.9092788   3.9497014  71.4511947 101.1060122   3.1614801
  71.6067223 100.0733499   4.2570993   3.0745841  12.7975548   7.3721143
   2.7024532  12.0488155   7.8380987   2.5333787  13.5399473   7.6407834
  17.8338386  54.2617596  10.1088067  18.0727864  53.3982170  10.4455968
  17.8542758  54.1617191   9.1570684  28.5483718  51.7429876  82.1456337
  29.3668270  52.2391510  82.1591759  28.4353185  51.4427948  83.0474854
  16.4508725  18.1654013  14.9598333  17.2554112  18.3824575  14.4888326
  16.0145856  19.0074814  15.0893995  76.4847927  67.6133660  49.0279504
  76.5297274  66.9708351  49.7360250  76.2868028  68.4404377  49.4672509
  12.6302959  24.4265020   6.4980813  11.9507934  23.7593353   6.4011308
  13.2022620  24.0875280   7.1866914  29.8087741  21.4887751  12.0473501
  30.0582553  21.5313328  11.1242124  30.4067374  22.0945204  12.4852296
  35.1428246  90.5761623  87.2578144  35.7226419  90.1942158  87.9167175
  35.7187986  90.7792664  86.5207672  99.2224393  36.4399898  11.6598054
  99.1332397  35.5435074  11.9832059  98.4815964  36.9082630  12.0446512
 104.9081835   7.6410044   3.8108274 104.2886243   7.8140963   3.1020089
 105.1058516   6.7076290   3.7335607  62.3516084  27.5476683  18.7588998
  62.6370717  28.0591476  18.0018541  62.9776288  27.7700222  19.4480249
 104.3850503  18.1072176  56.2703153 103.5502133  18.0386246  56.7335340
 104.1530714  18.4533298  55.4085561   2.8582121  11.5336788  36.6932794
   2.5328995  12.1326578  36.0212442   3.6930848  11.2172115  36.3482210
 102.2495303   8.8599956  23.4768316 101.4487562   9.2339647  23.1092187
 102.7775654   9.6195066  23.7229081  72.8230719  86.2954382   9.4210931
  72.4387245  86.3714508  10.2944394  73.5552578  85.6892327   9.5335790
 105.8011823  82.8191785  29.9860689 106.6379170  82.3989037  29.7873803
 105.2484231  82.6216153  29.2299863  67.3770332   2.6591927  86.3387203
  67.2126913   3.5861173  86.5120316  68.2071829   2.6481140  85.8623219
  94.8596577  53.5033041   2.4126264  94.2783980  53.7633591   3.1272909
  94.9316077  52.5524902   2.4963399  16.1378194   1.7992676  11.0871908
  16.8888999   1.9475687  11.6617509  16.4698363   1.2160242  10.4046842
 110.9621720  74.6556405  36.9221612 110.7163100  74.7600082  36.0029813
 111.2657838  73.7502269  36.9875642  63.4453254  93.9719275  19.8960134
  64.3874268  94.1205672  19.8148557  63.3491902  93.4860448  20.7150956
  78.5241275  69.0663997  15.2957555  78.2046990  69.3942765  16.1364003
  79.4277291  68.8025323  15.4692956  37.7347806 100.4704646   9.6659490
  38.0784869 100.4228763  10.5580446  36.8759772 100.0509004   9.7174569
  30.4338932  11.3166499  51.7961502  29.9397755  12.0029485  52.2445631
  29.8296475  10.5755103  51.7533636  48.3700752  33.4620476  89.3689728
  48.6042595  32.5581813  89.5797253  47.4211502  33.4409642  89.2451572
  94.6967940  76.8239216   9.9402734  94.8982529  76.3641075   9.1252729
  95.5263333  77.2242145  10.2007791  33.1606197  89.8687840  80.3150463
  33.5826135  89.8625088  81.1741829  32.5843620  89.1045570  80.3256607
  45.7944585   1.3913715   5.4083082  45.7219506   1.7239368   4.5136758
  46.6245557   1.7444170   5.7285329  43.1449299  57.3365996   6.0739728
  43.4130947  56.6192577   5.4997464  43.9649932  57.6750598   6.4333841
  31.1739254  36.4957786  89.5519161  30.5901265  37.2180367  89.7837734
  31.5151310  36.1849570  90.3904819 104.5308289  12.5441921   8.6809369
 104.4813237  13.4775722   8.4745809 104.1439018  12.1099699   7.9206868
   8.1263729  88.3883552  15.1134034   8.8877484  88.4105901  15.6931039
   8.4366986  88.7767843  14.2954465  88.0445866  81.6201738  13.1884977
  88.5425858  81.4033274  12.4003335  87.8643660  80.7741074  13.5982820
  37.8678012  43.8196993  83.8932800  37.5269318  42.9672623  83.6223698
  38.2341123  44.1964340  83.0932045  91.3644795  96.8503503  33.9314863
  91.1536460  96.8217877  34.8647424  91.5143351  95.9358672  33.6916944
  88.5318205   9.6388901  11.5670606  88.0819235   9.1454399  12.2528669
  89.2239389  10.1130140  12.0279428  95.9849267  68.1222788  27.7019998
  95.6124883  67.4151210  28.2287332  96.1165623  68.8392440  28.3223745
   3.3937837   3.1682384   9.5545694   3.5260345   4.0359295   9.9364682
   4.2785455   2.8354729   9.4039174 105.6752686  56.2351740   0.1250955
 105.0754123  56.3953532   0.8536168 105.3250699  55.4559273  -0.3066138
  64.7459655  97.0239858  22.8722307  65.1119356  96.3139991  23.3996888
  65.2386098  96.9916085  22.0521756  79.3229060  97.9186944   5.9656640
  79.7951464  98.6055974   6.4361688  79.7044043  97.1020249   6.2877580
  47.5160520  89.6269921  19.1183301  48.3254843  90.0438169  18.8228532
  47.7577643  88.7127737  19.2667123 110.6683716  45.3207767  14.4691678
 109.7581873  45.0925148  14.2802545 111.0292301  44.5394791  14.8881837
  37.9211618  35.7049930  19.9040242  38.8300754  35.9225548  20.1108285
  37.9843570  35.0118721  19.2468950  85.4234886  29.9447680  88.8092041
  85.5982208  30.5227852  88.0665016  84.5457363  30.1897693  89.1020584
  63.2454062  34.9240398  89.2523861  63.7643862  34.5960450  88.5180092
  63.4235954  34.3100071  89.9647427  68.6714725  83.0514769  21.4890596
  69.1838293  82.3021583  21.7927762  68.9218120  83.1565694  20.5711767
  40.5063391  33.8215613  53.8588762  40.0238609  34.6480083  53.8796663
  40.9307003  33.8134813  53.0009222  80.4437880  89.6340422  50.3892061
  81.0423665  90.0994686  49.8049852  80.8385806  88.7687067  50.4967424
  50.2130651  28.1726003  75.2740383  51.1293650  27.8959560  75.2641249
  50.1181173  28.7148881  74.4910049  94.4643073  93.7820415   9.1434213
  93.5400157  93.5516385   9.0494081  94.4546990  94.6615533   9.5210382
  77.4470204   1.3097036  22.4117013  77.2023756   0.5381477  21.9007417
  76.7279658   1.9262588  22.2736665  73.2212524  89.8011760  10.4904386
  73.9923363  89.6376184  11.0334894  72.4859695  89.4905547  11.0187455
  59.8174858  75.7848358  87.2937012  60.1736116  74.9526215  87.6048756
  58.9021969  75.5924892  87.0900345  89.0699344  87.9445318  23.0197736
  88.2897954  87.3913077  23.0592080  89.3164115  87.9454211  22.0948526
  13.3306743   8.5912121  46.9234582  12.7856875   8.6642492  46.1399480
  14.2205621   8.4851396  46.5871927  14.7480103  99.1283730  36.4618894
  14.9210449  98.6985711  35.6242963  13.9156719  99.5824698  36.3306352
  99.5454173  90.8494095  48.1367036  98.9224963  91.5410427  48.3599588
  99.9373345  91.1370782  47.3121568  14.1341090  50.0049686  90.3277016
  14.1203129  50.9092712  90.0142097  14.1574860  50.0824404  91.2814713
  78.0272536  70.0775281  25.0396272  78.4997849  69.6760360  24.3104192
  78.1961207  69.4980220  25.7825204  81.8004947  91.5445069   4.7695943
  82.3912291  90.9211616   5.1923295  81.4600520  92.0771221   5.4883786
  19.9516965   0.4297579  38.2198449  20.4862262   0.9948719  37.6620313
  19.7228290  -0.3121149  37.6599523  34.9085855  69.6591330  72.5198555
  35.4757476  69.5329428  71.7591763  34.9117088  70.6050014  72.6666641
  14.8664380  14.3441284  18.6278936  14.6893550  15.1397741  18.1260701
  14.5881082  13.6313427  18.0528280 105.4635100  85.4357461  21.0357591
 106.2209515  85.0074843  21.4346334 105.3235869  84.9606756  20.2166292
   0.5906149  90.5442194   6.5712568   1.1533972  90.6795911   5.8089086
  -0.2943662  90.7150868   6.2490102  31.9086982  16.8494118  26.5844461
  32.2983981  16.7967976  25.7117482  32.6541568  16.8011988  27.1829339
  81.3495159  56.1283207  73.0237532  81.5152740  55.2956581  72.5816774
  82.2062111  56.5535069  73.0627298  90.3392892  98.6521129  14.0678617
  90.8433299  99.3185595  14.5347902  90.8657937  97.8563813  14.1442605
  36.6443944  38.0437660  76.6939783  37.3507810  37.5061512  76.3359022
  36.1366987  38.3129883  75.9284735  59.4240999  33.3902311  80.6799984
  59.3725491  33.6731720  79.7670269  59.9089527  32.5655270  80.6481552
  36.6474414  19.9030793  90.0283718  35.6958842  19.8808980  89.9269962
  36.7855453  20.1934528  90.9299564  98.9164266  39.3702305   3.2645913
  98.8081536  40.0305641   2.5801488  98.2038817  38.7492741   3.1131765
  23.6781646   9.6451700   7.6285573  23.5590507  10.5917204   7.5505372
  23.2821561   9.2876327   6.8338414 103.9910464  74.4353727   0.6855604
 103.6095815  73.8310126   1.3223192 103.3995728  75.1879601   0.6854650
  61.5814161  29.2038512  70.8898830  61.5178728  28.3411980  71.2997961
  62.0456934  29.0448999  70.0680494  84.9314599  94.1443233  48.9025899
  85.3295426  95.0079087  49.0120622  84.0511708  94.2384938  49.2665311
  90.1508527  79.7248844  52.3881170  89.9198489  80.0643448  53.2527753
  90.9660249  79.2435531  52.5297281  96.3055143  13.9250887  20.9564897
  96.5349993  13.9969576  21.8829938  96.6759238  13.0861080  20.6823846
  78.5879044  88.7448815  27.6280137  79.5316987  88.8414983  27.5009176
  78.2140021  89.5482496  27.2660371  70.9911280  72.9888205  16.5501043
  71.7607169  73.2853250  17.0359536  71.3123469  72.8387765  15.6609842
 107.6488337  19.0576828   0.0761434 106.9790277  18.5094726  -0.3325919
 108.0062041  18.5151279   0.7791063  37.1834803  46.4612198  76.3435745
  36.3995242  45.9702015  76.5896320  36.8480468  47.2524118  75.9219885
  18.0747747  91.8735123  80.9833622  18.8434386  92.4431610  81.0131264
  17.8508854  91.7251492  81.9021034  11.3680459  20.0432670  39.4345304
  11.6013433  19.2734898  38.9156457  11.1642314  20.7167519  38.7856027
  76.6460562  62.2591209  83.7738323  76.1765909  62.0028305  82.9800129
  76.1981106  63.0507565  84.0719795  36.6099763  64.3865967  89.1827106
  36.3049316  65.1328802  88.6667252  37.2281861  63.9348936  88.6082458
  49.8805766  99.9849633  16.8113061  49.4782202  99.1194896  16.7385312
  50.7344501  99.8883513  16.3896486  78.2898812  72.5519303  45.6400701
  77.7315621  72.5583033  44.8625966  77.8125958  72.0157782  46.2733003
  79.3025403  86.8862037   9.3172857  78.4473138  86.7407564   9.7218438
  79.6612220  86.0075025   9.1929361  52.6968099  18.0144251  18.7397310
  53.5264779  18.4890259  18.6884805  52.9087926  17.1289003  18.4445401
 102.7901349  18.1421888   9.5613500 103.1189665  18.0476511  10.4553052
 102.1254525  17.4585712   9.4770929  11.4233829   6.5753448  18.7713167
  10.5639316   6.4557732  19.1753980  11.3851882   6.0550964  17.9687520
  51.7590945  83.3530787   6.8758699  51.9051354  83.8609866   7.6739522
  52.4647181  83.6226324   6.2879392   1.0789677  75.8446626   3.5707303
   0.1282068  75.8552770   3.6810705   1.2907311  76.7152671   3.2339212
 111.2458810  25.2521170  33.9724656 110.8535704  26.0255611  33.5673543
 110.4993448  24.7056902  34.2180845  81.2332921  86.9294456  32.9281923
  81.8369250  86.2531022  32.6209089  80.3912549  86.6938523  32.5387021
  80.2867656 101.5840558  58.2405111  80.6524997 102.2196273  57.6252672
  79.5597510 102.0459155  58.6580869  11.0028359  87.0889811  27.2172281
  11.9344517  87.0244769  27.4273702  10.9802529  87.4968461  26.3515683
  20.9799243  30.7983578  46.6616556  21.9110633  31.0014713  46.5724965
  20.6645156  31.4082992  47.3285314  76.5842895  98.0441741   5.9516832
  77.5168042  98.1038360   5.7441160  76.4619474  98.6517314   6.6811677
 104.6168141  70.4150061  29.1719838 105.0971894  69.7989182  29.7250768
 104.5129828  69.9572567  28.3377668  35.6052923  31.1396241  87.0075989
  36.2396693  31.1414790  86.2908077  34.7725129  30.9200954  86.5898418
   0.7672502  19.9419392   4.5812246  -0.0102400  20.4886949   4.4681093
   1.3808418  20.4951656   5.0646230  90.9490542  50.7679028  20.7507535
  91.5789418  51.1836930  21.3394662  91.4034276  50.7190315  19.9096891
  85.7735972  99.3915442  23.0974885  85.5460124  98.7895421  22.3889467
  86.6671042  99.1488055  23.3403035   6.4329816   3.2200420  16.7809221
   5.7834531   3.9154375  16.8846914   5.9600354   2.5144422  16.3396856
  62.4845342  89.3374685  13.8000699  62.0664673  89.9480728  13.1929323
  62.0366244  89.4837860  14.6332570  65.7879596  78.6296824  31.9342252
  65.7248859  79.2526225  32.6582357  65.7429724  79.1721848  31.1468908
  75.6463938  90.1015667  11.9595643  76.4433460  89.7046570  11.6080591
  75.7354455  91.0337285  11.7611238  43.9590645  17.3549700  71.6659212
  43.7665892  18.2923925  71.6452789  44.8491430  17.3008180  72.0138550
  46.0979556  80.0976614   8.0660650  46.6286336  79.4118456   7.6607629
  46.0906474  80.8064512   7.4227926  93.2206111  94.0714625  41.6224691
  93.4584622  93.4762362  42.3333570  93.1681161  93.5110167  40.8482763
  92.2674899  89.5802573   0.4169198  93.2231479  89.5495037   0.4617330
  92.0737653  90.4259590   0.0125810  66.7005782  93.6778287  19.8461934
  66.6693907  94.0850333  18.9804860  67.5357203  93.9644937  20.2157804
  98.5373883  87.5526456  53.1874963  98.9198069  86.7160849  53.4523603
  98.1340937  87.3734120  52.3381063  54.8741627  23.5280728  77.0163202
  54.1550732  23.0319500  76.6251707  54.4482994  24.1143417  77.6417494
  75.3577452  92.8224973  11.2321588  76.0947232  93.4296540  11.2989160
  74.8790054  93.1114224  10.4552671  65.5080938  10.7185924  77.5212383
  66.4055681  11.0467434  77.5767946  65.6056643   9.7837400  77.3402309
  59.1568665  60.8528868  35.5617830  59.6588497  61.5151701  36.0367795
  58.3000045  61.2561277  35.4224321 107.6789794   3.9825476   5.2754709
 107.3237333   3.1775558   5.6523248 108.1634054   3.6918342   4.5027753
 109.3474608  49.7944832  64.1228724 109.5170999  49.6634054  63.1899881
 108.9399914  50.6591702  64.1730356  10.3954506  32.1995091  90.3547287
  11.0947514  32.0870185  90.9985828  10.5953872  33.0321431  89.9269676
  59.9197750 100.2969150  17.0331498  60.7745581  99.9048022  17.2115442
  59.2894487  99.6642093  17.3775407  90.3059916  63.9804236  51.7324373
  91.1021285  63.4532634  51.7995282  89.6576361  63.5018949  52.2490426
  95.5490928  35.9422580   8.5532113  96.1974053  35.5552033   9.1415139
  95.1998477  36.6889957   9.0396615  96.3507800  89.4208960   8.1303426
  96.8470101  89.7991971   7.4044820  95.8115439  90.1426295   8.4536954
  94.3210511  99.8580913   9.7820398  94.5277743 100.3793744  10.5577680
  93.4108310 100.0766829   9.5821687  89.6220879  84.3841628   0.3705236
  89.9457602  84.3070940  -0.5269889  89.5606665  85.3271679   0.5228349
 103.1871514 101.0301236  16.1718293 102.3847632 101.2654523  16.6376897
 103.2814984 101.7061070  15.5007287  82.0261589  35.0036323   2.5965234
  82.5221285  34.4033325   3.1531926  82.6945856  35.5165661   2.1422788
  49.2353515  79.9748258  47.7398034  49.7633962  79.8502234  48.5283967
  48.4184496  79.5106749  47.9227468   7.0763255  11.9646252  36.2845823
   7.6888562  12.0110214  37.0186731   6.2689544  12.3531235  36.6214105
  55.0561380  36.1122465  82.4869061  54.9138451  35.1901889  82.7009106
  55.2759123  36.5212464  83.3239555  44.4818449  15.2784574  73.8687515
  45.2207375  15.2033579  74.4725943  44.3438816  16.2210250  73.7751293
   4.3956801  88.3321957  14.2068693   4.8987004  88.9244679  13.6479207
   3.5145375  88.7058834  14.2200204  62.0114951  99.0045909  19.2674466
  62.3393183  98.2348660  19.7325155  61.1553292  99.1750316  19.6600839
   0.1800324   4.7115744  21.9494649  -0.2930569   3.9388359  22.2581693
   1.1002327   4.4481409  21.9575998  70.8402972  95.1456622  31.0322305
  70.9510355  94.4046048  31.6278859  70.4223780  95.8215264  31.5658876
  69.4021225  53.5611343  84.1733265  68.8177013  53.7123108  84.9161816
  70.2668285  53.8193703  84.4924450  24.9701406  40.3639973   1.9901010
  24.8962308  39.7141636   1.2911817  24.8380757  39.8648918   2.7961370
  64.8533010  29.5985413  88.3229160  65.5810976  29.7786045  88.9179993
  65.1702833  28.8883686  87.7648735  29.3385078  12.8894365   7.4772569
  29.7985126  13.3546532   8.1759664  28.8401700  13.5696781   7.0243093
  97.9230175   5.5840814   9.3289872  98.1688676   5.8813846   8.4529706
  96.9669160   5.5430687   9.3084451  51.6303636   4.6651066  36.2619993
  51.2600423   5.4822576  35.9282991  52.5776006   4.7934568  36.2121412
  83.2461219  66.1232559  16.8497297  83.4167485  66.8440536  16.2434598
  84.1136651  65.7806078  17.0646592  36.9068742  74.6007538  88.8530159
  37.7137280  74.9394655  89.2409515  36.2277937  74.8052835  89.4958591
  81.5586381  76.5619472  35.3475972  81.5435986  77.1181325  36.1264821
  80.7235627  76.7355589  34.9131509  63.9650326  94.2917994  24.3939802
  63.4929256  93.5024718  24.1288301  63.3060460  94.8284511  24.8343965
  54.5680492  94.7383574  19.3647691  54.8462169  94.7097758  18.4493276
  53.8206642  94.1417960  19.4067308  70.8980088  51.2346581  22.7332994
  70.8332543  51.6777543  23.5792943  71.8065862  51.3668002  22.4626371
  53.5246181  34.8482299  79.4980192  54.3074799  34.7623372  78.9539814
  52.9473019  34.1454506  79.1996288  51.7458534  35.9145832  82.1907616
  52.6059437  35.5011296  82.1163845  51.8375731  36.5288568  82.9191113
  91.4636092  98.7752227  41.1011430  91.1879449  97.9197816  40.7718107
  92.4004416  98.6760549  41.2706968   2.0929385  11.2310207  13.1585428
   1.6110660  11.2911690  13.9834138   2.3147226  12.1371448  12.9440996
  99.2466597  94.6585778  20.9458276  99.8420958  94.5909862  20.1994249
  98.5810427  95.2865819  20.6651231  95.1553754  97.8169141  75.4519129
  96.0496835  97.7940926  75.7923841  95.2613715  97.9365579  74.5081520
  91.9951539  91.0495404  40.8810827  92.6685242  90.9800390  40.2043458
  91.3976912  90.3239802  40.6998845  49.4149590  84.0308094  89.1129208
  49.7677946  83.4544563  89.7908306  50.1859999  84.3457317  88.6411667
  38.9449382  34.2404008  61.3202000  39.3904757  33.4317183  61.5727043
  39.6171117  34.7545791  60.8729458  61.4025879  46.1096334  77.9563284
  61.1302137  46.4426756  78.8113880  62.2098637  45.6267595  78.1334352
  31.0605423 102.5560550   5.2947542  31.4421265 103.4052686   5.5171605
  31.7745935 101.9316367   5.4230615  48.1084156  20.5047750  85.4305458
  48.4071636  19.6608925  85.0916576  48.7870932  21.1243153  85.1625919
   9.0942956  14.1217745   5.1227304   8.1423284  14.0955007   5.0262853
   9.2435266  14.7029674   5.8685037  79.8682742  95.6346444  18.0729886
  79.9150424  96.2793569  18.7789556  80.2345280  94.8361758  18.4531709
  19.0066326  43.1398153  84.7079563  18.9738727  44.0785408  84.8922157
  19.9384582  42.9226494  84.7357655  35.7428694  39.8663878  78.6277485
  35.4138637  40.7329273  78.3887863  36.0280538  39.4815564  77.7990103
   4.8863269  13.2588947  16.8996545   4.8536969  12.8796614  16.0213968
   4.9194671  12.5029409  17.4858877  37.2999597  27.0724893  69.0090227
  37.1574640  26.1595654  69.2590189  36.5268850  27.5334716  69.3347263
 108.5912757  89.2852286  26.3301870 109.1953139  89.1492108  27.0601674
 109.1097884  89.0875916  25.5502435  73.6017756  73.9723448  10.6104585
  73.7528496  74.4297317  11.4376279  72.8430824  74.4132451  10.2280637
  23.7628293  66.7751980  89.1175461  23.1441474  66.6275311  88.4022427
  23.6851239  67.7091122  89.3124676  11.5885449   1.2502420  28.9326688
  10.7142545   1.5749348  28.7172147  12.1842052   1.8503368  28.4840032
   3.1025363  13.7974871  12.9889222   2.9241515  14.5879209  13.4984514
   3.8248111  14.0431059  12.4108049  48.6083078  62.2701931  82.0353603
  48.0297375  62.2125912  81.2749863  48.7836218  63.2061672  82.1325684
  27.3439027  15.0790012  11.8174955  26.5860892  15.4286278  11.3487550
  27.2582198  15.4273212  12.7049371  16.6624070   6.7569721  32.5076982
  17.2082616   6.3064039  31.8632909  16.3688184   7.5504434  32.0599958
  22.5547029   4.8913515  19.6769735  22.7684785   4.0564287  19.2605230
  23.3431769   5.4227722  19.5668050   6.7811061  30.9428585   8.2393285
   6.3315393  30.1038540   8.1382963   6.0936738  31.5985668   8.1222364
  60.8004408 101.3745240  23.0425092  61.6616230 100.9568290  23.0311796
  60.6436019 101.5750054  23.9652463  68.6566925  66.5319061  73.1247282
  68.0355358  67.2240162  72.8980494  68.1976414  65.7191896  72.9126024
  68.5244465  78.2912731  81.1275482  69.3274641  78.2357073  81.6455269
  68.4973574  77.4687624  80.6386948  84.8340783   8.4683025   6.5923330
  84.1721985   7.8061092   6.7914506  84.9532280   8.9428080   7.4150583
  30.1612020  36.2830949  86.9099712  30.5522537  37.1141601  86.6404533
  30.3879905  36.2009239  87.8362751  94.8777680  88.9346651  15.4923936
  94.7599606  88.1467322  16.0229703  95.8205657  89.0987472  15.5132982
  44.6157122  20.0868559  52.5820875  44.0082359  19.7081113  51.9466734
  44.9913359  20.8438659  52.1325636  76.4526634 102.9310779  44.8340913
  76.3000541 103.6481027  44.2186185  75.7481460 103.0131272  45.4768583
  85.3846984  96.5526036  17.7437230  85.8893018  96.3076285  18.5193559
  84.5125108  96.1911324  17.9014036  28.4694673  14.6815575   1.0787221
  28.5791541  13.8016451   0.7182332  27.6353026  14.6463335   1.5468618
  58.2206345  68.6158752  79.7097540  57.4164009  68.3834791  79.2456102
  58.9094877  68.5363770  79.0499115  52.9512215  65.6045198  90.5997944
  53.3187914  65.7319736  89.7252178  53.7092638  65.6271648  91.1838245
  51.5225236  79.0778784   6.7190667  52.0221584  78.7814192   7.4798032
  52.1275549  79.6454100   6.2414953 109.9887042  65.0641362  49.4158288
 109.0417199  65.0017301  49.2910882 110.2248435  65.9110192  49.0373441
  22.5891067   4.1145265  55.1756688  22.8022386   3.2148207  55.4233285
  23.3605195   4.4208372  54.6988698  41.9755936  59.7002363  81.7423725
  41.7879105  59.4694567  82.6521778  41.4137936  59.1209459  81.2275505
  70.5678082  11.8426073   1.5670320  71.1576054  12.0104158   2.3020192
  69.7146222  11.6922272   1.9740888  19.3253804  15.6691540  40.8855363
  19.8113252  15.5616510  40.0678941  18.9922286  16.5658033  40.8500406
  90.9246783  76.9934992  26.2910863  91.1896710  77.8885988  26.0793992
  89.9693398  77.0311431  26.3373681  81.2923722  98.9598969  17.7868768
  82.1731000  99.1102866  17.4434587  80.7241015  99.4922666  17.2302076
  55.5903816  40.8758259  86.4210796  54.9028254  41.1287355  85.8050156
  56.2884808  41.5145206  86.2763023  65.6372671  89.7127441  50.6562635
  65.8046727  89.0526132  49.9836274  65.3909378  89.2078690  51.4312764
 102.0064645  87.9885844  11.8054410 101.3561587  87.6864938  11.1713430
 102.3277430  87.1874408  12.2191736  47.7194500  13.5862684  85.7330322
  48.5365582  13.9799762  85.4271507  47.1315765  13.6385453  84.9794388
 102.1617160  34.3580044  25.5981084 102.5060711  34.7824943  24.8123189
 101.3013396  34.7568024  25.7282659  44.3185426   4.6227920  15.5880853
  44.9240304   4.5823753  16.3283464  44.4387532   5.5015123  15.2280351
  15.9091140  26.2910974  10.2336332  15.1057817  25.9063375  10.5841371
  16.2776424  25.6076324   9.6739122  44.5763479  93.3983354  45.0656816
  45.0337349  93.6390332  44.2600175  44.8322140  94.0712337  45.6965371
  79.1526985  62.7769804  78.0735826  79.6122551  61.9813156  78.3418322
  79.0421963  63.2744694  78.8838482  96.0974321  11.0162199  45.2452775
  96.2731037  10.0800121  45.3395101  95.2488551  11.1445415  45.6691667
  11.0036326  21.7014587  22.6081392  11.2244035  21.1500252  23.3587476
  10.0723315  21.5394342  22.4575921  15.7351543   1.0820806  15.8417722
  15.2805615   0.3069723  15.5119439  15.0867225   1.5253818  16.3888093
  31.0234523  69.0211535  78.0009937  30.8214903  69.9424362  77.8376484
  31.6052103  68.7724829  77.2826958 108.5215525  98.1271056  22.2171422
 108.0499463  97.9381827  23.0283853 109.3965821  97.7660016  22.3591253
  15.6800128  16.9821823  17.3125001  15.7897235  17.5347364  16.5386316
  16.3233138  16.2823332  17.2002527  15.1349986  93.8155842  77.3548174
  15.1852572  94.5518970  76.7452621  16.0294068  93.7121487  77.6797295
  74.5532799  72.2795343  71.2982893  74.9322367  73.0886507  71.6417456
  75.2648926  71.8727255  70.8039713  27.0585966  64.1830397  82.8610039
  27.5494003  64.6311998  83.5498333  27.6182699  63.4493065  82.6067734
  83.8675361  93.8754109  36.9205209  84.0684275  94.7510413  37.2508928
  84.7172456  93.4375695  36.8703481  15.7178260   0.0580633  47.1307203
  15.5212833   0.3623522  48.0167314  15.6719924   0.8471287  46.5908071
  74.3984752  89.9506120  29.1623899  74.7851972  89.2150859  28.6873361
  74.7710590  90.7275061  28.7454339   9.9080516  20.2664507  50.5515786
  10.4340030  20.4060018  51.3390561   9.3373252  19.5303238  50.7720681
  33.7023021  17.7079523  17.4068376  33.3312131  17.7268637  16.5246984
  33.4278489  16.8633879  17.7640745  98.1755452  99.8202256  32.1772691
  98.2192664 100.3113917  32.9976865  98.1119256 100.4924134  31.4987871
  11.5375806   9.9110163  29.4432947  12.1045543  10.3440988  30.0814267
  10.8749343   9.4681251  29.9733659  16.1130429   6.2675560   7.1416494
  16.6428758   6.7709721   6.5235254  16.7490388   5.7530678   7.6386854
   3.0610419  16.6556490   9.5876809   3.5643006  16.2402285  10.2879545
   3.0646611  17.5866640   9.8099920  85.6324248  88.8802771  28.5777398
  85.1613765  89.5853523  29.0218278  86.4310412  89.2945270  28.2508870
 101.1652193   7.0101154  10.4468747 100.9717903   7.9366863  10.3044626
 100.9158811   6.5845526   9.6265336  77.8518014  98.3573369  41.9379064
  77.6123528  98.6953382  41.0749742  77.4165778  98.9457444  42.5548192
  75.0777626  33.2844377  87.0007801  75.0644541  32.4203849  86.5891171
  74.3428469  33.2689905  87.6138783  47.8533649  93.5877514  90.3962326
  47.0456171  93.8100147  90.8592415  47.6178932  92.8374672  89.8504543
 101.5408950  68.7513498  37.2192308 101.7978101  68.2792691  38.0112954
 100.6923346  69.1379193  37.4354287  58.9667826 104.4541005   9.2200490
  58.4569292 104.3052844   8.4237214  59.1514807 105.3932933   9.2141744
  67.0027594  93.0710439  14.5536920  66.1613612  92.6507787  14.7316190
  66.9693665  93.2890777  13.6222574  45.7445192  78.7692022  89.4852924
  45.5624866  79.2745543  90.2775764  46.3784552  78.1080770  89.7632790
  84.0956688  51.6720915  72.0007849  84.3499565  50.7896614  71.7307949
  84.4142628  51.7485237  72.9001665  59.3270875  18.6696041  12.0371362
  59.3937875  18.5803402  11.0864469  59.1177846  17.7882374  12.3463556
 105.8125076   9.0086544  32.3571321 105.6761608   8.9613998  31.4108678
 105.5460486   9.8971308  32.5934335  55.9355371  68.8647727  24.8276349
  56.6553526  69.0921215  24.2390653  55.5125182  68.1145243  24.4100019
  72.4994230  77.1744204  74.5939684  71.6946697  76.6711855  74.4700336
  72.4881792  77.4201536  75.5190229  99.7370562   0.3386104  16.2954255
  99.2628154   0.9967888  15.7873555  99.1396913  -0.4081642  16.3368436
  62.9772472  93.0764198  79.9712896  63.7401342  93.0780029  79.3931580
  62.9407072  93.9662743  80.3220654  66.7865066  97.9725436  71.8892499
  67.3309021  98.2809714  72.6136228  66.1636262  98.6834744  71.7381688
  89.8242240  98.8498525  25.1116773  89.0258841  99.0988902  25.5773660
  89.9478822  97.9251555  25.3258535  51.2272358  48.9594316  88.5927773
  50.3531313  49.2526293  88.8500881  51.6260147  49.7266722  88.1822300
  66.8198376  94.9404649  17.4154683  66.6389875  95.8224133  17.0903608
  66.6454749  94.3690757  16.6675779 100.2351126   7.5950945  13.2004091
 100.3884730   8.0765808  12.3874589 100.5448923   8.1832016  13.8891717
  13.2644082  10.3807581  14.9468538  12.6575376   9.8233450  15.4339238
  13.9656831   9.7894991  14.6732637   5.9628631   7.2838247   4.0233251
   5.5148889   7.9641378   3.5206147   6.7965079   7.6814592   4.2746183
  36.5340091   2.4896801  29.8437043  36.3767863   1.5874899  29.5652028
  35.6729652   2.9059637  29.8044511   4.7097059 104.2506293   0.6261274
   4.6982809 104.7554997   1.4392778   5.1588055 104.8171500  -0.0012473
  21.1095763   5.5085028   5.4011365  21.7697621   6.1932552   5.5083772
  21.0265399   5.4021728   4.4534894  79.6746016  53.5645056  89.7426605
  78.7646818  53.8078642  89.5722008  80.1016140  54.3869495  89.9824047
  79.5425844  60.9067059  69.8080730  80.2704430  60.3698683  70.1215315
  79.0546656  61.1343336  70.5994987 105.3299198   4.4277609  74.0023061
 105.3372798   4.8709572  73.1539174 104.6248254   4.8543203  74.4892522
  13.2066818  96.4208392  40.5802938  12.7424046  97.1558503  40.9808370
  13.6116215  96.7919187  39.7963640  34.8230147  60.8470345  81.0019207
  34.7080803  60.9877443  80.0621128  33.9318061  60.7836103  81.3453579
 100.1832232  10.5388534  41.7562982  99.4735107   9.8986376  41.7046853
 100.2236900  10.9227121  40.8803769  19.5222140  25.9731901   3.3095857
  19.1419602  25.1113928   3.4797117  19.8320676  26.2713182   4.1647741
  56.3608171  10.4485882  14.9659177  57.1632291  10.8358562  14.6160814
  56.6213895   9.5719660  15.2485200 109.7423634   2.9936254  39.2535898
 108.8784036   2.5820196  39.2732641 109.6150384   3.7934959  38.7434694
  86.4890787  17.0924938  14.1466066  86.8150887  17.0403660  15.0450631
  85.6099078  17.4613130  14.2318460  20.8855487  44.8563850  54.9332734
  20.2191640  44.3812073  55.4296228  20.6253720  44.7481811  54.0184900
  38.2628108  14.7307146  32.4555036  37.8643895  15.5004728  32.0493337
  37.5285913  14.1383398  32.6175042  58.3902264  90.8274555  86.3655663
  58.8112736  91.6845226  86.4317703  59.0810585  90.2449703  86.0498238
  40.3304863  80.9753132  82.6375771  40.2207899  81.3316822  81.7559814
  40.1344109  81.7099857  83.2189941  50.8382512  41.3660038  85.2149984
  50.6280328  42.2181309  85.5970022  50.1405908  40.7871235  85.5222150
  89.7539525  86.0723142   8.3806726  89.8889832  85.1321939   8.2616350
  90.3432612  86.3101892   9.0964719  93.3101949  29.4901646  41.1320993
  92.6255498  30.1299084  40.9366056  93.5337088  29.6511257  42.0488092
  97.4287605  53.2551622  83.8497829  97.1736240  53.8490868  83.1438065
  96.8838596  53.5171461  84.5918560  69.4687538  86.7821173  21.5556070
  69.7169499  86.2116317  20.8281633  69.2204432  87.6073054  21.1389085
  94.4407420 100.3026036  17.7045938  93.9578681  99.6255712  17.2305795
  93.7755923 100.7484464  18.2290288  44.7976780  65.3810549  67.8191614
  44.4418383  66.1100435  67.3110390  45.6459284  65.6973457  68.1300831
  91.2467055 102.2682361  24.9601671  91.5353303 102.2781209  25.8727666
  91.3486724 101.3566569  24.6865770 103.6985502  51.0374725  24.5524045
 103.5757289  50.7410229  23.6505910 104.5639333  51.4465416  24.5543023
 110.5435333   2.0166767  36.3063451 110.1659188   1.1779297  36.0415098
 111.3334331   1.7807901  36.7928144   9.7551247  93.1526116  48.7785741
  10.0053688  94.0746764  48.8369294  10.5792328  92.6899127  48.6269399
  29.6639682   0.4284609  31.8336603  29.5380784  -0.4856455  31.5791150
  30.4269839   0.7140959  31.3312169   0.6822964  59.1896043   9.8614236
   0.3775069  59.8054925   9.1950723   1.6362330  59.2654059   9.8392030
   4.3866297  92.1946744  28.3079263   4.8076817  91.3748173  28.0494996
   3.8352915  91.9562534  29.0531846  83.4910302  97.4709872  53.9713785
  82.7739720  96.8549851  53.8210412  83.8684039  97.6156358  53.1036779
  14.8697659  91.1343078  55.2839681  14.7888943  90.4081015  54.6656534
  14.1422173  91.0117988  55.8937951  37.5600387   2.1524322   9.0837880
  37.8811456   1.6689814   9.8449727  38.3034087   2.6899088   8.8103792
  56.7796993  64.5108318  74.9546623  56.1402464  63.8024950  74.8798561
  56.3333416  65.1830673  75.4695415 108.0534367  99.8889045  35.3489133
 107.4526887  99.5706538  34.6750852 107.7126317 100.7515029  35.5855771
  95.3190899  61.7954016  83.8399982  95.7686806  62.6404476  83.8392448
  94.6376133  61.8860769  83.1739712  93.8507514  90.8046321  20.2030202
  93.3574109  89.9844388  20.2144071  94.5927720  90.6459288  20.7864972
 100.1892857  86.8268732  60.4761239  99.7048621  86.6478399  61.2820455
  99.7732978  87.6099352  60.1155683   0.5617901 102.5698642  60.4170343
   1.4636036 102.5060586  60.7314988   0.0368210 102.6618747  61.2121221
  57.8393698  64.0381241  86.8593597  57.6586580  64.6700525  86.1634827
  58.7002516  64.2897272  87.1937370  24.9720241   5.6364239  43.9481946
  24.5188428   5.3862846  43.1430265  24.4603635   6.3679159  44.2936632
  25.4305840  69.1208887  86.1729336  25.9654808  68.3291006  86.1164474
  24.8832536  69.0966845  85.3880310  50.6374742  12.6535786  35.7976266
  50.5268956  13.5239923  35.4150220  49.7648049  12.2622288  35.7587358
  93.2387373  16.1312569   5.3248426  92.5986585  15.4230869   5.3957483
  93.3510122  16.4434040   6.2227269  10.9828807  24.3124807  52.7184602
  10.4725743  23.5031736  52.6895734  10.4646779  24.9030006  53.2652494
  43.0913068  20.7642401  49.9660131  42.9884435  20.6954945  49.0168401
  42.5894452  21.5433491  50.2055093  89.6868424  71.7811421  36.5173837
  90.3445916  71.9166104  35.8352968  89.3151145  72.6503161  36.6676637
  43.0216600   2.6505459  18.6374017  43.8987161   2.5810755  19.0144655
  43.0127240   2.0045269  17.9311391   4.6856371  27.9158044  82.5889969
   4.0603423  28.5834312  82.3070145   4.7790045  27.3394847  81.8304634
 101.7907862  78.9184503  37.4949476 101.9688420  78.5410670  36.6334840
 102.4760775  79.5759181  37.6147004  43.3234549  28.2583117  73.2567596
  43.8685131  28.8918734  73.7233925  42.4383307  28.6188197  73.3098602
  53.8566972  40.3260506  27.9398652  53.4720517  39.6398247  27.3945447
  53.1062509  40.7496155  28.3566018  98.4428315  85.1601104  46.0788747
  97.6922946  85.5269126  46.5461847  98.3352904  84.2123894  46.1594411
 103.3871608  85.8288721  12.7759191 103.4368567  85.1802186  12.0737764
 104.2325883  85.7659940  13.2203599  62.0823626  82.5600223  51.2381765
  61.2134986  82.1701030  51.3344499  62.2806458  82.9196409  52.1028062
  87.7892165  94.8496322  27.2447988  87.4572711  94.2788533  26.5517923
  87.1940141  95.5992726  27.2432920  30.5914928  26.7959154   9.6414110
  29.9488593  26.1498773   9.9344846  30.1580907  27.2557342   8.9224073
  54.4783776 102.9809693  21.5053674  54.3952768 103.4288959  22.3472043
  54.4464354 102.0499162  21.7252752   2.6580859  25.3479708  11.6891691
   1.8032886  25.7349337  11.4999219   3.0023099  25.0967253  10.8320733
  95.0445990  96.9669751  27.5919458  94.3050103  96.5096740  27.9920884
  95.4534154  96.3120345  27.0261213  54.5658331 100.4596213  14.2814561
  54.6603339  99.6360902  13.8028165  55.4238682 100.6047563  14.6801301
   7.7029134   5.2167213  20.6473848   7.2912217   4.5317305  21.1741945
   8.1793214   5.7527006  21.2814161  32.3598146  49.0566301  81.5455055
  33.1755710  48.6113930  81.7747211  31.9090796  48.4456444  80.9626102
  80.8100133  85.3007153  35.2550336  80.9813170  84.3874482  35.0251981
  81.1192708  85.7999853  34.4991800   1.3260175  15.1747311   3.1082841
   2.0038820  14.7146404   2.6132604   1.5113426  16.1024940   2.9628965
  37.7741481  30.7972324  10.9624692  37.1878577  31.5310181  10.7779332
  38.3141376  31.0998524  11.6925737  81.3568597  92.7658776   7.2633001
  81.9244819  93.1066827   7.9545995  81.0745578  93.5426930   6.7805024
  18.6534406   9.3035829   2.1793004  18.9087916   8.4155310   1.9295141
  19.4412805   9.8282850   2.0370599  78.2953601  60.7710210  12.1406003
  77.9590945  60.3932575  11.3279172  79.2439322  60.6561504  12.0836088
  67.4762869  43.9000034  87.6739502  68.2196951  43.9419746  88.2754612
  67.7871466  43.3615017  86.9462013 110.9434757  10.3833092   2.0678922
 111.4722261  10.6070602   2.8337880 111.0519561   9.4373262   1.9700261
  34.9936772   3.3892382  13.8046094  34.5430900   2.9118669  14.5012685
  35.8963443   3.0730617  13.8426992   8.6055327   1.9515121  14.8428365
   9.4824649   2.2816313  14.6472760   8.3709670   2.3706329  15.6708165
  99.1114096  91.2835864   9.0315839  98.5562711  90.7787661   9.6259042
  98.7818007  92.1797065   9.0991327  33.9833785  28.3764732  17.0617505
  34.2548801  28.5866249  16.1682531  34.6999074  28.6946667  17.6109048
  48.6641455  67.2348881  90.4407406  49.0080643  66.6014719  91.0706139
  48.5593367  66.7349434  89.6312332  97.2389655  91.7662601   6.1344072
  97.9214721  92.0829205   5.5426809  96.7204003  92.5441150   6.3399907
  79.8349051  81.6288308  52.2022268  80.0450377  82.3084406  52.8426954
  80.6692271  81.4370779  51.7740079   0.8189798   3.5138405  24.9544069
  -0.0597118   3.4158981  24.5876046   1.0149504   2.6591289  25.3382036
  83.8119702  42.7303550  18.5546228  83.1862788  42.9901937  17.8784391
  84.5396046  43.3444557  18.4563466  37.7226974   2.2733629  14.1435071
  38.6320878   2.5548304  14.2435952  37.5042153   1.8665731  14.9819681
  18.9967156  12.4201048   8.5364457  19.5742656  12.3005999   7.7825280
  18.5463239  13.2470215   8.3644315  73.2346582  74.4973326  89.0503597
  73.6484194  73.7756157  88.5769081  73.8660574  75.2144766  88.9931965
  19.0109826  18.5825909  27.5762674  18.6658813  19.4519365  27.3728582
  18.6276294  18.0110348  26.9109842  43.4497353  98.8005856  19.4833680
  43.9415547  98.4195403  18.7559434  42.5320240  98.6483983  19.2577859
  15.9499928  83.9699964  49.8466131  16.3025948  84.7441892  49.4078275
  15.0108334  84.1412500  49.9165651  74.7006898  81.0973505   0.6800958
  74.5022969  81.3219027  -0.2289942  74.1915660  81.7212967   1.1975118
  68.6132626  95.8114890  28.7692663  68.4359126  95.0550965  29.3284150
  68.0967693  96.5198211  29.1536256  35.9188890  52.7309465  88.1330681
  36.6317081  52.8456593  87.5046158  35.9591103  51.8055916  88.3745861
  66.4532738  83.6615995   5.0264951  65.5248051  83.4289793   5.0185510
  66.7736559  83.3396224   5.8690568   1.9534441  63.1648616  15.9596750
   1.9179531  62.8178886  15.0682851   2.7540871  63.6890296  15.9809610
  55.5923748  71.8370771  84.7873592  55.0755978  72.1972704  84.0666389
  55.6091881  70.8943748  84.6222687  19.6588708   3.6636389  19.4353124
  20.2712775   2.9542005  19.2406770  20.2164603   4.3962944  19.6971246
  29.3546725   7.3698223  28.0104562  29.7596503   8.0302036  28.5727044
  29.0751411   7.8550375  27.2341462  18.6029049  85.9356812  18.2679769
  17.8622147  86.2818245  18.7657663  18.9394757  86.6897396  17.7838727
  89.0683746  76.4336109  88.4026527  89.4425583  75.5805445  88.6228752
  89.6267605  76.7658281  87.6997566  93.7869987   5.6282890  38.0364915
  93.2534597   6.1895168  38.5991498  93.8823745   4.8144377  38.5312482
  49.2860414   0.8751095  25.3888246  48.4614564   1.3439215  25.5173227
  49.8745824   1.2401522  26.0495778  63.5981560  60.2426672  82.6854038
  64.0726471  59.8542356  83.4203911  64.2738199  60.4199219  82.0309639
  86.4320183  20.7491755  83.1493473  86.2561703  20.3650975  84.0082932
  87.3842335  20.7101464  83.0599308  82.0053864   4.6894169  78.5844994
  81.2191677   4.9213856  78.0902529  82.7239323   4.8165339  77.9650068
  37.2066785   0.2447307  36.9143125  37.0165397   0.8552826  36.2020608
  36.3570357   0.0830877  37.3244497  52.5659227  37.3381019  84.2363930
  53.4200573  36.9542837  84.4348049  52.3478889  37.8521228  85.0138664
  51.3432789  38.5876536  86.4588356  51.0252047  37.7041626  86.6445827
  50.7780027  39.1597772  86.9778442   7.2094203   5.8706606  58.3428022
   7.7093650   6.6063631  58.6963865   7.3728467   5.9010351  57.4001428
  89.2482905 103.6156825  43.2037374  88.7373547 104.3172149  43.6075040
  89.0238337 102.8344611  43.7092515  25.6083680   3.4430159   2.3316118
  25.3809930   3.1381119   1.4532205  24.8227836   3.8953817   2.6389428
 109.8283629 104.7469644  27.6968595 109.4707875 103.8600615  27.7390024
 110.6752734 104.6849994  28.1386014  85.3587012  94.6300248   2.3299810
  84.9168210  93.9362983   2.8195878  86.0489087  94.9361018   2.9183313
 101.0530195   4.9370945  13.2101175 101.8253526   4.9363411  12.6446649
 100.6129202   5.7640303  13.0133363  49.9582864   9.9699533   5.8577176
  49.2029763  10.4594601   5.5319616  49.5828248   9.3106258   6.4412900
  27.8566171   2.1403778   3.0400297  27.8157760   1.2162245   2.7940484
  26.9827319   2.4789226   2.8452226  73.8555865  74.9334148   5.1181146
  73.1633119  75.5872134   5.2157708  73.4784417  74.2696694   4.5406743
  43.7217760  50.5098915  90.6611633  43.2877302  50.1933813  89.8689079
  44.4552565  49.9083185  90.7890224  17.1727229  36.4557827  46.1392804
  16.8186666  35.9819115  45.3867360  17.8495933  37.0221985  45.7688066
  92.6049285  85.4724268  33.0816861  92.4666600  85.1180772  32.2033044
  92.2713523  84.7940592  33.6688634  30.7264138   5.6855762  32.0417425
  30.0864459   5.5942810  31.3358136  30.6687738   4.8615301  32.5253316
  58.4889890   6.7587746  34.4469949  58.7003041   5.8998526  34.0811750
  57.5352002   6.7566574  34.5277234 101.6831260  99.4772986   1.4653417
 102.4720054  98.9522008   1.6001626 101.0152154  99.0476827   1.9997140
   2.8564502  22.4579847  17.6241323   2.8549076  22.9659784  16.8128606
   3.4372378  21.7190159  17.4429056  60.9215498  78.0515862  86.2633514
  60.8219099  78.6261511  87.0224190  60.5780554  77.2072124  86.5553665
  23.1252671   2.9103458  17.6584169  23.7630130   2.6339901  17.0002767
  22.6769830   2.1032846  17.9112550  20.1382066   2.9422701   0.9962770
  20.1526500   3.8912666   0.8720609  20.0945855   2.5852478   0.1092168
  94.7835212  87.9268936   1.8414518  95.2516084  87.5041679   2.5614663
  95.4534488  88.4384159   1.3878270  71.7248730  89.8346070   5.6693574
  71.7577843  90.1865057   6.5589162  72.4328904  90.2838663   5.2077123
  43.9245415  28.9718413  84.1158104  43.1771183  28.6552024  84.6230793
  44.6268797  29.0683866  84.7589493  79.4530730  70.6145481   5.5334588
  78.8211827  70.1230363   5.0087091  79.5079379  70.1306657   6.3575193
  96.6850743  43.0239380  34.8110505  96.8239960  43.1082809  33.8677522
  96.4426455  42.1064556  34.9363443   7.5023080  40.7651413  61.8801996
   6.7993022  41.2864960  62.2677633   7.7608777  41.2545860  61.0992929
  94.3515973  50.0861112  20.4738733  94.5718007  49.4548235  21.1588594
  93.4371857  50.3133369  20.6425401   3.0824662  13.0900944  58.7202188
   2.6067997  13.3613241  59.5053407   2.4415422  12.5934828  58.2114717
  88.2725100 102.8008393   6.2695428  89.1717820 103.0848149   6.1055394
  87.7299933 103.4858922   5.8788892  84.3358521  36.0561494  11.5637704
  83.7749200  35.7391242  10.8558961  85.0879483  35.4640893  11.5568181
  63.3708478   0.7932556  12.1690770  63.3058072   0.0829828  12.8074380
  63.9770604   1.4181078  12.5669500  26.6136027  17.3493612   5.3403112
  25.8826829  17.0480526   5.8799478  26.3334466  17.1791923   4.4409868
   7.0660301  90.1499847  17.7693769   7.2619339  89.6770195  16.9605752
   7.4560543  91.0147313  17.6416227  45.6798649  64.9397326  55.0661469
  45.6273079  65.4591751  55.8684254  45.2472878  65.4781723  54.4034290
  36.2513972  42.5615585   7.1391794  36.8146802  43.2536877   7.4854585
  35.9736110  42.8851402   6.2822267  21.1774250   6.0752877  80.4015541
  21.4719006   5.7418355  81.2490940  21.9851490   6.2374791  79.9142218
  38.7562251  89.6679592  86.8507671  38.3466601  89.4260120  87.6813984
  39.4624972  90.2652740  87.0969868 107.7915964  15.5786646  13.2769510
 106.9848570  15.0977123  13.4615918 107.5323448  16.2464941  12.6421090
  27.9906798   1.7540777  18.5889360  27.1978475   1.2987078  18.8722726
  27.7442790   2.1736324  17.7646180  31.0906364  26.2061346  25.4406282
  30.8760978  26.4844788  24.5502683  30.2427770  26.0214842  25.8446904
  28.2544852  25.1848972  29.2092916  28.3116866  25.5768431  28.3378908
  29.1136981  25.3436268  29.6001836  25.1296617  27.8170193   1.6815015
  25.4641677  28.0811966   0.8244439  25.1952792  26.8620718   1.6802617
  66.8967390  48.9833832  78.6374664  66.4807796  48.1502342  78.8589859
  67.1468496  49.3582201  79.4819641  41.9414612  90.9748653   1.6618272
  42.3893830  90.3529648   1.0883828  42.5893208  91.1920051   2.3321744
  69.4952203  14.2230070  18.3835336  69.6228696  15.1660145  18.4868451
  68.7714292  14.1459740  17.7619001  37.5610925  12.0227802   2.0779344
  38.4485246  11.8807829   2.4073907  37.5109292  12.9661549   1.9237825
  40.9129954  15.2067888   0.5829927  41.2662078  15.9156311   1.1205980
  41.5992499  14.5394981   0.5855199  81.0132504 100.7011986  85.4141331
  80.7364273 101.6018200  85.2453709  80.6838894 100.2049923  84.6647739
  29.4618846  20.2195442   7.7017232  28.7281943  20.2197922   7.0869561
  30.1201917  20.7787407   7.2892209 107.0922856  93.1012897  57.8874227
 107.6639561  93.7447099  57.4685785 107.6746993  92.5977258  58.4561559
  33.8972140   4.3272579   6.2254735  34.6477605   4.2277706   5.6398031
  34.2124940   4.0157450   7.0738717  24.2939998  37.8876198  17.8848764
  25.2125503  38.1426323  17.9712983  23.8035108  38.6604393  18.1648942
  71.2205267  56.3964939  71.2702608  71.7665052  55.6141615  71.1921787
  71.5510035  56.9876862  70.5938673  40.6959106  50.8258522   0.2686616
  40.8280898  50.7986343  -0.6789855  40.9488870  51.7140377   0.5203649
  23.7973405  11.4376629  17.7886125  24.2389251  12.2866476  17.8101751
  24.0935517  11.0342777  16.9726678  35.6111337  10.5131853   6.7783853
  34.9270392  11.1643017   6.6225168  35.3958846  10.1394976   7.6329442
  21.1017419  36.2167061  11.5925046  20.9965135  35.2771938  11.7424413
  22.0489551  36.3478268  11.5498182 103.4187755  26.9213140  25.6368276
 103.5088787  27.7144230  26.1651155 104.1631970  26.3769281  25.8931753
   0.0056578  26.3005484  14.0917703  -0.0772094  25.5526102  14.6833345
   0.1391340  25.9094084  13.2283899  70.7492924  64.7613716  84.4891548
  71.6411734  65.1086712  84.5019817  70.7984591  63.9961481  83.9162350
  33.8996411  -0.0496256   4.5455095  33.5973598   0.7494152   4.1137716
  34.8405362   0.0822914   4.6618959  94.4544411  65.9294891  84.4706154
  95.3611183  65.8035517  84.1907978  93.9571476  65.2830982  83.9694881
 102.3097901  97.8929690  25.0973054 102.2686057  96.9467763  25.2360460
 103.2294612  98.1162671  25.2407380  40.4726554  25.4568518  35.6358930
  40.4279805  25.2735031  36.5743085  41.2850524  25.9511650  35.5268403
  36.9248105  24.9861896  14.8715421  36.4482881  24.4743669  15.5251428
  36.8706657  25.8880937  15.1875612   9.8902508  91.3975529  39.2027303
  10.0762364  91.0175661  38.3440992   9.6746632  90.6463913  39.7554609
   1.5399166  90.7338528  33.6882230   1.4228483  91.4652423  33.0819246
   0.6565758  90.3906063  33.8228437  71.7860746  33.7167168  85.2042007
  72.5493813  34.2748332  85.3528404  72.1422243  32.9275703  84.7959900
   7.8228375   6.9469937  62.2948456   7.1806999   6.2372979  62.2803116
   7.7910134   7.2804650  63.1915140  40.0579024  14.2187155   5.3422471
  39.6051789  15.0545681   5.2298471  40.7959462  14.2624271   4.7342893
  24.9763967  34.0675724  31.0223028  24.1524459  34.4508922  31.3229867
  24.7463466  33.1735981  30.7690927  40.1736928  15.7189262  30.7227155
  39.7484447  15.2172554  31.4182111  40.5501462  16.4768732  31.1699697
  18.9213845  82.5004295  26.4210244  18.1826397  82.5664929  25.8159467
  19.6844574  82.3821691  25.8553621  18.4577465  92.7227116  67.2481775
  19.1350114  93.1896687  66.7587900  17.6335227  93.0443287  66.8828678
  24.7901822  11.3363016   5.2298089  25.4703666  11.6120756   5.8442422
  24.8889018  10.3858412   5.1739904  79.8160648  91.8187618  85.2923584
  80.5733013  91.6080093  85.8386326  79.5524168  92.6941681  85.5758667
  64.2275100 100.1550607  13.2654306  64.2453532 100.8949832  13.8724157
  65.1013808  99.7700480  13.3313676  43.6289502  14.7523392  50.6323739
  43.5222341  14.5714701  51.5662500  44.3201066  15.4134405  50.5938932
  94.2570400  68.6918926  87.0478725  94.8098183  68.6798286  86.2665081
  94.0234756  69.6131372  87.1618176  60.1819277  68.3632994  77.9121876
  59.8405457  68.9959240  77.2801495  60.9927750  68.0433559  77.5167227
 110.0447802 100.3507737  29.8365232 110.1765733  99.9723796  30.7058164
 109.2491107  99.9303130  29.5104047 108.9505753   3.7211121   2.6438257
 109.4779238   4.4918430   2.4337980 108.3560834   3.6275804   1.8994733
 108.5702090  94.6854238  27.3486062 108.5938315  94.4585160  28.2782289
 109.1710906  94.0654067  26.9353887  47.8799916  16.2487305  27.4993631
  48.0444242  15.9031761  28.3767339  48.7408448  16.5261162  27.1859666
  95.6324153  93.1686954  18.5823270  96.0836224  92.9381398  19.3944188
  96.1601262  92.7662496  17.8925535  31.5726996   3.1089294  20.6400415
  31.6788579   2.2025240  20.3512784  30.8349610   3.4388769  20.1271077
  72.4422359  61.9875908  85.7621288  72.7185297  62.3629284  86.5982056
  71.5162086  61.7800331  85.8871174  18.0734063  14.2753637  34.7467157
  17.5723554  14.4542969  33.9510080  17.9145337  13.3487213  34.9265024
  34.0403367  32.8404606  18.0944558  33.7019874  32.7630127  18.9865037
  34.0394593  33.7814129  17.9188176  30.5238748  34.0724015  80.3779221
  31.1651230  33.6233640  79.8271084  30.9735870  34.2006922  81.2131119
  12.4280263  44.2125309  41.4282056  12.6403810  43.3483112  41.0756894
  12.2543384  44.7502697  40.6556054  23.7815620  14.8544014  16.0168287
  23.1585551  14.8923862  16.7425367  24.0844918  15.7565296  15.9137460
  91.7091613  93.1435088   9.2795392  90.9127860  93.3610372   9.7639962
  91.5850358  92.2331599   9.0110322   8.6059619  33.2062233  15.1949426
   8.6884261  32.4290646  15.7476350   9.1427661  33.0117882  14.4266530
  22.9898168  13.1678999   6.8363401  23.4980250  12.5207985   6.3472387
  23.0531837  12.8829420   7.7479383  19.8719312   9.3184698  37.6414510
  20.1227284  10.2155912  37.8616926  20.3250409   8.7774790  38.2881757
  80.7906298 104.1919116  10.8477994  81.1040692 103.2906226  10.9231206
  81.3955979 104.7016982  11.3866540 105.4047160  81.2089972  36.8158552
 106.3014512  80.9150628  36.9761773 105.3534703  82.0648078  37.2415181
   5.0707294   9.1132343  28.7901326   4.4099570   8.4263599  28.8785573
   4.6258594   9.9115980  29.0746328 102.6172070  76.2638239  18.3556291
 101.8375544  75.7387427  18.5363504 102.2789721  77.0650558  17.9558107
  58.8732338  61.4160347  86.5490246  58.5217333  62.3047352  86.6027832
  58.0994177  60.8553648  86.4934254  56.5097094  64.6339130  89.2270756
  57.0490932  64.3059254  88.5075474  55.8217621  65.1427364  88.7980461
  90.7971864 104.4269780   7.4004957  91.1918883 103.7784795   6.8174955
  91.1477380 104.2159299   8.2658311  99.1896777 104.5950488  44.4314309
  99.9223332 104.3947486  45.0139448  99.3511491 104.0634326  43.6519738
  26.5613557  15.1496160  32.7626630  25.6523467  15.1987207  33.0585023
  26.7089129  15.9766043  32.3038122  25.4204465   5.7818354   6.2960740
  24.9905778   5.7745493   7.1512815  26.1226655   6.4260042   6.3864538
  34.1651536   9.0663231   3.5059758  34.2476703   9.1478527   2.5558397
  34.3463183   9.9454582   3.8384458  41.6466380  51.6498936  11.2797662
  41.7061044  51.6395843  12.2350618  41.7364169  52.5732792  11.0441514
  11.9577838  11.6984165  12.8990575  12.4245502  11.4456976  13.6956044
  11.0406161  11.4970959  13.0848142  30.4635621  14.4469154   3.5280916
  31.3369800  14.4718349   3.1372567  29.8696042  14.3640554   2.7820512
  31.1992789   1.4990890  42.8511831  31.2772990   1.1034906  43.7193128
  31.7610026   0.9623802  42.2920343  33.8259935 100.2807522  77.4546194
  34.1346383 100.5589867  76.5923214  34.4720674 100.6345272  78.0658960
  45.6215859   6.5878809  50.3686448  45.1366616   7.3334349  50.0147554
  46.1012269   6.2363279  49.6185895  67.1069098  65.9367943  82.8393269
  66.6834211  66.7528057  82.5728321  67.2060347  66.0170984  83.7879848
  13.4498788  26.2949217  29.8351213  12.8907538  25.5355299  29.6710035
  14.3342877  25.9891880  29.6336671  40.9305287  11.8105877  22.5485059
  40.1744557  12.0309151  22.0044061  41.0273553  10.8632362  22.4516889
 102.8414950   2.9315174  31.2279149 102.8030452   2.0207584  30.9359189
 103.3266053   2.8984154  32.0524236  54.2961073  70.7911682  77.5420713
  55.2115536  70.8159685  77.8206062  54.3332863  70.5400896  76.6191387
   1.2090012  95.5369214  44.0316888   1.1748835  94.6010570  44.2297479
   1.9132038  95.6201581  43.3887216  37.9495288  21.8159902  11.1722680
  37.2758866  21.2909496  10.7401010  37.9055930  22.6673353  10.7369348
  46.7613221  26.5974987  11.5814134  47.6647950  26.5045011  11.8836137
  46.2788869  25.9212578  12.0570012  19.5895287 103.3097915  21.0318204
  19.9328133 102.4168233  21.0003206  18.6386772 103.2005195  21.0450670
  96.3161378  87.9565839  19.9476548  96.3338284  88.4153275  20.7875749
  97.1869855  88.1009487  19.5775052  81.7984013  96.9565848  28.6228963
  81.3596921  96.1707000  28.2970926  82.1086030  97.4019937  27.8344652
  98.4396176  97.4060182   9.7955438  99.2092185  97.1734218   9.2760774
  98.6707787  98.2391147  10.2063295  36.9704534  21.8765152  19.9041482
  36.5093232  22.7149570  19.8794957  36.8650390  21.5715969  20.8053418
  31.5118028  27.9891193  17.9077169  32.4476291  28.0994594  17.7395173
  31.2567330  28.7852848  18.3738633  92.5418334  86.5095190  51.3072606
  92.1924023  86.3651637  52.1866247  92.6182704  85.6319026  50.9328576
   7.2279836  25.0855005  25.1461717   6.3978292  25.1282156  24.6715566
   7.6435615  25.9313095  24.9784490   6.6961146  38.6076153  33.9831373
   6.1227418  37.8480614  34.0858384   6.2199641  39.1886795  33.3899423
   0.2283188  90.3179649  25.2057859   0.1429173  90.8851985  24.4395086
   0.3361746  89.4390444  24.8423406  19.4812442  18.2536066  33.0006048
  19.9740363  17.4603546  33.2107087  19.2841579  18.1730116  32.0673963
  59.0655519  42.1287430  68.5459157  59.5081712  42.9372871  68.2878991
  59.1041280  42.1292866  69.5023366  82.8637080  95.9191874  39.5115491
  83.5036712  95.9221868  40.2233526  82.4282603  95.0699023  39.5845338
  35.3597642  45.8818043  25.4572698  35.9545184  45.2380550  25.8420869
  35.0698615  45.4804123  24.6380826   4.1512061  51.5707577  29.9301549
   5.1006414  51.6883648  29.8989602   4.0170718  50.6474865  29.7161599
  61.3600016  67.9391098  82.3456001  62.2243595  67.5386715  82.4392414
  61.5412188  68.8650084  82.1840096  67.5755215  59.8943377  86.4220905
  67.5376463  59.8911285  85.4656506  66.6871023  59.6685791  86.6977310
 102.4784979  11.7906082   4.6808263 101.5871915  12.1374071   4.6416684
 102.5798354  11.2980020   3.8663980  82.5794792  58.0938387  88.6978245
  82.6338768  57.5591421  89.4898987  83.4547997  58.4690428  88.6015606
  65.7094479  55.3112030  78.2584524  66.4448404  55.9044790  78.1052971
  65.1157045  55.4713821  77.5249386  88.9575386  74.1829586  85.9231663
  89.4629383  73.6209345  85.3358555  88.2011604  73.6514091  86.1713028
   1.4322993 100.7556037  29.2490026   1.5231463 101.6833953  29.0317746
   0.4929777 100.6325559  29.3860074  19.7163769  90.1734356  14.4256994
  19.1849133  89.5053915  14.8587056  19.7749039  89.8805956  13.5162755
  77.0971727  88.9716244  82.7025032  76.5180779  88.2223606  82.5629044
  76.5272427  89.6509266  83.0630016  48.3263683  49.6285772  86.6857433
  47.5808620  49.0434790  86.8203259  48.4703112  50.0337219  87.5409412
  50.5784989  17.6181972  26.8417665  51.0262872  18.0931938  27.5418302
  49.9511338  18.2485903  26.4878484   0.5126187  94.2570046  18.4234163
   0.7392594  94.9058751  19.0896341   0.5452582  93.4188346  18.8845464
  36.0628749  51.5470875  15.4157945  35.6257297  52.3827351  15.5795881
  36.2745620  51.2126434  16.2873288  63.1703187  19.9935902   9.9200078
  62.6257802  19.8606193  10.6959077  62.9244329  20.8618343   9.6007558
  31.6904187  68.6189556  80.4909039  31.4299393  68.6050034  79.5699310
  31.0935664  68.0044365  80.9179592  84.8659611  52.7911568  83.8726997
  85.1386070  53.7066460  83.8112164  83.9266491  52.8081512  83.6892986
  61.5003633  69.5579481  75.4943562  61.6725016  68.9569712  74.7694921
  62.1696091  69.3461895  76.1451292  19.0351440  34.9257458  18.4602281
  19.0701676  35.1190269  19.3970605  18.6707974  35.7180870  18.0656644
  50.7074308  69.5942497  88.2753277  50.4930925  68.8254547  87.7468967
  51.1856508  69.2428970  89.0263844  31.7753125  11.4866674   8.6599466
  32.6368524  11.6348446   8.2700464  31.5602447  12.3155105   9.0877267
  98.4673314  94.5043878  43.4350988  98.0732779  94.0124110  42.7147409
  97.7667479  94.5835666  44.0825101  10.4244281  49.6890247  25.0399514
  10.0096704  50.5195320  25.2733156  10.3433085  49.6401012  24.0874502
  20.8998295  81.8114761   0.0296995  21.7578408  81.6088585   0.4025194
  20.4925915  82.3955468   0.6694242  20.9094144   1.2541569  17.9596826
  21.0682965   0.3574312  17.6649400  20.2932216   1.6109121  17.3199483
  45.9846784  26.6588247  37.9451581  46.8373109  26.2364519  38.0493470
  45.3501893  25.9664095  38.1301042  99.0935516  57.4367762  87.1671867
  99.7086525  56.8935728  87.6599407  99.2105865  57.1654606  86.2567329
  12.3412372  43.0558288  11.9059869  12.1795751  42.9077042  12.8377363
  11.8382169  43.8431442  11.6978189  89.2129998   3.6159142  90.7251167
  89.5996432   3.5485848  89.8520756  89.4188981   2.7799043  91.1433697
  38.0502654  36.2110222   2.6972886  38.0241490  37.0367039   3.1808206
  38.9124871  36.2040413   2.2816488  13.9828063  38.2405842  38.1678888
  14.0031386  38.1981457  37.2118493  14.0278054  37.3267734  38.4492227
  96.5559110  30.4987610  21.5456506  97.2924814  30.0424278  21.1388799
  96.7023716  30.3990734  22.4863073  13.5309793  42.4734390  29.4857618
  12.6892758  42.5637806  29.9325391  14.1086198  42.0807732  30.1402685
  98.8797383  71.1360697   4.3654844  99.0322451  72.0780138   4.4410726
  98.5590033  71.0163371   3.4716054  24.4591952  26.6668117  24.2369863
  23.6692191  26.2759483  24.6103402  24.2046643  26.9202841  23.3497354
  64.8060514  26.3680733   6.0402509  64.9766351  27.0182836   6.7216893
  65.0029851  25.5284822   6.4556333 104.6922593  81.3555864  20.8852025
 104.4618087  80.8030180  20.1383420 103.8511615  81.5964560  21.2734910
  10.7488442  50.2124298   2.8523847  10.2593995  49.4485367   2.5472089
  11.5935803  49.8596180   3.1319829  18.8752843  31.9907844  19.3480226
  18.4738399  32.8251160  19.1051980  18.1978417  31.5355957  19.8481294
  44.2358923  80.9604359  83.6408138  43.9733887  81.1369610  82.7373886
  45.0853634  81.3920593  83.7320900  74.1912794  81.2042046  47.2938013
  74.2497206  81.8622684  47.9864550  74.4042301  80.3787327  47.7290964
  13.7317563   0.2879560  25.7846566  13.3440066   0.7455004  25.0386449
  13.7771655   0.9500444  26.4744493  77.4744130  24.5580137  11.2893888
  77.3951341  23.7519968  11.7995664  77.8565694  24.2783392  10.4575368
   4.1986228  29.2212570  33.3485719   5.0215913  28.8081539  33.0872461
   3.6655284  28.5011375  33.6854192  77.2048759  98.1939888  77.0458412
  77.8288078  98.0519772  76.3339615  76.5471363  97.5086021  76.9281387
  61.8557550  40.2831924  14.0279218  61.7278005  39.7657001  13.2329007
  61.8156148  41.1922920  13.7310048  29.1117431  30.2848041  11.5851613
  28.5703755  29.8057449  12.2125837  29.9717713  29.8687542  11.6441556
   1.2548252  86.5506248   1.8918153   1.0782000  86.6133217   0.9531423
   0.6511255  85.8768991   2.2046586  72.6528978  23.2069874  87.0772648
  72.2623110  23.7757254  86.4137840  72.0314217  23.2260728  87.8050232
  53.0386019  18.7752306  80.8423710  53.4196520  19.2838490  80.1265907
  53.5184669  19.0596533  81.6202354   0.1509257  96.1312536  35.8659983
   1.0223408  96.4378474  35.6152654  -0.3153066  96.9244740  36.1299324
  49.3413067  19.0691149  75.5532503  49.5472622  18.4015810  76.2076283
  48.3878088  19.0407622  75.4740763  64.3960743  69.4015542  32.9889604
  64.3902259  68.5588066  33.4428045  65.3080206  69.5256034  32.7259084
  88.1018916  92.3702935  73.0921364  87.4535838  92.8349689  72.5629807
  88.2606164  92.9482535  73.8384628  99.2991695  -0.0207579   6.2227365
  99.9305186  -0.0920593   6.9386598  98.9576325   0.8707130   6.2924787
   7.0867324   3.7715894  61.6899204   6.4298105   4.4592336  61.5811491
   7.1635455   3.3743522  60.8224344  49.1004324  50.3153324  89.4589710
  49.5507193  51.1522293  89.5733356  48.8275480  50.0675011  90.3423405
 103.3192210  58.4297810  -0.3346900 103.3193068  59.2838708   0.0974771
 103.1599097  57.8038959   0.3718015  49.7460222   8.3193982  65.2379417
  50.2673769   9.0337276  64.8716736  48.8465071   8.5239893  64.9825001
  81.9998174  60.6775884  38.7265130  81.7249827  59.8864947  38.2629701
  82.8138213  60.4282192  39.1640493  43.4977245  21.9008303  56.6267300
  44.2857599  21.3683033  56.5188122  43.3218575  22.2482872  55.7523251
  61.3263755  71.4255837   1.0171434  61.0399108  72.3386899   0.9969636
  61.7563920  71.3281838   1.8667432  91.7999415  65.9302060   5.5793020
  92.2525840  66.5337495   6.1684438  91.8667559  65.0786177   6.0112401
  65.5607323  43.5267470  20.7806321  65.0100689  43.3273844  21.5377733
  65.1349478  43.0782018  20.0500604  66.2845469  13.8541365  88.8435173
  66.3837433  14.6239853  88.2834053  65.8151817  13.2213283  88.2999325
  29.9463630   4.1748494  81.2917137  29.9570203   3.3967805  80.7342815
  30.2235532   4.8866013  80.7148170  96.5135960  71.4114372  21.4752218
  95.6940465  71.7315213  21.8521997  96.8499570  70.7927946  22.1235868
  54.5878653  75.0831417  32.5404855  53.9133732  75.1219896  31.8624135
  55.2654307  74.5161799  32.1721193  60.1107483  96.0724572   0.9362050
  59.9362283  96.9828776   0.6976529  60.7771139  96.1278419   1.6211244
  14.7203124   9.7005117  89.9814606  14.4497931   9.3402803  89.1369057
  15.6658602   9.5548189  90.0121975  46.6003990  29.6207070  89.2718506
  46.7377090  28.7293720  89.5926285  47.4825048  29.9564242  89.1124153
 102.2749141 103.5752511  78.3765364 102.0568398 104.4077816  77.9575253
 103.2236508 103.6098788  78.4987164  58.3593988  47.3967743  86.9569588
  58.3323097  47.0742321  87.8577709  59.0505075  48.0590343  86.9603539
   6.2964145  33.1045866  68.1437969   7.1901409  32.7620006  68.1332111
   5.7433502  32.3282766  68.2315636  13.5548259   5.3400743   8.6082670
  14.0309239   6.1437357   8.8172838  14.1101314   4.6377743   8.9468595
  81.4331059  31.3581876  24.0027829  81.3639836  31.6275362  24.9187013
  80.5305056  31.1850361  23.7352773  32.9220366   0.7146138  65.3373575
  32.8909588   0.8365382  66.2862492  32.5869322   1.5365803  64.9791574
  88.4938388  65.2164332   1.2562963  89.1475015  65.6354407   1.8161031
  88.5529713  64.2861918   1.4739820  86.2768082  57.6733498  29.4487020
  86.0403495  57.6650385  30.3761979  86.1145978  56.7778210  29.1521379
 104.0867524  92.1412162   7.3646470 103.6923461  92.3940877   8.1993505
 103.3626513  92.1695236   6.7392656  38.7675858  46.1343765  78.7611198
  38.6257935  46.3787746  77.8465748  38.1812787  46.7069578  79.2557192
  40.1475096  50.4836893  88.4831238  39.7620988  50.7732487  89.3100739
  39.5427322  49.8170424  88.1574535  70.3412390  12.3386157  80.2249241
  70.2050734  11.9040167  81.0668278  70.9867001  11.7931294  79.7754192
  18.9053226  37.4263406  62.4982834  17.9824042  37.1734262  62.4761772
  18.9350319  38.2646990  62.0373011  54.0358257  43.9625502  86.3124084
  53.3517408  44.6319723  86.3239574  54.5734167  44.1561890  87.0803547
  74.8385334  26.5067029  78.0053091  74.0325880  26.0227823  77.8250122
  75.4641724  25.8362484  78.2797194  92.2707515  99.3749455  24.3826600
  92.5636773  98.5497073  23.9961358  91.3778310  99.1973428  24.6782800
  53.6788623  45.4513405  18.9425393  53.4889428  44.9194119  18.1697389
  54.4671731  45.0576542  19.3164560  62.1272326   9.0717965  70.1034355
  61.5479183   8.3906269  69.7619152  62.2250080   9.6888167  69.3782043
  65.0418520  46.9701481  79.7506809  64.4551229  47.1952009  80.4727173
  64.6163702  46.2297821  79.3181801  99.9145131  77.4004392   3.0564710
  99.1900878  77.5629786   3.6606427 100.5065875  78.1410221   3.1876870
  54.5311642   0.8002106  77.7028751  54.4948006  -0.0810175  77.3309278
  54.9021816   1.3397555  77.0046854  98.0236583  78.7357787  16.5736219
  98.9471297  78.5577539  16.7517873  97.5491862  78.1892113  17.2000142
  76.7238502  98.0915860  23.3519861  76.2244253  98.5780362  22.6961156
  76.2289886  98.2061080  24.1633054  94.2993096 103.4919464  51.6483021
  94.3485192 104.4167299  51.8903446  94.9158720 103.4013929  50.9217453
  53.4494686  25.3629327  78.8255119  53.0664015  24.7421885  79.4453239
  52.9501772  26.1693215  78.9546442  47.6984406  31.8339825  86.5014362
  47.1421480  31.0633993  86.3875484  47.1771193  32.4280500  87.0413780
  70.0716400  15.2529109  74.6144295  70.4147291  14.9467278  75.4539394
  70.6625986  14.8762107  73.9624405  62.6416473  96.6721086  20.3887388
  62.3599796  96.7576674  21.2995550  62.8287797  95.7394103  20.2825185
  45.0436735  17.6332688  67.3047304  44.3277788  17.1779966  66.8615055
  44.6670485  18.4730446  67.5677109  47.6390934   0.7940633  89.5700264
  48.2312870   0.0524200  89.6945381  47.1104145   0.8149591  90.3677082
  48.4307337  23.8848925  87.1805000  48.4521294  22.9321933  87.2707081
  47.8926754  24.0399408  86.4041710  84.5950513  72.8569249  31.1353799
  83.9002232  73.5054330  31.2488767  85.1098256  73.1840590  30.3976651
  88.8565259  39.4215850  43.1146928  89.6077924  38.8838867  42.8642675
  89.2377333  40.2616457  43.3700582  83.6496405  89.8603920   5.7281038
  83.3487611  89.0383653   5.3408357  84.1919665  89.5914654   6.4695855
  76.2905245  96.4974574   9.8105737  76.4207463  97.0867280  10.5535623
  76.6528158  95.6607942  10.1020738  79.7831206  83.0152110  46.8319913
  80.3153329  83.8056139  46.7411920  79.3670945  83.1037954  47.6894876
  44.5340586  41.3773394  60.0351334  44.2712975  41.5501833  60.9391880
  44.3180275  40.4554224  59.8950148  49.0763283  30.8977532  89.5064831
  49.2794704  30.7690501  88.5799789  49.6422482  30.2762055  89.9643517
  43.0684948   8.7413675  57.8777170  43.3593369   8.0705035  58.4954453
  43.6289024   8.6202759  57.1112204  92.8837209  78.8060669   0.7085153
  92.9639010  79.7544435   0.6066152  92.7712779  78.6750010   1.6500112
 101.0304074 104.5975141  15.9523603 100.5915885 103.7468842  15.9422990
 101.8039946 104.4614915  16.4994356  72.1581297  82.5832228  38.4585210
  73.0880408  82.3629717  38.5131952  72.1108656  83.2559303  37.7792093
  49.7208305  97.8405390  89.7353554  48.9282317  98.0186573  89.2290974
  50.1479430  97.1232072  89.2671299  13.9862132  18.4637821  75.1120949
  13.4829760  17.6529634  75.0375414  13.8661742  18.8986599  74.2678785
  88.5277562  47.9490251  26.6775438  88.1238513  48.7407363  27.0329114
  89.2530684  48.2699985  26.1416932  88.6650758  34.3632964  19.7201654
  88.9113049  35.2881114  19.7380658  87.7619128  34.3497292  20.0369378
  24.2085691  90.5048600  59.9279737  24.0035577  89.8471275  59.2634535
  23.9894099  91.3397399  59.5142365  67.3841219  62.0194701  37.3901292
  66.4331250  61.9767145  37.2900888  67.7263241  61.7947326  36.5248987
  94.9978356  59.9574641  17.7347585  95.7545237  60.5352084  17.8341028
  95.2390818  59.3674622  17.0206662  55.0398684  10.4445148  66.5114355
  55.1646662  11.3793826  66.3480997  54.1896868  10.2443528  66.1198282
  84.4887786  74.5625857  16.1173364  83.8297419  74.5355252  16.8110009
  84.1847043  73.9233664  15.4730054  97.5582700 100.4061488  22.2654172
  98.4327369 100.0185327  22.2294160  97.1813063 100.0715856  23.0791780
  55.7045460  35.0672388  72.1013975  55.2801323  34.3430376  71.6413546
  55.5165291  34.9065876  73.0260992  64.2749362  86.8567780  23.2990667
  64.9188309  86.3388041  23.7821122  63.6474519  87.1396855  23.9642450
  85.6252007  59.9831484  32.6431009  85.4718451  59.4945876  31.8343850
  86.4021020  59.5753262  33.0256387   1.9977332  10.5592955   8.7219449
   1.7261292  10.1751078   9.5555326   2.7762533  10.0619591   8.4713670
  69.1736603   5.5986935  74.1044569  68.5516930   6.2182748  73.7230015
  69.7689152   5.3840357  73.3862495  78.5834122  20.1426935  70.4554939
  78.6049032  21.0492611  70.1490498  79.4985151  19.8624456  70.4387331
  85.1782422  72.7479485  48.4187146  84.7156672  72.2249857  47.7639219
  86.0071616  72.9784254  47.9991838  84.7122292  30.8123116  27.7207776
  84.7793774  31.3043360  28.5390874  84.9380164  31.4468125  27.0405885
   3.0207635   4.0722359  13.9600393   2.3618461   3.8799847  13.2928773
   3.1897355   5.0097597  13.8666269  76.2422900  51.9074952  17.6879236
  76.2314229  52.0906592  16.7484781  75.3321080  51.7033498  17.9026910
  67.2951035  73.2701782   4.3306943  67.9321914  73.1708697   3.6232396
  67.1373658  74.2129854   4.3803712  93.3755927  81.3909463  11.3206025
  94.1265969  80.9187678  10.9610578  93.6212878  82.3140339  11.2591859
  66.9049029  82.6078609  54.4222852  67.0296435  83.0762509  55.2476903
  67.7357273  82.1557216  54.2755433 106.3987260  61.0359225   3.7593957
 105.8015017  60.3087363   3.9347669 107.2717337  60.6469307   3.8121435
 109.6912293  50.0814747  18.1627485 109.0190463  49.4116939  18.2884237
 109.3200927  50.8703769  18.5578748  99.2158274  77.5272540  46.3425466
  99.4395213  77.6630525  45.4218122 100.0592332  77.4052052  46.7784425
  46.1302042  44.1030216  61.1270571  45.8908367  43.2163286  61.3966942
  47.0433474  44.1974974  61.3981104  49.1885774  96.2736062  10.2598783
  48.4887748  96.9230870  10.1914331  49.6801655  96.5324334  11.0393544
  32.3513579  21.6559434  72.4918222  32.2273493  21.5481758  71.5488291
  31.4877701  21.4857459  72.8679609  19.6097624  19.8075628  84.8469067
  18.8534617  20.3745890  84.6961594  20.1246762  20.2664828  85.5105972
  41.9132423  11.4752340  86.4640427  42.8022480  11.4226830  86.1131382
  41.7646456  12.4108887  86.6007996  87.7735524  79.5472149  15.1898309
  87.8877597  78.6674742  14.8303243  88.4774499  79.6366481  15.8323022
  33.8651038  12.4976814   6.8410989  34.6959878  12.9712952   6.8016645
  33.1984426  13.1843985   6.8558332  91.5802245  73.1434564  28.2375737
  91.1388831  72.3155192  28.4272310  92.5065427  72.9114703  28.1716176
  21.9024177 102.1396679  58.5091209  22.4296613 102.0634965  57.7138567
  22.5346131 102.3499367  59.1963959  82.4713425  73.3264259  40.3964826
  82.5163417  74.0796451  40.9854432  82.4293237  73.7096290  39.5203515
  22.1504164   9.6907204  89.4883156  21.7087579   9.7077143  88.6392689
  21.5369582  10.1181245  90.0860023  95.0747638  72.5527672  34.4034597
  95.0099854  72.1417300  33.5414430  95.9908442  72.4370829  34.6557447
  48.1125116  54.0893221  88.7182236  47.5166941  54.1428995  87.9709911
  48.0107117  54.9289608  89.1664124  46.5840292  12.3506987  65.6825304
  47.4338484  12.3430884  65.2420950  46.1779690  11.5203142  65.4339218
  86.5607982  41.6037158  19.1910669  86.5203528  42.5159822  19.4780656
  86.4971309  41.6497008  18.2370969  98.0442599 100.0757945  90.1203537
  98.1782440 100.6344507  89.3547344  98.9177135  99.7467080  90.3325272
  68.8832331  30.0195861  83.3807659  67.9306841  29.9900794  83.2912636
  69.1763020  30.5581212  82.6457024  18.9761519   8.0495709  87.5417423
  18.2049417   8.0221760  86.9754219  19.6040750   8.5925728  87.0652008
   4.0846759  36.0284209  83.0102253   3.1660166  35.7623386  83.0489254
   4.4136071  35.6367278  82.2011471  15.7085129  97.7260379  22.3341676
  16.2030121  98.4597711  22.6993200  15.8251282  97.8061275  21.3874742
  67.4601126  10.4459465  89.5488167  67.8110886  10.0722313  90.3571415
  66.9029188   9.7562027  89.1882324  43.2681751  29.7218490  81.6926765
  43.5726976  29.5243406  82.5783920  42.9930305  28.8757014  81.3397503
  75.3780441  84.8718957  24.9188157  75.4797535  85.5374745  25.5991765
  75.7358246  85.2791790  24.1299268  21.8715192  15.8405531  30.1091787
  22.3869039  16.2953174  29.4429990  22.1093417  14.9188888  30.0081464
 105.5316882  49.5063321  16.5827104 104.8993878  50.2205106  16.5028497
 106.3215308  49.8367450  16.1546727 107.0628075  86.0182265  15.4798337
 106.2822585  85.7569818  14.9912378 107.7580552  85.4552392  15.1393911
  59.1269633  34.7827995   4.4097921  59.6439967  34.0143669   4.6515008
  58.3317933  34.4226063   4.0171071  76.8020439  11.7837703  87.2164059
  76.1941910  11.9778812  86.5029144  77.6536560  12.0763981  86.8918133
  50.3045015  86.2409452  12.0876046  51.0679977  86.4067201  11.5345975
  50.2955394  85.2910189  12.2050401  94.2427735  81.6465453  24.9499341
  94.3852429  80.7311253  24.7092267  93.9962964  82.0742730  24.1298600
  10.5331926  79.5090703   9.0145990   9.9163871  79.8352555   9.6698781
  10.5436187  78.5610537   9.1464444  96.4879088  84.8771790   7.7676126
  96.3720469  83.9284424   7.8196546  96.0930924  85.1211194   6.9304487
 108.3098321  85.6220607   0.4977437 107.9501586  86.2467340   1.1275503
 108.2908158  86.0872869  -0.3385714  46.9402313  29.6318722  65.7955265
  46.5563822  29.8875856  66.6342783  47.8849554  29.6529388  65.9481144
  21.7048550  27.8423381  68.5919094  21.4308500  26.9281149  68.6650515
  22.3211718  27.8498006  67.8595638  43.1755273  77.9744557  18.1762048
  43.5099219  78.5549335  18.8599130  43.1051289  78.5323957  17.4016210
  19.8731065  47.7662086  66.8710613  18.9281559  47.8443336  66.7399311
  20.2448463  48.4957409  66.3752556  58.1784010  28.2324362  87.2383404
  58.5422611  27.3497319  87.1699715  57.2442532  28.0949259  87.3954773
  64.9588423  64.0571097   2.4981614  65.0011854  64.7511629   3.1559869
  65.7077222  64.2236475   1.9257375  24.4952154  35.5794740  78.6338472
  24.8886347  36.4313197  78.4446001  25.1261306  34.9438810  78.2959175
  55.9533501  24.1888738  58.4617329  56.5787745  23.5237002  58.1742954
  55.5061579  24.4595647  57.6598740  48.0106544  38.3534193  84.1576767
  48.9300919  38.4559441  83.9120197  47.9232264  38.8503551  84.9710941
  83.8168053  73.1996278   6.2738057  84.5617156  73.3139495   6.8639585
  84.2058806  72.8995160   5.4523584  73.4424405 101.3178662  39.7252771
  73.4236793 101.0235623  40.6359121  73.2849960 100.5242518  39.2137929
  87.2435241  97.6200322  13.7475606  88.1926350  97.5977925  13.8697549
  86.9570594  96.7258624  13.9336416  86.8130879  52.6361820  17.1450731
  87.4487309  53.2548104  16.7852231  86.9037490  52.7243371  18.0938836
  66.2912969  59.4431875  33.9572259  66.8313842  60.1413635  33.5869714
  66.9210152  58.7949661  34.2726537   6.5674253 103.9846586  88.2478619
   5.7361312 104.2128320  87.8317833   6.9792361 104.8274965  88.4383011
  50.6731749  35.1491904  68.8813257  50.5623436  34.6230674  68.0893993
  51.5540838  35.5156231  68.8040972   1.4967819  82.7484588  12.4750634
   1.1516615  83.5300783  12.0435640   1.7590281  82.1738700  11.7558214
  96.0541353   6.0912073  36.5986463  96.1071214   7.0294941  36.7804166
  95.3635893   5.7731951  37.1802350 102.5750689  22.4327497   1.4811727
 102.1009736  23.2352761   1.2634202 101.9113259  21.7441992   1.4414998
   0.3751084  41.3939003  12.3306962   1.3068243  41.3326208  12.1200296
   0.2850100  42.2367839  12.7752897  89.9629311  88.5115031   7.3436757
  89.5295434  88.4853415   6.4906141  89.8057227  87.6450423   7.7188608
  66.6448240  82.6027135  35.0321027  66.8683629  81.9593410  35.7046624
  66.3232093  83.3595017  35.5220720  47.2449350  16.0162449  80.5959129
  46.6815567  16.6077328  80.0969315  46.8751287  16.0211957  81.4787769
  75.6631427  71.9781856   4.2990609  75.7153253  72.2474770   3.3819982
  75.9080128  72.7608017   4.7928068  37.0128394  12.8938473   8.3557817
  37.0087958  13.1702269   7.4393579  37.7241517  12.2556532   8.4103414
  72.1932201  79.1939906   0.7386800  72.7523618  79.8793940   1.1044904
  71.9678478  79.5102839  -0.1361922  40.3306913  62.2886753  75.7021141
  41.0825682  62.8583002  75.8647203  40.3385305  62.1460295  74.7556353
  63.7795019  10.3167272  82.0910168  62.8628254  10.5902946  82.1240902
  64.1276693  10.7402039  81.3063717  38.9253187   9.5676881  79.0912533
  38.6385226   9.8066038  78.2098341  38.6320448  10.2925992  79.6432781
  55.7390976  30.5736518  88.8188648  55.6031036  29.8380232  88.2217121
  55.7817411  30.1727080  89.6870041  65.2843237  18.8332689  84.1910458
  65.0021982  18.5780478  85.0693989  66.0410881  18.2754791  84.0110302
  49.0280437  30.4259205  55.9411955  49.6520329  30.1139235  55.2858162
  49.3240738  30.0305057  56.7611027  37.9929781  27.8387213  86.4959526
  37.8603435  26.9435048  86.8077564  38.3598924  27.7346611  85.6180096
  91.0577874  60.9050224   7.0022794  90.9921603  61.6361473   6.3879606
  90.2235083  60.9108243   7.4715062  24.4167567  10.1032246   2.7271100
  24.9320890  10.6163156   2.1046945  25.0637961   9.5787752   3.1988450
  60.6098127  31.6874814  78.6368847  61.3376999  31.1521602  78.9528656
  59.8345327  31.3031101  79.0460587  18.9399100  17.3773611  19.5552560
  19.7672607  17.3012770  19.0799257  18.6871720  18.2946670  19.4508382
  64.9864797  79.6177439   4.0072461  65.1834493  79.9811987   3.1439134
  64.1698413  80.0446705   4.2662164  91.1848454  80.9158567   9.0976735
  90.6529336  80.5439786   9.8012468  92.0458321  81.0502128   9.4937536
 109.9325142   9.0123785  10.9767076 109.7661767   9.9549854  10.9689542
 110.8737096   8.9365423  11.1336538  85.6601863  59.4818322  17.8523752
  86.0044913  60.1352761  18.4612199  85.8671765  59.8300020  16.9850942
  83.3299212  96.5552978   8.9134523  82.7975898  97.3504094   8.9390107
  84.2225509  96.8593005   9.0778467  51.0689640  56.4028692  83.1978703
  50.7756758  57.0838165  83.8032818  50.8213520  55.5817032  83.6228561
  85.2131781  20.9114254  17.3389551  84.6036229  20.1793182  17.4321958
  85.5775664  21.0328520  18.2157155  99.3462758  78.1394104  12.9588147
  99.2709021  77.3042563  13.4204027  98.8800435  78.7634520  13.5150834
  59.8417568  20.8998489  70.2709103  58.9879704  20.5557275  70.5333233
  60.0289059  20.4666805  69.4380999  91.3101106  97.5281123   0.9196779
  91.5147214  97.9987363   0.1116678  90.6077676  98.0384425   1.3228055
  93.7434821  42.8555135   3.1026193  92.9292731  42.4422137   2.8154298
  94.4134812  42.4930803   2.5229856  89.7603803  83.2203988   5.2488347
  88.8679652  83.4855632   5.0263330  90.1706176  84.0176658   5.5839464
  60.8491468  25.6076813  87.8142643  60.3376818  25.7654405  88.6078262
  61.4997959  26.3096833  87.8051567  34.0974809   1.8230713  16.5306302
  33.4076596   2.2074926  17.0715448  34.6655942   1.3697136  17.1534845
  79.4995694  67.9209105  12.3023912  79.7026591  68.4797636  13.0525037
  79.3599515  68.5321836  11.5791436  64.8607492  31.3321209  73.1830311
  64.7260952  32.2246814  72.8645420  64.0297079  31.0971832  73.5958290
  64.3515968  24.5073915  87.6378441  64.3520403  24.8691487  88.5240459
  64.1208363  23.5858965  87.7554226   9.6068622  18.0086267  20.2995893
  10.4715348  18.4063614  20.4014417   9.5290853  17.4108875  21.0431596
 103.9056020  97.5977878  20.2117463 104.4064765  97.9708032  19.4863340
 103.9103131  98.2808570  20.8822843  60.7646036  44.1710758  67.5800991
  61.3968086  44.2106104  68.2977200  61.1242437  43.5180140  66.9797707
  63.9116220  86.0143260  16.8471929  63.9972429  85.4707316  17.6303979
  64.7365765  86.4974574  16.7996141  66.6392236  65.3342871  29.5574685
  65.7451944  65.2120272  29.2381021  66.5576033  65.9849993  30.2547094
  88.1851821  80.6807307  40.5240365  88.2365327  81.3439254  41.2123414
  87.6530652  79.9817351  40.9041520  84.3808322  79.9325088  38.3525010
  84.1760688  79.3819121  39.1082403  84.2713075  79.3538765  37.5979062
  23.1278510 105.2153737  88.5893726  23.0122800 104.6855443  89.3781376
  22.9442115 104.6138762  87.8677654  98.2751803  94.7848681  14.1771528
  97.5132136  95.0414590  13.6577340  98.2515387  95.3636912  14.9391481
  44.8885822  15.3348136  85.3288841  45.2022982  14.8060369  86.0625076
  44.9650717  16.2385046  85.6350231  84.4645791  78.4946541   3.7126848
  84.9769788  77.9377417   4.2987939  83.9646630  77.8804831   3.1749936
  95.4252152  76.5100101  23.0966588  94.5730214  76.7983607  22.7697774
  96.0550408  77.0878104  22.6657411   3.7914273  88.1113748   7.7586194
   2.9775377  87.9537205   7.2801229   4.4550558  87.6253942   7.2690793
  38.9468575  11.1438656  73.8787746  39.8869348  10.9838474  73.9617300
  38.6662602  10.5619824  73.1724405  29.4493056  13.2800472  31.3684961
  29.0986873  13.9280308  31.9795724  29.3314315  12.4415291  31.8148443
 100.8314137  59.8284022   3.8134500 100.4104190  59.8844443   4.6712705
 101.0437732  58.9006934   3.7110254   8.0785652  92.9975776  10.2506181
   7.7784725  92.7411679   9.3785974   8.6574742  92.2858290  10.5235883
 104.6367459 102.5647668  27.9105016 105.1308350 102.4564008  28.7231370
 105.2945523 102.4930314  27.2188588  59.9199438  32.7309799  70.2349043
  59.4164038  32.4584579  69.4678259  60.8270884  32.7536106  69.9302530
  69.2877007  38.8832164  89.9188137  69.8167753  38.7307310  90.7017994
  68.4236717  38.5373068  90.1424885  86.3087945  72.4454836   1.5744993
  86.4711480  71.7183904   2.1755048  87.1810965  72.7659539   1.3451024
  59.0845104  90.4148368   4.0168973  59.9662777  90.6375174   4.3154641
  58.6684509  90.0113706   4.7786924  26.9873763   2.7708805  28.3612176
  26.3260938   3.3861006  28.0443021  27.8193999   3.2263506  28.2327005
  58.1853061  99.5188979  29.8597833  58.5685925  98.8519410  30.4294225
  58.8346176 100.2220086  29.8436567  94.9547634   9.0740288  11.2809011
  95.2376470   8.7670553  12.1422788  95.6243667   8.7490452  10.6790277
 103.3626656 102.9320458   6.6605398 102.6013570 102.3519258   6.6500684
 104.0433507 102.4422864   6.1989805  54.0287018  46.6780806  76.3686037
  54.3059587  46.5396595  77.2742510  53.0904055  46.8571138  76.4300680
 106.8558793  91.5006355   7.2629949 106.8110995  90.5467228   7.1975824
 105.9590583  91.7694119   7.4622461  98.1205945  94.9301080  29.0356180
  98.1895165  93.9753989  29.0326902  97.4278312  95.1221732  28.4036180
  57.7909946  27.9100394  84.1749382  58.4434319  27.2102499  84.1457081
  57.5991774  28.0199099  85.1062679  37.3360991  32.9659700  63.4817457
  37.9090357  33.7182307  63.3331537  36.6119409  33.3153391  64.0011406
  20.5814839  22.2976578  28.7654897  20.5491305  23.2013262  29.0794393
  20.0629092  22.3048914  27.9609701 108.7005720  13.1117905  22.2165796
 109.3023452  12.8560961  22.9156610 108.5236344  12.2986734  21.7435380
  83.4006600  75.4263715  11.7504712  83.5096316  74.8480705  10.9955331
  82.6820187  76.0087637  11.5042898 101.1222796  97.7955035   3.6500570
 100.2894835  97.7230624   4.1163560 101.7694669  97.9497746   4.3382284
   2.7912327 102.0344094  41.3544675   3.6961361 101.7681579  41.5172311
   2.3766609 102.0137338  42.2169896  98.1166081  81.7154793   6.5715715
  97.8390698  81.7954353   5.6589910  98.9999680  82.0838336   6.5864202
  80.8940749  93.8627032  15.2902051  80.4285149  94.6492223  15.5745813
  80.3305154  93.1388406  15.5634233  46.1764240  10.3354216  62.4938583
  45.2555227  10.5443025  62.3371983  46.6427946  11.1485147  62.2999287
  86.0396104  95.5799226  15.1789018  85.8957057  95.5888967  16.1251756
  85.3984313  94.9524812  14.8450681  24.6184155  59.4472615  17.0612928
  25.3310772  59.6369908  17.6714917  24.4702431  60.2737097  16.6016599
  97.8365235  91.2068347   2.5626108  97.6798634  90.3973440   2.0763894
  98.2988839  91.7722062   1.9438955  98.0730395  66.0642807   2.7249833
  98.2953648  66.9705645   2.9381772  97.8899960  66.0772137   1.7855378
  62.5678349  51.7106199  88.2285213  62.0980883  51.1164284  87.6432705
  63.3061552  51.1943054  88.5518456  29.4458365  26.2730193  69.4499063
  29.6145415  25.3745055  69.7335243  29.0968966  26.7082000  70.2277803
   9.8830176   2.9781235   9.4864675  10.1003505   2.0627392   9.3101808
   9.5072986   2.9698360  10.3668042  52.6154375  33.7239003  75.8049726
  52.5100803  34.4497371  76.4200258  51.9624376  33.0802870  76.0799074
   4.4169089 102.7478007  13.2720109   4.9946877 102.0053653  13.4486123
   4.9913212 103.5125665  13.3096334  84.6509938  98.5766200  25.7345792
  83.7210231  98.7717942  25.8498689  84.8478465  98.8661555  24.8437139
  71.6738062  86.1531428  19.5662042  71.5369587  87.0937566  19.6791097
  72.6245718  86.0535649  19.5176145  81.7278914  88.3376817  36.5480348
  82.4658971  88.4449438  35.9479734  81.4762168  89.2315082  36.7803403
   1.5145584  63.7207130  22.5731393   1.2944027  63.4562627  23.4663507
   2.4469038  63.9343468  22.6095220  81.1895089  72.0682959   7.2179719
  80.3748612  71.7154018   6.8601342  81.7960267  72.0687012   6.4774534
  97.6314359  58.9056698   2.6337644  97.2525220  59.3930624   1.9022580
  97.6323848  59.5278106   3.3612081  75.1530413  29.6409229  10.5052396
  76.0102610  29.4775299  10.1119157  74.9911980  28.8736252  11.0541364
  38.2642293  42.2473097  64.5369291  37.9407692  42.6428509  65.3463459
  39.1393590  42.6177931  64.4223642  31.3619781  46.5875483  80.5491066
  31.9623089  45.8834791  80.7942963  30.5600500  46.1371040  80.2840805
  85.2317719  76.2193254  13.9731427  85.0834756  75.6887177  14.7558900
  84.8391871  75.7125262  13.2623216  50.7032204  52.8425932  86.4880943
  51.2919855  52.0914698  86.4146042  50.5990553  52.9739714  87.4304962
  71.3637452  69.3062393  27.3839113  70.4665928  69.0834562  27.1354791
  71.8193559  69.4292203  26.5511342  19.3994606  46.1527491  84.2206287
  18.9045322  46.6554976  84.8675632  20.2702928  46.5500832  84.2236900
  56.1273670  46.6017294  83.4166622  55.7603264  46.8976068  84.2497063
  57.0750332  46.6341448  83.5474873  29.3305012 100.6889514  11.7272016
  29.6572491 100.1081208  11.0400983  28.7879177 101.3268498  11.2636014
  70.6423096  62.3136608   7.7169820  69.8611884  61.8175755   7.9618951
  70.3056626  63.0642728   7.2276136  86.9675546  61.6157768  19.3627855
  86.7816071  62.5535695  19.4097062  87.7675776  61.5560601  18.8406488
  35.2153254  55.7820797  60.8363247  35.3418946  56.2751102  60.0256920
  36.0884619  55.4592228  61.0591078  87.9917292 100.1290778   5.8684274
  88.7906318  99.8796491   5.4039117  88.1298117 101.0456542   6.1072847
  20.2624893  13.1094873  69.6196508  19.3894970  13.4458828  69.4172716
  20.4669785  12.5213051  68.8926983  23.4644219  83.5254506  38.5297891
  23.4294411  83.5989360  39.4835206  24.1293522  82.8568295  38.3653184
  90.3543091  19.4299984  72.5030994  91.2319946  19.6182239  72.8354645
  89.7658253  19.7427809  73.1901884  78.9762645  95.5725507  13.1699201
  79.6047692  95.8349446  13.8424989  79.2843633  96.0038594  12.3728772
  77.2940354  58.9172290  29.4209215  77.6593976  59.7320340  29.0762063
  77.7346425  58.2280002  28.9238759  45.0719236  87.7394132  10.9954473
  45.1435672  88.6644105  10.7599088  45.7228385  87.6171187  11.6865178
  56.0528898  34.5150685  78.7595463  56.8254995  34.2371106  78.2675695
  56.1085224  34.0335631  79.5849514  83.0314021  86.7054943  29.5204564
  83.8074403  86.8301896  30.0667688  82.6942115  87.5899247  29.3779203
  75.1661067  91.4787916  18.4840127  75.9743719  91.8791799  18.1636545
  74.7543459  92.1613769  19.0138837  53.3575153  33.2153630  62.6944113
  53.1935167  32.3327208  62.3623276  52.7264547  33.3247232  63.4057713
  74.9299793 101.8134669   7.3032399  75.5115657 101.9520787   6.5557214
  74.1439609 101.4190845   6.9252607  89.5861726  84.5858244  27.0916387
  89.3470959  83.8881568  26.4814397  89.5059924  84.1849307  27.9571363
  64.3901567 104.5351628  12.1092340  65.0085811 103.8253144  12.2821351
  64.6938472 104.9227694  11.2883970 107.7626786  29.9149883   6.8195268
 107.1078858  30.0979793   6.1457368 107.9190716  28.9730633   6.7519876
  45.6858826  33.2404685  88.2836914  45.2206707  32.4055505  88.3358765
  45.1600170  33.8410759  88.8118649  50.1330996  26.0834217  86.1324120
  49.7291183  25.5352378  86.8051052  51.0532618  25.8197498  86.1293316
  68.0321884  35.3420305  86.9586182  68.6140728  35.7248306  86.3020325
  68.5372210  35.3693414  87.7712917 101.4301257  77.3902635  29.6177694
 100.6839900  77.4228720  30.2164766 101.4995198  76.4678768  29.3715593
  94.0341663  79.1648436  81.5413475  94.4643879  78.3445215  81.3000679
  94.3420601  79.3445015  82.4296951  46.1281872  52.0082998  88.8357449
  47.0288372  52.2773790  89.0164471  45.6127501  52.4129534  89.5334625
  42.8004928  92.8159717  65.0288200  42.5936504  93.5309139  64.4268990
  42.4393935  93.0983022  65.8691311   8.2964131  51.5453259  15.9279271
   7.5312325  51.4623685  15.3588506   8.2526871  52.4424528  16.2588044
  87.6558451  86.8682412   2.8385278  88.4367328  87.1666006   2.3722478
  87.1869378  86.3302068   2.2006627  90.8647780  63.3234946  35.6691762
  90.0573830  63.6406235  35.2644845  90.7114463  63.4107486  36.6099759
 101.2892775  81.0647801   0.3511449 101.2749963  81.3176612  -0.5719355
 101.7335038  81.7895297   0.7911893  72.8830290  16.8625724  76.0235262
  73.5160017  17.5719965  75.9126616  72.3664141  17.1196938  76.7872190
  78.6983399  86.1438517   3.9933034  79.0517716  86.5962843   4.7592088
  78.0127911  85.5762748   4.3455907  78.5949426 104.0390996   1.7725869
  78.7493663 103.3540563   1.1221238  78.6800914 104.8574428   1.2834092
  49.7440958  15.3305185  79.8403358  48.8444948  15.5138528  80.1111412
  49.7904110  14.3755579  79.7941113  69.4095592  82.1548347  13.4244176
  68.7013130  82.5011949  12.8815957  69.0427093  82.1277241  14.3081113
  78.3831787  74.0853882  81.2034321  77.7785301  74.7756100  80.9309864
  79.2527723  74.4503212  81.0395432  62.5052838  88.7565497  17.3485967
  61.9189911  88.3256439  17.9705449  62.7105813  88.0791739  16.7041990
  90.3919463  76.1849216  53.8880273  90.2119260  75.2448157  53.8926812
  89.7170691  76.5608195  54.4532415  66.3504267  14.8921263  51.1751842
  66.4505816  14.0663540  50.7015800  66.9635582  14.8243439  51.9071054
   9.2165185   7.2040880  36.8738385   9.4501639   7.6432121  37.6916524
  10.0129653   6.7405975  36.6148397  65.3895669  89.4204287   6.2423917
  65.5512886  90.3312162   5.9963342  64.7456102  89.1109613   5.6053850
  80.7735495  99.5730142   7.5676271  81.0052638  99.3457822   8.4681245
  81.6088586  99.7870950   7.1521112  74.9331336  91.1619905   1.4102670
  74.2677955  90.6824450   0.9167119  74.7370868  90.9685735   2.3269960
  70.2172737  63.7952618  32.4797078  69.8846464  64.3356387  33.1963559
  69.7461347  64.1061918  31.7066690 103.4642463 104.2449645  17.1917650
 103.2328229 103.4392051  17.6537439 103.6076789 103.9692239  16.2864324
  92.1926694  87.8062204  38.4429094  91.6623692  87.8602652  37.6478692
  92.6069979  86.9445971  38.3963414  85.8329205 102.2189597  12.8333970
  85.2920775 102.9403953  12.5120660  86.1032109 101.7517213  12.0429059
  50.9097624  21.3944364  87.7230167  51.2743330  22.0153570  88.3537197
  49.9686098  21.4006233  87.8974533  46.4254857   4.1409958  17.2678586
  46.5241147   4.8152435  17.9400846  47.2292424   4.1984833  16.7512342
  78.3677487  83.1114415  10.0363370  77.7912764  83.7956766   9.6961423
  78.7850528  82.7412323   9.2585012  79.6528916  85.6514434  13.8209840
  80.2991204  85.8982495  13.1593915  80.1552348  85.1707558  14.4788762
  63.8663530  75.7859802  82.2164249  64.0151644  75.1609325  82.9259396
  63.4825420  75.2626848  81.5128040  68.1238556  50.2370977  69.9681711
  68.2329369  49.2868185  70.0043058  68.5724068  50.4992723  69.1642427
   7.0442387  92.0224313  13.8946649   6.4300343  92.6395349  14.2923566
   7.7234074  91.8994907  14.5578786  85.7122378 100.1173333  19.5512220
  85.1012854 100.0910930  18.8148233  85.5490784  99.3028954  20.0269338
  95.3223376  43.9152733  10.3171846  95.9414439  43.2021771  10.1608774
  94.8832087  43.6765818  11.1335298  75.4928875  11.0099506  84.6843624
  74.9199677  10.5935264  84.0404701  76.2999821  10.4961967  84.6545410
  75.9147739  46.2333584  75.6434822  75.9404659  45.3652096  75.2411222
  76.6824913  46.2553883  76.2147617  83.5061876  76.5162936  73.7249708
  84.1562096  76.7879907  73.0769873  83.4591863  77.2491613  74.3389177
  77.3178963  68.5826389  32.8849050  77.3223500  69.3506614  32.3136255
  76.9129639  68.8898055  33.6960145 110.1492505  88.4678439   8.3298036
 110.0580363  88.1775097   7.4222680 109.5441871  87.9121164   8.8210222
  69.9743032  50.2638960  78.7610149  70.5640173  50.9374952  79.0997410
  70.2456188  50.1436377  77.8509855  61.1011200  62.2186289  24.5681688
  60.9722214  63.1624500  24.4742605  60.4401498  61.9488958  25.2058240
  61.6108227  18.0441964  89.1872597  61.8293333  18.6302364  89.9118614
  60.6547117  18.0616474  89.1450787  14.2079354   4.9008310   5.3586503
  14.8578502   5.5182827   5.6942006  13.3705808   5.3515375   5.4679033
  62.4882507  44.8526859  74.9578667  61.9847727  44.0651512  75.1641130
  62.9064608  45.0929594  75.7846689 100.4372935  88.5750822   2.6317807
 100.6465297  88.7857322   1.7217943 101.2637334  88.2648996   3.0019399
  79.3865781  85.1629166  23.0770131  79.8307662  85.6087617  23.7982293
  79.0496020  85.8714394  22.5286790  54.8261309  63.4677505  86.3341331
  55.7558012  63.2603025  86.4285278  54.8054743  64.1999054  85.7178974
  81.8123011  70.2803198  48.7459012  80.9257941  70.5978910  48.9176103
  81.7874865  69.9804119  47.8372403  25.5254340   0.5320659  70.2072573
  25.5439711   1.4798106  70.3401756  26.3832045   0.3254453  69.8360777
  40.4446793   8.4311473  82.1232605  40.9406328   8.5360551  82.9351997
  40.0771332   9.2984813  81.9533348  89.3264632  98.8450173  35.8142492
  90.1540999  98.8050250  36.2934514  89.3934159  99.6408538  35.2866193
   1.1207720  81.1003069  17.4340650   1.0779568  81.3830952  16.5205880
   0.7664105  80.2111510  17.4263879   0.8764359  50.4956625   9.6651574
   0.6997772  50.2028655  10.5591890   0.6961008  49.7285099   9.1218396
 107.2453027  67.5088362  22.7165052 107.2718959  68.4280876  22.9820272
 106.3599305  67.2208444  22.9387971  81.8132500  81.2723664  24.1048642
  82.5661378  81.8417911  23.9462873  81.7997126  80.6785993  23.3542081
  81.9100814  82.1518449   6.2620660  82.2612243  81.2696055   6.1413118
  81.9455771  82.5451855   5.3901407  34.5932412  85.3341675  76.5009260
  35.2374792  84.9618340  77.1030521  34.6560860  84.7896481  75.7162142
  96.3411908  92.0513371  37.0302316  96.0321765  92.2503237  36.1464044
  96.2118583  91.1073975  37.1223279  89.4682650  74.8721746  18.1813642
  89.2173676  75.6270579  18.7137529  89.0068583  74.1341714  18.5797235
  40.3642560   9.9718988  25.4601117  40.6138040  10.6284988  24.8098584
  40.7399465   9.1549528  25.1319524   4.4326683 100.6870440   3.2205602
   4.8330065 100.1135186   3.8740369   3.6414858 100.2228812   2.9470464
  29.2406988   8.1654334  66.8106079  28.4143543   7.7827442  67.1054554
  29.8916817   7.8363848  67.4304342  79.4516854  54.4963508   5.7857724
  78.6696200  54.1571247   6.2211152  79.6929650  53.8131660   5.1602575
  94.4705682  77.1477632  16.4697095  95.2811484  76.6410712  16.4201566
  94.0338282  76.8244843  17.2577306  53.7289715  10.8382988  80.9739780
  53.6825943  11.4150858  80.2114868  54.3933868  11.2370825  81.5359020
  70.5471516  50.9380817  72.3760653  71.2347364  50.5448341  72.9134846
  70.8236074  50.7726431  71.4747143  72.6055126  94.5645598  17.3292753
  72.8887944  94.1878776  18.1623956  71.9763331  93.9322261  16.9821283
  56.4176123  85.9031419  18.8686200  56.9479267  86.4974741  18.3378049
  57.0197801  85.2016548  19.1166993 102.5859408  95.0667218  25.2385446
 101.9942670  95.0179843  24.4876977 102.0310550  94.8718909  25.9937784
  24.9889803  67.4306774  77.6516771  25.5926967  67.5290823  78.3879375
  24.3032598  66.8492651  77.9802752 104.5800595  79.8815445  40.7531854
 104.6885876  79.5329432  39.8683568 105.4617982  80.1448659  41.0166951
  13.1435586   1.7482794  23.3867379  13.4530641   1.2711466  22.6168176
  13.5085155   2.6274622  23.2863828  16.8134494  94.3845883  70.3330231
  16.5133281  94.5006231  71.2345219  16.4165445  93.5598889  70.0527287
  73.3606529   1.1296801  68.5771370  72.9595089   1.4220522  69.3955708
  72.8479815   0.3635255  68.3194351 109.5739322 100.3249244   9.8773309
 109.8023896 100.7114295  10.7227060 108.6322694 100.1629952   9.9346563
  27.3741770  35.5650878  86.8771458  26.9581366  36.4269423  86.8584347
  28.2879782  35.7352304  86.6485691   4.7008368  65.2076570  38.3539792
   4.7232720  64.3871323  37.8615686   4.2058798  65.8080677  37.7965280
  25.3185893  33.1843269   7.4164125  25.9319020  32.7943314   6.7935296
  25.0643397  34.0148437   7.0141431  37.1107006  17.0954597  61.3358355
  37.2059870  17.1658778  60.3859949  36.6094041  17.8720570  61.5844870
 105.4403405  90.3007630  27.9848024 106.2013583  89.8526219  27.6156827
 105.4466538  91.1638836  27.5710222  97.9360251  82.0001558   3.2831308
  97.5714783  82.7328280   2.7866098  98.7344174  82.3515657   3.6772271
  84.5284562  50.5566045   4.3299695  83.8881497  50.9297260   3.7241479
  84.3056731  49.6265987   4.3710729  79.9386744  78.4751228  23.6754533
  80.1303725  77.5447325  23.7931749  80.7665782  78.8548879  23.3811971
  88.5830455  74.0716032   0.8585187  88.3502536  74.9856714   1.0213682
  89.1317515  74.1001705   0.0747224  78.4130721  73.0025581  20.7676240
  79.2546086  72.7654366  21.1572667  77.8546338  73.2159356  21.5151902
  80.0579600  76.6297893   7.0852109  79.8662858  77.5198773   6.7898485
  80.5791716  76.7479710   7.8793165  10.4868122  69.9591521  30.1780244
  11.1068245  69.6665386  29.5100423  11.0350224  70.1980237  30.9254381
 104.9172263  63.2110015  10.6081697 104.0162234  63.1749515  10.9293100
 105.2476411  62.3197839  10.7212564  38.8884830  61.2918615  84.7276592
  38.5913754  61.3064146  83.8178539  39.4550443  60.5222797  84.7823238
 108.9514117  90.2316288  39.3417474 108.2131867  90.5367259  39.8691675
 108.8411479  90.6710414  38.4985467  73.5799484  42.0889417   3.6947366
  73.5811620  43.0451945   3.7372800  74.3111663  41.8740288   3.1156370
  85.5386882  65.1754312  17.9566118  86.3488726  64.9143116  17.5188276
  85.6026702  64.7882418  18.8296624  92.0467954  95.9492902  11.2077638
  91.2067084  95.5646447  10.9577009  92.5227361  96.0423497  10.3825017
  96.8495040  73.2239131   9.6818944  97.6572470  72.7106551   9.6632310
  96.9608598  73.8711623   8.9855501  99.7314935  83.7970594  51.6972371
  99.8761182  82.9038123  52.0093652  99.5697837  84.3052844  52.4920865
  57.9789925   3.1108120  80.8517647  57.2312593   3.7060472  80.9048939
  58.6418533   3.5079071  81.4167023 100.6630568  86.4341835   5.8925744
 101.2812571  86.7922262   6.5296480 100.0755362  85.8848838   6.4115354
   1.3079549  15.9031189  25.5646249   0.3870083  15.6493938  25.5037137
   1.7028142  15.2380979  26.1285993  26.9716927  48.5641957  29.5072957
  27.0673367  48.5114542  30.4582425  27.2825714  47.7170757  29.1879579
  14.4755031  43.8307178   1.3917943  14.0276290  43.9516056   0.5545255
  14.7458936  42.9125011   1.3883992  10.7189418   5.9219253   8.3781167
  10.5375196   4.9855078   8.2978841  11.6624023   5.9707630   8.5321828
  64.7263288  57.8612041  83.4841919  64.8767805  57.5431156  82.5940132
  64.7654390  57.0752764  84.0291882  19.6460557  17.2042251  85.5040550
  19.7499728  17.2564328  86.4541721  19.6154320  18.1165314  85.2159786
  19.1252037  86.6542891  47.0859929  18.2952210  86.3510303  47.4539586
  19.4819161  85.8883075  46.6362687 104.5454936  64.4146232  34.4265195
 105.2555375  64.7440807  34.9774572 103.7531905  64.7990576  34.8016187
  48.2641792  47.0250225  89.6480560  48.6673880  46.9003344  90.5071926
  48.3166218  47.9682016  89.4934845  49.2696047  41.7414999  73.7914228
  49.2606258  41.6536427  74.7445393  48.6523056  42.4503088  73.6104059
  34.2497683  22.6965165  81.8227100  34.1518664  23.4602642  81.2540722
  33.7895513  22.9362059  82.6270580  26.9218780  39.0352142  28.3401700
  27.7314426  39.2886341  27.8967496  27.0989848  38.1576908  28.6790296
 104.8005109  78.2104234  28.8577863 103.9332013  78.6025814  28.9588567
 104.8006825  77.4698762  29.4642659  75.0731950  86.0148505  12.7521440
  74.8485856  85.3424696  13.3953306  74.2375593  86.4291719  12.5370046
 104.6415672   1.3115919  14.0504857 105.0972018   1.1389482  14.8743936
 103.9926324   0.6110657  13.9843103  70.8505678  46.5177345  84.9397182
  70.0478458  46.6863632  85.4331112  71.4893579  47.1298170  85.3051472
  21.9611692  31.6772628  84.1328430  21.8175101  32.5898433  84.3834209
  21.2919664  31.5023780  83.4711742   1.6319653 101.0000209  33.2762357
   1.1901375 100.6792191  32.4900361   1.0002657 101.5951184  33.6800214
  81.2580395  67.6477861  83.5948563  80.9561062  68.2675838  84.2588711
  80.5008793  67.0859432  83.4297276  66.2285309  63.9684752  23.1561395
  66.9009118  64.3135361  22.5687143  65.7224302  64.7373215  23.4187528
  68.2707405  30.4799533  61.2151098  67.3448372  30.6612420  61.0536528
  68.7272739  31.2544990  60.8866501  65.2282858  32.8893423  82.1979427
  65.5820131  32.0412827  82.4660969  64.2823839  32.8024912  82.3160839
  54.8190355  76.4619637  59.1328859  55.5520201  76.7859602  59.6563292
  54.8464489  75.5117083  59.2446947  19.7165772  83.6091045  18.1133577
  19.0331837  82.9679398  18.3085653  19.3015286  84.4570903  18.2711049
  24.9870133  33.3866858  69.5844603  24.8026180  34.0109658  70.2862501
  24.3366671  32.6943803  69.7027493  59.5555572  72.9383425  15.4636022
  59.9549799  73.6843328  15.9110280  59.3149476  73.2770494  14.6012708
 104.3018393  73.9170984  17.1240636 105.1460891  74.1956142  17.4788877
 103.6570220  74.2608551  17.7423402  95.1307015  97.8224782  47.3238298
  94.2681460  97.4449901  47.4962541  95.0924449  98.0990199  46.4082452
  77.5235558  34.0799022  86.0935879  76.8377495  33.7114525  86.6504955
  78.3259296  33.6450982  86.3823318  18.2108356  32.8886497  22.8491327
  17.9047490  32.4119270  22.0775911  17.9555274  32.3369015  23.5884687
  92.9281807  31.7809582  80.7026196  92.0034218  31.9667673  80.8655167
  93.0761242  30.9270763  81.1091042  30.8788491   3.0717266  29.5877096
  31.0517789   3.3708704  28.6950513  30.3564931   3.7723911  29.9781534
  89.6563392  78.4839229  28.6233636  89.6604829  77.8989271  29.3809911
  89.1609483  78.0085424  27.9564020  81.5357113  55.8295774  86.3161373
  81.8025398  55.9815502  85.4095268  81.1731529  56.6677856  86.6028214
  56.9621611  52.0448589  89.8345280  56.7486906  52.1420145  90.7625484
  57.3032618  52.9011297  89.5763111   5.3941342  95.7254390  10.6893274
   5.5633303  96.4577321  11.2820741   4.7018954  96.0420588  10.1089879
  86.4796829  85.2397346  80.3543377  87.0710659  84.5092392  80.5356598
  85.9629536  85.3338909  81.1545658 108.1381950  59.0634334  19.8695966
 107.8826198  59.9798191  19.7639962 107.6321158  58.5955608  19.2053529
   9.7781559  74.8641447  17.4028226   9.0111252  75.1221255  17.9140397
  10.5094048  74.9334244  18.0165788  11.6363617  80.2513818  40.6750509
  10.8909031  79.6865396  40.8787080  11.2454506  81.1034588  40.4816934
  36.2320281   1.4033068   4.5378419  36.4871551   1.0418213   5.3866407
  35.9870912   2.3090780   4.7271081  13.2086941  94.5820168   0.6139013
  12.5945278  95.0059728   0.0144883  13.8549610  94.1683845   0.0416490
  26.0917665  26.6783989   4.7631379  25.8021356  25.8238399   4.4436570
  27.0451833  26.6065395   4.8086282 105.6778769 100.5335263  16.8911382
 104.8474507 100.9644488  16.6888353 106.3218407 100.9871654  16.3473054
  91.7499404  73.2278208  10.8092614  92.4921565  73.0806092  11.3955041
  91.0963683  73.6646918  11.3553544   4.2220260  30.1755417  17.7380010
   4.3676473  29.2365253  17.8532239   4.6892739  30.3931797  16.9314405
  63.1385374  37.4923015  83.4457302  63.4773254  36.8767691  84.0957928
  63.6701632  37.3336077  82.6657200  72.8487444  24.7018695  77.9483700
  72.0938063  24.5783091  77.3730087  73.2723188  23.8439155  77.9753017
  24.9384400 100.2229814   2.7577421  24.2413136  99.7228030   3.1820890
  24.8238178 101.1162404   3.0820485  64.6255398  55.4576969  84.3791771
  64.5094204  54.7435760  85.0058937  63.7637901  55.5656767  83.9767361
 109.1834550  68.8404623  37.7578470 109.2903905  68.4309439  38.6163923
 108.8145022  69.7029487  37.9481717  23.3005858  25.7327545  27.8052446
  23.0726195  25.4998005  28.7052366  24.1319467  25.2860582  27.6454564
  19.8261024  17.0743597  15.5556699  19.7161103  17.9212606  15.9879800
  20.5338193  16.6485918  16.0395070 104.2119035  22.9315889   6.5178891
 104.3648371  23.4653128   5.7381555 103.5774383  22.2724951   6.2363263
  47.9928304   6.6872394  37.3071595  48.8962079   6.7246664  36.9929239
  47.6833345   5.8205927  37.0437928  64.4388533  64.0533400  81.2820625
  64.9743223  63.8608885  80.5123425  63.9652205  63.2394791  81.4539146
  54.6949863  41.0571718  73.3635044  54.4641495  40.6125498  74.1791344
  55.0930977  40.3747559  72.8230906  61.3151217  80.0231457  74.9457788
  60.6341839  80.3917694  74.3830395  60.8934879  79.2793465  75.3761482
  85.9556823  99.4629125   7.4547693  86.1995797  99.0675858   8.2917043
  86.7907910  99.6566180   7.0289632  19.0771958  97.1908931  15.5759450
  19.3058487  96.3895110  16.0468408  19.8913761  97.6935128  15.5491277
  15.1419784  17.3433102   6.3546392  15.8498813  17.8038824   6.8051549
  15.2968885  17.5158584   5.4259511  64.7425652 101.6560650  84.8655987
  64.0049553 101.1039448  85.1250744  65.0530910 101.2712765  84.0460014
   2.1248194 101.5072850  16.1326619   2.2386643 100.6609467  16.5650770
   2.8774973 102.0252255  16.4180490   8.3349987  79.8902349  36.2292882
   8.6499401  79.9049810  35.3255006   7.8670021  80.7187108  36.3333913
  68.0153847  28.6583352  80.6789494  68.6772060  28.2375002  80.1301956
  67.5068712  29.1955495  80.0714588  11.6304775  96.7032269  20.1797124
  11.1497208  97.1667031  19.4939348  12.4125763  96.3695125  19.7401925
  69.1155319 102.7616910   9.7635385  68.3839230 102.2315339  10.0796338
  68.7604050 103.6485604   9.7037622  99.1721158 102.5305346   6.7767259
  98.8638358 103.2644347   7.3083135 100.0485759 102.3429660   7.1126767
  90.3921795  15.4221749  72.6632690  90.9292793  16.1722839  72.9184055
  90.9036064  14.9810386  71.9849920  64.5584345  47.1087265  76.0984659
  64.0025854  47.8665400  75.9168482  65.4506969  47.4288607  75.9657764
  98.2138114  81.4013938  19.1173002  97.4150185  80.9342889  18.8724061
  98.8357072  81.1944417  18.4197065  56.3558483  43.2301092  73.0686855
  55.8292532  42.4311256  73.0922556  57.2402573  42.9280472  72.8617620
  69.7295427  35.8346534  76.5913963  69.9445105  34.9035192  76.6462564
  70.5742264  36.2798500  76.6587687  28.2341763  95.7016019  31.3490411
  28.5640904  94.9456386  31.8347474  28.1888291  95.4017524  30.4411527
  29.9789859  42.8244770  18.6341211  30.4058362  43.1740272  17.8519079
  30.6725884  42.7964390  19.2931768  74.8873377  49.9482918  67.5634766
  74.4400883  49.9476051  68.4097624  74.3045568  49.4573498  66.9841862
  73.5196400  79.6253729  79.5040512  73.7832928  80.2595615  78.8373232
  74.3444729  79.2808867  79.8464012  84.0847206  71.5565252  88.5546112
  83.7396622  70.8218908  89.0620422  83.5696220  72.3099136  88.8432598
  90.2443700  73.6160711   2.8384038  89.5923953  73.5740355   2.1388360
  89.7573523  73.9276246   3.6012861  83.3750725  75.2966690  76.3566542
  83.2939434  75.1680613  75.4116106  83.0988407  76.2019014  76.4997721
  77.4518967  67.1605778  80.9661102  77.9032135  66.5710115  81.5702343
  76.5367270  66.8819094  80.9983540  71.4060450  36.5699053  86.9927692
  71.2677860  37.4990797  87.1764851  71.3549232  36.5041018  86.0392094
 110.4270892  84.4427256  11.5948888 109.7071128  83.8718823  11.8632146
 109.9966578  85.2087668  11.2152215  94.6845155  95.8583764  18.3284208
  93.7298827  95.8379630  18.3954259  94.9463563  94.9381284  18.3569833
  25.5686566  55.3369937  14.8807451  25.6830498  56.2537155  14.6302053
  24.6220013  55.2306248  14.9743673  92.5340557  62.7278042  68.9448309
  93.3569527  62.5914669  68.4752703  92.0762539  61.8901730  68.8739967
  83.6877537  69.0950108  83.0801678  84.1002560  68.4503460  82.5052929
  82.7600861  68.8590908  83.0778885  85.4915290  84.9346761  14.9393102
  85.8159118  84.0533642  15.1245042  86.2285905  85.5094651  15.1456662
  46.8056917  59.9496126  90.2861309  46.6506004  59.0620947  89.9628830
  47.7240086  60.1228952  90.0790119  19.1005322  67.4713747  15.7925054
  18.4287354  67.4501232  15.1109811  18.9102646  68.2656387  16.2916871
  84.3428230  55.9930229  77.1208191  83.9597225  56.8525362  76.9455957
  83.9930248  55.7448339  77.9765511   5.7694865  20.4351700  35.0668260
   6.1605073  20.3833664  34.1946718   6.3174964  19.8678339  35.6090852
  48.6465502  97.6313400  68.5554600  48.7908554  96.8208694  68.0670595
  47.9879045  97.4018955  69.2110300  82.2577576  91.5975813   1.9717523
  81.9710784  91.6249398   2.8845998  82.4058537  90.6685785   1.7949601
  87.1147208  99.3363456  11.4325258  87.1181922  98.6113671  12.0575258
  87.8878312  99.8527030  11.6603776  72.6102161  40.8912277  82.4041939
  73.2630491  41.4453411  82.8319740  72.5301123  40.1290846  82.9777431
  86.7409329  72.8984455  16.7011949  86.2578873  72.1757297  17.1019193
  86.1183028  73.6253742  16.6895696  15.4574634   3.6468923   9.3008920
  15.7817031   2.9754293   9.9010869  16.2480117   4.0331781   8.9239904
  30.0652219   2.1607387   4.8997995  29.3011762   2.1897591   4.3239328
  29.7836686   1.6296184   5.6447049  18.3378840   1.7412413  12.5620862
  18.4831668   1.0534943  13.2118055  18.7940122   2.5049198  12.9156133
   6.8945409   8.9948595   7.3604604   6.4407588   9.1246689   8.1932088
   7.3071719   8.1352175   7.4440023  83.0995941  50.2038670  67.4238873
  82.2897911  50.5405140  67.8074455  82.8083134  49.6220016  66.7218781
  73.9980459  35.5932975  85.5594444  74.5468760  36.2957811  85.2108383
  74.5578146  35.1437926  86.1925602  56.2294102  47.7207279  80.7625866
  57.0076561  48.2770443  80.7954121  56.0674524  47.4813414  81.6751099
  63.4611516  99.2531709  33.1254121  64.4033699  99.2664222  33.2935830
  63.3527307  99.7724942  32.3286840  13.6412617  94.1531352  26.9531556
  13.2394596  94.1993884  26.0856077  13.8467690  95.0623492  27.1707174
  77.8509521  52.9255342  79.8199129  76.9993162  52.4955511  79.8977375
  78.4508562  52.2244501  79.5652962  52.7729607  68.7300539  75.6700420
  51.9092941  69.0181351  75.9655476  52.7436304  67.7757788  75.7387924
 110.7919698  67.1689109  47.8713056 110.6632380  68.0190865  48.2918569
 111.5817361  67.2805957  47.3421308  67.6309824  88.5715485  77.0494223
  66.9192314  88.6163712  76.4109612  67.1969557  88.3688259  77.8781271
  78.2876682  67.8291273  84.2426586  77.4820995  68.2685375  84.5150661
  78.7223434  68.4600067  83.6688232  37.8494859  87.5279808  81.9096470
  38.7181187  87.6131439  81.5166378  37.9128027  88.0060196  82.7365112
  24.3854996  86.9333319  12.6347276  25.0487705  86.7998342  13.3118364
  24.2027565  87.8725771  12.6603242  70.7386303  12.1048427  89.2281437
  71.2048531  12.7024329  89.8127460  70.0598669  11.7131078  89.7777367
  78.6820655  93.6473397  22.1818277  78.4158282  94.4516639  21.7363950
  77.8601031  93.1940774  22.3693487  40.1555920  15.7378697  81.1173248
  40.9739637  16.2343371  81.1220455  39.5800853  16.2190926  81.7118454
  67.8471471  13.1484306  11.1310693  66.8977643  13.0412805  11.0725137
  68.1570722  13.0328405  10.2328321  63.7517166  21.9880319  76.0044527
  64.1443872  21.7210722  75.1733208  64.4810915  22.3475575  76.5094090
  64.9503469  47.0223188  89.4053268  64.9372911  47.0270443  90.3624249
  64.4570446  46.2386560  89.1629219  40.5315829  22.2280491  27.8620359
  41.3389588  22.7384079  27.7995797  40.6179381  21.5591038  27.1828576
  21.5266180  59.5473385  78.7483644  20.7844853  59.9694204  79.1811657
  21.1300159  58.8754272  78.1938601  74.9077511  62.2808027  81.2096786
  74.2304087  62.8607845  80.8617496  75.5083752  62.1470976  80.4764652
  54.8526335  71.7335939  64.6036243  54.1305208  71.3454485  65.0977230
  55.6414890  71.3819933  65.0163126 105.5525813  11.0836256  10.9809038
 105.2963242  11.5986908  10.2158662 105.6332526  10.1886928  10.6510373
  59.1821671  16.7930007  73.5818052  59.9277401  16.5990508  74.1499043
  59.5607519  16.8636322  72.7054977  63.4406900  25.3475404  90.0982666
  63.0547905  24.9024439  90.8527184  63.1960201  26.2660336  90.2111149
  41.4596654  18.8338745  19.3139859  40.9543038  18.9411104  20.1198026
  42.2980929  19.2570103  19.4989797  28.0043078  19.6810997  34.4960805
  28.2524587  19.8662699  33.5903474  28.7448646  19.9934137  35.0159570
  23.7084004 102.1301726   7.5293275  23.3078572 101.6447476   8.2505533
  23.9426514 101.4581422   6.8892309   7.6163288  90.8731894  58.6778661
   6.9547077  90.5651072  58.0585214   7.4486061  91.8119744  58.7602254
 103.7522940  80.8739118  13.2168504 104.5656733  80.4617480  13.5079976
 103.1430869  80.1449970  13.0994722  25.2599670   8.3560026  11.9676515
  26.1182500   8.2042158  12.3633024  25.4389001   8.4360302  11.0307428
  43.0607700  77.2254419  86.3163185  42.1485043  77.0084906  86.1241341
  43.0925894  77.3037481  87.2697830  10.3825184  95.3865985   9.8923703
  10.7195278  94.4911603   9.9215432   9.9804207  95.4631070   9.0270921
  38.5504867   1.9971788   2.5433465  37.7382661   1.7396772   2.9794904
  38.4183265   2.9172457   2.3147889 101.5039544  80.9891466  25.5884572
 102.1781306  81.5343551  25.1829072 100.7204966  81.5390734  25.5906698
  68.4243298  25.6192541  83.2609653  69.2731380  26.0606456  83.2915115
  68.2613707  25.3506470  84.1651344  99.1358281  39.8898781  32.5665017
  99.2956925  39.1133488  33.1028577  99.7800542  40.5286205  32.8718015
  77.2238688  80.3834061  18.3654519  76.9247250  80.3962854  19.2746183
  77.1102338  81.2844757  18.0631372  59.5869112  45.2846956  73.7628603
  59.5789003  44.3918896  73.4177971  59.8962879  45.8208799  73.0327749
  68.5590363  55.8181620  69.9293232  67.8252602  56.4281797  69.8539305
  69.1489983  56.2300158  70.5606365  63.7624197  85.1999096   2.5670549
  62.8601532  85.0348190   2.2933885  64.2055468  85.4890350   1.7693826
   0.2012535  77.5900773  36.7448827   0.1542183  76.6370396  36.6691228
  -0.3287843  77.9146580  36.0169145 102.6393494   8.9010227   8.2155439
 102.9990563   9.5747316   7.6385232 102.7259311   8.0880821   7.7176877
 108.8176823  10.3804111  57.3343468 109.1802692  11.2351859  57.5669909
 109.0053272   9.8263842  58.0920219  66.0099363  70.2457666  90.0294113
  65.1989889  70.6092596  90.3850365  66.5069628  69.9703169  90.7996941
   1.1360928  66.5953771  20.1248285   1.5933367  67.0028833  20.8604261
   1.8175074  66.1125723  19.6570607  88.6989741  92.5215177  47.0987150
  88.5642772  91.6159777  46.8192788  87.9007296  92.9763345  46.8300649
   5.2089449  92.2899274   4.7940465   5.1568028  92.2134665   3.8413354
   5.8455464  91.6237811   5.0533029 105.9204392  90.5972342  42.2302839
 106.3377814  89.9624518  41.6479513 104.9820094  90.4630856  42.0976659
 108.3390713  83.7982845  69.5187855 108.9797878  83.0903435  69.4514227
 108.8365364  84.5913410  69.3192387  40.5920887  34.6150517  89.3201065
  41.0849762  35.4314423  89.4025803  39.7649074  34.7882223  89.7695637
  77.4254990  62.3121548  75.8552599  77.9893875  61.6530895  75.4504251
  77.7113199  62.3437500  76.7682457  26.9474626  10.4021907  67.5859356
  27.1460271  10.2258229  68.5055542  26.2771153   9.7581083  67.3578548
  45.9195757  26.3807964  73.5382652  45.2619696  27.0409012  73.7574673
  46.0897493  26.5127277  72.6056004  13.7255951  92.5587253  45.7944413
  14.2449852  93.2213000  46.2499162  14.1352459  91.7272858  46.0334607
  61.1703996  70.4321639  22.3980733  61.4751415  69.5389167  22.2384664
  60.8397727  70.7276038  21.5497609  78.6936665  43.6126375  89.1180229
  78.1279850  43.9220047  88.4105396  79.0856504  42.8086758  88.7771034
   5.4666759   9.7778929   1.0919782   5.9478999   9.7717655   0.2645704
   5.9297753  10.4169071   1.6336747  52.1436262  31.4882398  88.2673073
  52.4765396  30.7846761  87.7101707  51.5127230  31.9517255  87.7165127
  20.2794262  70.6468455  16.4918634  20.1461884  70.5946199  17.4383088
  20.9397026  71.3308290  16.3803312  19.6433997  53.9929247  78.8065052
  19.1363966  53.3349657  79.2821789  19.0325201  54.3434620  78.1582928
  86.1878777  61.3909721  78.7434053  86.0807991  61.9032907  77.9419708
  87.0095921  60.9167194  78.6165142  99.0980777  16.8368233  32.2978040
  99.7918853  16.4396656  32.8242322  98.3133874  16.3346613  32.5176355
  76.6869307  54.6208763  61.9970226  76.0979986  55.3375101  61.7607450
  77.3358583  54.6023321  61.2936163  77.2008133  73.9617682  72.8957796
  76.5874243  74.6616125  72.6717281  77.9663849  74.1292095  72.3461437
  97.8501277  90.6797914  19.4698068  98.7566237  90.9858660  19.4984361
  97.3750548  91.2844566  20.0398179  56.5833187  38.1652856  81.0166645
  56.2426519  37.3995137  81.4790154  57.4161482  38.3550048  81.4486694
  49.4152452   9.7031534  30.8908101  49.2727567  10.5293978  31.3525983
  48.7178422   9.1287458  31.2069055  92.4440484  85.6166009  22.7371522
  91.6462712  85.6851820  22.2126695  92.4778561  86.4364413  23.2300493
  33.4209920  35.2322376  17.4387571  33.8841630  35.8524883  18.0017682
  32.5321961  35.5822170  17.3771688   4.9641319 100.7490043  22.2956964
   5.4939839 100.4902438  23.0496999   4.0940377 100.3962068  22.4819871
  63.6266470   8.3017838  78.8663292  62.9219913   8.7263340  79.3556643
  63.4646034   8.5437781  77.9545116   7.8054520  95.1891688  16.9816037
   7.7369877  95.0931100  16.0316964   7.5010868  96.0800008  17.1548101
  87.2789101  80.1251415  31.2327405  86.7301040  80.9054831  31.3109323
  88.1274085  80.4574470  30.9397336  81.5506172  50.1369762  81.9425964
  80.9806538  49.4180536  82.2155952  81.2532616  50.8871222  82.4574661
  13.4758564  81.0243896  28.1632444  13.0641266  81.8732623  28.3249017
  12.7797314  80.4892639  27.7820798  71.5326024  46.5233696   2.9968091
  72.4855138  46.5756596   2.9229661  71.3791085  46.1783207   3.8763639
   1.3139912  99.3500165  38.8409158   0.3616043  99.3653802  38.7462827
   1.4613959  99.3862847  39.7860071  84.2771339  51.9293737  58.3113098
  84.1057301  52.1842861  57.4047375  85.0754547  52.4023485  58.5462570
  34.3332244   3.9594734  24.4052430  33.7294913   4.6933449  24.5200368
  34.3875171   3.5562122  25.2716466  40.8838034  22.1047664  82.7650547
  40.8634233  21.5503740  83.5450935  41.1458445  22.9660916  83.0901527
  74.1826491  78.9382867   6.6473218  73.4746938  78.3011726   6.7428132
  73.8820700  79.7052053   7.1348878  85.6292725  53.6436462  80.8176517
  86.4333344  54.1604233  80.7661152  85.4724216  53.5376406  81.7559433
  66.5279245  54.5888329  75.4981709  67.0034981  54.0086412  76.0926771
  66.3580799  54.0517569  74.7242594  19.1935345  84.2695216  23.0845186
  19.4993588  84.6779517  22.2746488  18.5941311  83.5818986  22.7944776
  24.2753407  98.4563283  23.1846734  24.3380543  97.5510768  22.8800126
  24.1119095  98.9654521  22.3907491  73.0107164  63.0433750  83.2839966
  72.8566790  62.6552200  84.1452980  73.9325285  62.8618431  83.1008625
  84.5606093  81.5601019   9.9657556  84.5171790  81.2242202   9.0704747
  84.7353034  82.4955348   9.8624059  72.3612452  64.8546124  81.0625362
  72.4337244  64.3499660  81.8726635  71.4203930  64.9867201  80.9460068
  20.7755853   7.1568334  21.7502710  20.7026769   7.2813452  20.8040067
  19.8710347   7.0684421  22.0506116   7.1718308  56.1161811  27.3701593
   7.6301571  55.7076997  26.6357824   6.2449166  55.9559978  27.1929570
  28.5913278   3.1653250   8.2775136  28.3066798   3.2023466   7.3643609
  28.2647754   2.3238981   8.5962602  90.0463200  14.7036099  75.8301735
  89.1013813  14.6101391  75.7094336  90.4078388  14.6439147  74.9458742
  60.6898975  50.7156277  77.0516396  60.4762459  51.6371107  77.1981001
  60.4246187  50.2768517  77.8599310  84.4817066  56.1927366  86.7070293
  84.6195412  56.4318562  87.6235676  83.7959480  55.5254745  86.7341137
 106.6497855  69.5154063  20.1268503 106.0438685  69.0980045  20.7391092
 107.4966674  69.4884984  20.5721589  92.7994351  88.2769326  20.5898210
  93.7283091  88.0476979  20.5602189  92.3684554  87.5976495  20.0711175
  72.8114510  43.8403320  83.6355019  73.6896944  43.4651566  83.7000275
  72.5359344  43.9627075  84.5439911  82.1632004  43.5572100  74.8016405
  81.6939545  44.0716076  74.1448021  82.7208233  44.1929150  75.2501583
  -0.2584456  33.8903988  29.0734979   0.0593258  33.3367432  28.3602544
   0.4007507  34.5798195  29.1534635  32.5745584   2.3790205   4.3816968
  31.6266252   2.2470653   4.3972131  32.7549316   2.9117716   5.1562139
  64.0279961  33.0439806  75.7303667  64.8325443  33.4594941  76.0406590
  63.3976793  33.1851840  76.4367628  23.6081310  94.3260697  35.9677335
  22.9975983  95.0154952  35.7066366  23.3575150  94.1119222  36.8663808
  68.5624075  70.0998640  75.5536652  67.8068304  70.0421095  74.9688625
  68.9648438  70.9423018  75.3425455  19.0632435  92.5879840   4.0663358
  19.4023510  92.1557073   3.2825109  19.8249718  93.0246428   4.4475576
  38.6511327  24.1205299   2.8811189  38.7521554  24.5060194   3.7514230
  37.7180673  23.9170826   2.8161069  99.7579770  98.3014468  13.1596204
  99.0214448  97.7541236  12.8872415  99.4672541  98.7044076  13.9777490
  32.7025128   5.2624357  28.5465928  32.1432401   5.3851736  27.7795335
  32.4823190   5.9941376  29.1230985  19.7135736  28.9265526  26.6075441
  19.9254323  28.1398762  27.1100255  20.5627538  29.3253792  26.4176484
  79.6705008  70.9168768  75.6589985  80.5120564  71.3216400  75.8691978
  79.1495943  71.0199165  76.4554119  59.8896646  39.5516396  76.9819069
  60.7712603  39.8460627  76.7531252  60.0291586  38.8460827  77.6135397
  96.1630163   5.4679525  20.4574033  96.4646825   5.9702528  21.2143155
  95.5389866   6.0465897  20.0192281  68.7273169  57.6286793  81.3017273
  69.5726109  58.0578327  81.4341736  68.6327124  57.0478344  82.0566463
  84.6983242  70.7828903  71.9732094  84.3134499  70.0055552  71.5684223
  84.4767189  71.4980793  71.3768625  85.3072739  77.1326780  78.3218670
  86.0360336  77.4125195  77.7679491  84.5433140  77.1629572  77.7459526
  14.0700814  95.9991101  46.2867757  13.2849308  96.2224940  46.7866441
  14.7965046  96.2724570  46.8469735  92.2007179  77.9156256  83.8689327
  93.0372715  77.5363302  83.5995865  91.5794373  77.6234436  83.2019424
  91.8018627  45.3847170  72.4024677  92.4230003  44.9355650  72.9757738
  92.0599937  45.1237440  71.5184498  64.5794153  36.7151356  75.0651598
  65.2423382  36.1209965  75.4169607  65.0161552  37.1572256  74.3371201
   8.6564823  77.8111462  22.4899217   9.4442555  77.7229384  23.0264493
   8.1826779  78.5461740  22.8791257  10.4770466  55.1264624  12.1055147
  11.1071964  54.9976821  11.3966008  10.4024025  54.2663213  12.5188180
  64.2050505  45.2059984  77.7705383  64.9199343  44.5970011  77.5853634
  64.3693924  45.9511137  77.1925879  76.4350657 104.2016438  12.3109266
  77.0128136 103.7302140  11.7107698  75.8091168 104.6474008  11.7402097
  53.7170963 102.1315936  24.8717519  53.6374287 103.0529765  24.6248838
  52.9159980 101.7249898  24.5413896  86.2402634  83.8936786  36.0269090
  86.7589097  84.1749338  35.2731630  85.8763842  83.0479363  35.7651063
  97.9814343  88.1502823   5.6816598  98.2301097  88.3053760   6.5928956
  98.8140826  88.0814437   5.2145597  11.6397187  97.3795299   7.0220872
  11.1111542  97.9228620   6.4375898  11.1916634  96.5337447   7.0332834
  11.4505764  99.0207890  13.3366224  11.5015026  98.3943871  12.6146337
  12.3152920  99.4306258  13.3595773  65.5689669  15.7871270  86.6697407
  65.4054308  15.3915775  85.8135700  64.7290516  15.7284105  87.1250725
  62.8959990  81.3106632  89.9192524  62.1734381  81.2188530  89.2982006
  63.0684280  82.2517395  89.9486828  44.9703313  28.2135284  17.3151323
  44.9706651  27.4995983  16.6775342  45.5633737  28.8666523  16.9436952
   1.9127933  75.5424356  69.3538952   1.1750118  75.7789612  68.7917852
   1.5872184  75.6738567  70.2443790  73.4326792  54.3318176  72.2061348
  72.5641632  54.1376829  72.5585890  73.5719776  53.6663389  71.5323734
   5.3937956  88.6516146   4.7147008   4.9098488  88.5305504   3.8977739
   5.9586998  89.4063357   4.5488473  62.2341585  66.8348885  89.7081470
  61.9580746  67.7403212  89.8503017  62.0807028  66.6812515  88.7759113
 106.1877398  95.5086116   1.9203969 106.9402032  95.6028012   1.3363000
 106.3964515  96.0642222   2.6713773  29.8801132  91.8867163  36.1084005
  30.3191658  92.7225903  36.2658044  28.9592167  92.1187214  35.9885808
  93.0081749  84.8811626  46.2333870  93.8757610  84.7461891  45.8522081
  92.6883316  83.9983749  46.4194441  22.0662113  77.7278117  33.5843870
  21.6149517  78.1311587  32.8428384  22.3274990  78.4653691  34.1357251
  81.6197395  72.0112848  80.0534916  81.7396736  72.9515982  79.9205923
  82.0366955  71.8334389  80.8965492   4.1209699  13.7444294  32.8913041
   3.3087207  13.3828199  32.5367280   4.3214990  13.1891764  33.6447736
  49.8872567  39.6426094  32.5709840  50.3034783  39.7214115  31.7126199
  50.3318978  40.2939403  33.1134721  89.2040348  85.5545425  81.4876652
  88.3377934  85.4436493  81.0957813  89.4225025  84.6895599  81.8345261
  27.0601417  33.4644974   9.3527337  27.6975061  32.7802933   9.1481134
  26.3956739  33.3852756   8.6683103  60.8919622  23.5946787  20.8142873
  60.5175592  24.4457853  21.0415956  61.6408063  23.4976232  21.4025327
   4.2340175  65.6304598  79.1102028   4.5547859  65.2623367  79.9335051
   3.2874385  65.7025719  79.2327881  58.6188269  47.0938873  89.6535969
  59.0620422  46.5580511  90.3113842  58.2652378  47.8343391  90.1464939
  83.6030583 100.5175380   6.3834688  84.2363267 101.2203673   6.2377378
  84.1247039  99.7928361   6.7283269  29.1531850  17.4902523   4.2161962
  29.7801972  17.5471151   4.9372026  28.2964803  17.4914682   4.6431562
  13.1836601  85.2793435  55.0873777  13.8366314  85.2429990  55.7863351
  13.4241768  86.0511331  54.5748159  36.9404031  -0.0997841  25.0393030
  37.3730470   0.6802071  24.6919271  36.4965058   0.2049625  25.8307000
 100.0798321  41.4749908  66.2479544  99.2186928  41.8877745  66.1826277
 100.6926346  42.1529150  65.9631157   5.7127000  10.5322302  24.3945714
   5.5245305   9.6583546  24.0522786   6.4639236  10.8330810  23.8833162
  95.5761580  85.1947860   5.2485391  94.6687178  85.0345186   4.9895116
  95.9527592  85.6797508   4.5142289  53.0598831  41.2526894  88.7860870
  52.7715206  42.1404076  88.9982986  53.7126303  41.3714027  88.0961132
  11.4679099   2.3103369  14.9849817  12.4207068   2.2238911  14.9543020
  11.3164092   3.1189669  15.4742643  19.6820256  99.4945601  51.7085096
  19.0980335 100.2421979  51.5811750  19.5052239  98.9225987  50.9616300
  34.0436173  42.5835121  17.3761865  34.1713096  42.0964611  18.1902524
  33.7472440  41.9255054  16.7473623  54.0251828  12.4031055  10.4251787
  53.1366635  12.0678413  10.3053399  54.3926812  12.4287737   9.5417043
  56.3930894   2.4485433   9.2986699  55.8982850   3.2529200   9.4547960
  55.9478665   1.7868984   9.8280450  26.4985753  22.1197117  50.0545617
  26.6297484  22.5937498  50.8757325  26.2485934  22.7959478  49.4249269
  16.8086621  91.5915469  13.1405755  17.1671578  90.7459525  12.8709813
  16.8664261  92.1372155  12.3562642  42.2374202  17.1042717   2.1266195
  42.9124023  16.6291988   2.6113149  41.8087197  17.6502073   2.7857133
  65.3601933  76.7339945  88.8759518  65.0758076  77.3353481  88.1876755
  64.7106361  76.0310411  88.8632584  21.1704398  51.2773979   9.0273591
  21.4967395  50.4798782   9.4441434  21.4701940  51.2136162   8.1205484
  80.1273061  31.0788048   7.2821542  80.9508515  31.5457046   7.1406957
  79.8176957  30.8670605   6.4015123  87.2281647  28.2622719  89.5182419
  86.7649937  27.4362469  89.6574688  86.5372944  28.8930869  89.3157768
  36.1102010  22.1148336  15.8922883  36.9479991  22.4086082  16.2500879
  35.6325198  21.7750681  16.6490003  11.8303014  29.3714989  22.8331300
  10.8766175  29.3003261  22.7925130  12.0016480  30.3128231  22.8050157
  94.5897293  60.6782722  76.6901588  93.7500668  60.3476095  76.3710070
  94.6830654  60.2934599  77.5616169  55.5639936   8.4100140   5.0424024
  55.1049138   8.7856758   4.2911645  54.9832727   8.5753715   5.7851430
  67.1064378  12.3666895  28.2257100  67.7725411  11.6826809  28.2940027
  66.3494683  12.0112026  28.6913892 100.2382374  89.3905830  83.9365005
  99.3528938  89.4343758  84.2977142 100.4336452  88.4544945  83.8942432
  78.4577513  79.2254066  69.4489241  78.6147976  79.2630577  70.3923988
  78.6169815  80.1185799  69.1437721  35.8258630  21.8033731  13.2890817
  36.4384318  21.0706270  13.2252237  35.7917167  22.0062387  14.2239114
  95.0947289  66.3014297  16.3993570  95.5645089  66.2448100  17.2314187
  94.1830783  66.4527217  16.6488286  27.1291781  30.4357422   8.4567186
  26.3501836  30.2409923   7.9356881  27.0037938  29.9436558   9.2681238
  32.9344083  13.8451183   2.6438257  32.7928306  13.4082973   1.8039628
  33.6922742  13.3985889   3.0212900  62.1602536  11.9416368  49.5931646
  62.1205522  11.7851818  48.6496660  61.7221166  11.1837328  49.9802705
  40.5184461  14.9739492  33.9821359  39.7155095  15.1125896  33.4798356
  40.6033851  15.7611311  34.5200559  60.6269933   7.3878992   2.5011560
  60.3277970   7.1010626   3.3639642  59.8895837   7.8829945   2.1443101
  41.4270592  66.6486359  64.7484922  40.8209419  67.3853827  64.8263359
  40.9594440  65.9113026  65.1408005  81.0892200  61.7734909  73.0091143
  81.3642406  62.3046398  73.7564278  80.7516098  62.4072170  72.3761559
  98.6722851  86.9753933  39.0903258  99.5315552  87.1107483  39.4897771
  98.2114601  86.4013672  39.7021866  79.7252369  57.8680038  87.9158783
  80.6690693  57.9720592  88.0366421  79.3349934  58.4780073  88.5418415
  66.6996671   2.4778259  18.3421251  67.4625302   3.0194796  18.5443422
  66.2094213   2.4384487  19.1633054 108.5513553  42.3974789  12.0024701
 107.6525387  42.6175774  12.2472497 108.8671240  41.8477619  12.7196428
 100.4939465  90.7447962  18.8387224 100.6124406  90.9480742  17.9108926
 101.3582711  90.8823828  19.2263433  32.2616006  30.3505028  13.5885164
  33.0560399  30.0789249  14.0482351  32.4831296  31.2010944  13.2094880
  93.3034325  36.7823100  70.3954124  92.4828720  37.2643065  70.2924824
  93.6964035  37.1451783  71.1892223  65.1674557  71.8853331  71.3309431
  65.2622080  72.7450514  71.7409897  65.4121780  72.0277977  70.4165888
  58.0404569   6.4096630  21.0227891  58.7845326   6.7315853  21.5316602
  58.1911279   6.7457760  20.1392957  27.3299695  20.7484901  15.1221582
  27.8877212  21.3228691  15.6467744  26.4815427  20.7688511  15.5648633
   1.3742305  12.7380789   0.4800817   0.8916999  12.6144064   1.2974473
   0.7773543  12.4258936  -0.2000025  64.7802068  41.6936672   0.6857988
  64.6452619  42.1253860   1.5293905  64.8242379  42.4112499   0.0538465
  50.1174165  26.1042440  33.7574407  49.7495080  26.0475624  32.8755876
  49.4909574  25.6355608  34.3089029  64.1242790  98.1808853  58.7028503
  63.7843800  99.0462017  58.4749842  63.3984518  97.5834084  58.5227728
  60.8775473  77.4325085  73.6580849  61.8098736  77.3894310  73.8705587
  60.4365110  77.3955202  74.5068216  32.5535537  10.4692686  23.4255239
  32.5937320   9.6354425  23.8938733  31.7728902  10.9012974  23.7721368
  56.4704228  21.3751066  19.0568658  55.5478478  21.5129364  19.2715474
  56.7534257  22.2047937  18.6724588  63.2568026  58.8082266  79.2623568
  63.3872223  58.7092543  78.3192587  63.1162500  59.7467375  79.3875217
  49.6392346   6.2649238   1.4536115  49.7481919   7.2141350   1.5115472
  50.4271413   5.9604299   1.0033819  86.8842888  29.4208717  82.5778866
  86.4580536  30.0878572  83.1161022  87.2954750  29.9132204  81.8674183
  12.3984905  82.6410750  43.2979795  12.7282521  83.5131744  43.5146161
  13.0149933  82.0408873  43.7174245 110.4604626  59.9080658  86.7650318
 110.7742310  59.4720602  85.9727669 109.7250938  59.3704557  87.0590305
  60.8517504  60.1190281  82.4460602  60.7155991  60.0225735  83.3885956
  61.8016863  60.0777292  82.3358154  56.2238694  30.1125801  14.1090890
  55.7420541  30.7397545  14.6482869  57.0947267  30.4982174  14.0135213
  93.5097408  61.8667603  81.5990162  94.3121529  61.3800192  81.4107037
  92.9668045  61.7439890  80.8203125  63.1510831   6.9537533   2.7246496
  62.2449971   7.1748341   2.5093576  63.1542874   6.8572367   3.6769601
  70.9403229  91.2788105  67.7889252  70.6567001  91.9969654  67.2232103
  70.1413202  90.7813931  67.9633188  25.0502826   5.3409374  26.8861219
  24.3559600   4.7241199  26.6544172  25.7180883   5.2140558  26.2121984
  64.4202996   2.0914495  31.9978830  65.2378942   2.1846664  32.4868509
  64.2536450   2.9639948  31.6413328  26.4822198  27.5868690  25.9589597
  25.6229545  27.3713720  25.5963918  26.8799592  28.1630409  25.3062269
  27.9939748  26.3392675  67.0061418  28.5636140  26.0143078  67.7033826
  28.5581208  26.9068516  66.4809629  33.9593216 103.7725047   4.7050878
  34.3141171 103.9646129   5.5731031  34.5135971 103.0675057   4.3704435
 100.6486468  78.0298976  17.3084756 100.6702475  78.7821917  17.8999349
 101.3298373  78.2140712  16.6617223  84.1097641  54.3237782  72.7704620
  84.1514683  54.8113155  71.9477844  84.0812683  53.4050751  72.5032473
  15.6948177  39.4067097  82.2406292  16.3736621  39.9700546  82.6121616
  16.1308853  38.5660529  82.1014500  44.9234629  99.2958927  87.2783089
  45.7189989  99.2507267  87.8086948  44.9028301  98.4635258  86.8061161
  20.6565238  13.0842770  16.0572072  21.3181974  12.5426138  15.6270620
  21.1076308  13.4570825  16.8146631  14.4827934  83.8189463   9.9135801
  14.6988102  82.8888945   9.8459646  14.4112869  84.1148166   9.0060636
  11.0577298  10.5862415   0.8428689  10.2486993  10.5044687   1.3478490
  11.1819793  11.5298307   0.7407113  89.9883275 103.4874658  18.6258050
  90.2646737 103.6178283  19.5329305  89.2284493 104.0602664  18.5222455
 109.4036755  31.2053192  14.3868085 108.5831318  31.5258015  14.7612878
 109.2859230  31.2936485  13.4409925   8.0432607  34.8286236  21.9495317
   7.2420693  34.8624790  21.4268705   8.5415746  35.5980957  21.6741391
  81.9719791  57.7324343  67.8032351  81.7482090  57.1104336  67.1109390
  81.5773964  58.5574770  67.5206757  28.8721467   6.1006868   8.2799836
  29.3937398   6.4341104   9.0100499  28.8957358   5.1493967   8.3835622
  51.0033512 100.0280190  90.1150513  51.7531347  99.4820690  90.3516865
  50.2803040  99.4095802  90.0103760  54.8468877  14.2045725  39.2892190
  55.3300954  13.4999073  38.8577195  54.3443490  14.6159113  38.5860177
  64.0030432  66.5573645  84.0964031  63.4974146  66.3251352  83.3175278
  64.0040922  67.5145292  84.1046810  82.1975040  61.7268419  82.0328999
  81.6857052  62.3803949  82.5095177  82.3126125  62.1026802  81.1601353
   5.8468910  86.2100438  20.4642316   5.4057022  86.9165377  19.9925824
   5.1800534  85.5292777  20.5543443  39.8435260   0.6715668  21.8260022
  40.3881599   1.4571083  21.7757150  40.3168346   0.0185621  21.3104554
 107.5079923  97.2187690   8.4365579 108.0063729  97.2624187   9.2526170
 108.0177121  96.6341905   7.8755971   5.5662824  72.9194725  13.8115808
   4.8834468  72.4804294  13.3044263   5.4165555  73.8522804  13.6576959
  58.2354403  92.5642300  78.8848829  58.4515047  93.0867863  78.1125593
  57.7910042  93.1762695  79.4715023  33.1241609   0.7631433  14.3132325
  33.7022115   0.0006855  14.3404886  33.4745170   1.3533008  14.9804612
  63.3646870  93.4713745  69.1145515  64.0588379  94.0395641  69.4485331
  62.7809286  94.0613461  68.6377001  30.7051278  38.4705151   0.3210088
  30.7340671  37.7839458  -0.3453330  31.5128995  38.9667690   0.1888391
  45.0291825  11.6256893  10.9071561  45.9283925  11.3649214  11.1062642
  44.6361638  10.8476293  10.5116865 104.5115185  59.0559959  76.4024019
 104.1754913  58.2971001  76.8792582 104.2877674  58.8826132  75.4880142
  76.4720726  66.2929678  86.7787838  77.0357227  66.8119097  87.3525620
  75.8175707  65.9136200  87.3652554  39.0515710  27.1672714  22.1651384
  38.8582851  26.5444601  22.8658315  39.8565818  27.6020611  22.4464628
  24.0591527  38.8936890  11.2709066  24.8633529  39.3379963  11.0024091
  24.2873097  37.9640854  11.2698480 109.4546275  99.7114018  12.8456899
 109.1286998 100.5966453  12.6833650 109.6422772  99.6935920  13.7841436
  20.6765271  -0.1742851  29.2163869  20.0839854  -0.2886021  28.4733793
  20.3248883   0.5799806  29.6893140  40.0797225  10.7675875   2.6551076
  39.8103810  10.6505144   3.5661432  40.6928493  10.0507200   2.4926111
  58.0835390  82.5788307  87.0659733  58.3850431  82.5722790  87.9744244
  57.4213028  81.8887138  87.0284176  10.2026168  93.0719948  86.3287449
   9.6158210  92.4651718  86.7800426  10.0112144  93.9249325  86.7187309
  11.8859387  13.6049116  18.9433881  12.4188090  13.8877476  19.6865484
  12.0627070  14.2529953  18.2614919  32.0510436  25.8382500   1.6381093
  31.3037969  25.3511656   1.2908193  32.2581435  26.4773548   0.9562799
  12.3757316  53.0261314   7.7200433  12.8362847  52.2072781   7.5367566
  12.4769689  53.5420883   6.9201871  25.0740291   2.6300705  30.4627725
  24.6598579   2.4311483  29.6230527  26.0004951   2.4323643  30.3256723
  94.7134118  87.2827772  26.5232107  94.4965749  88.2150916  26.5255185
  93.9034037  86.8478230  26.7895528  64.8639585  20.1268185  14.2898961
  63.9394284  19.9159181  14.4202634  64.8708058  21.0642326  14.0964052
  41.5225364  28.1383026  12.0191690  41.3332273  29.0571392  12.2092649
  42.4562312  28.0423248  12.2068902  76.5072489  70.3086710  76.9848871
  75.9265566  70.6230402  76.2919188  76.6518354  71.0737467  77.5416470
  24.1782332  22.9980743   9.4594785  25.0721932  22.6575840   9.4258233
  24.2828752  23.9490736   9.4297143 107.1516213   7.2833002   5.7542630
 107.0146069   6.3377083   5.6967088 106.3887081   7.6628340   5.3181955
  46.6910077  15.9368837  23.0300065  46.9109250  15.0968588  23.4327813
  46.1376096  15.7070291  22.2835752 109.3828301  79.8890237  26.9592592
 109.8642735  79.4362048  27.6516458 108.4748893  79.6095995  27.0767232
 100.5157375  85.8216572  86.3802910 100.3423595  84.8850918  86.2853241
 101.4379025  85.8701801  86.6322613  85.4334736  58.2511663  79.6626711
  85.7037735  59.1565561  79.8157835  85.4956055  57.8340816  80.5219841
  92.7395630  40.0305271  75.4702902  93.5506725  39.6831083  75.8412838
  92.2355652  39.2539740  75.2270174  41.6692257 103.2103825  46.2782955
  40.8894300 102.7252579  46.5481186  42.3643923 102.5527763  46.2553453
  83.3859730  84.0020943  90.4757595  82.9306316  84.8035336  90.7338047
  84.3081665  84.1807079  90.6598568  72.0915174  23.8621378  81.5297413
  71.8668461  24.7585678  81.2804127  72.8211498  23.6295342  80.9554958
  65.4127121  60.6236744  80.6919575  66.3611603  60.7397985  80.6355095
  65.0823832  60.9383106  79.8504591  17.0613476  98.3462218  17.0609685
  16.7288586  98.9558867  16.4021894  17.7417179  97.8497676  16.6061422
 107.6979594  91.9209556   3.5626813 107.7066426  92.2632984   2.6688405
 107.1348624  91.1482123   3.5177347  29.8680450   0.5670202   7.2278711
  29.5970727  -0.3353512   7.0589467  30.8199216   0.5539596   7.1278974
  61.6467047  34.2099595  84.8981762  61.2843132  34.7223234  84.1754055
  61.0233259  33.4939241  85.0203323   3.8592197  46.4291752  25.3859159
   3.1271936  47.0383346  25.4823228   4.4074918  46.5901363  26.1538526
  53.2808209  16.8547094  26.1924478  52.4668981  17.2116459  26.5479204
  53.9391614  17.5225342  26.3843461  84.4097619  90.4220847  21.8611070
  84.1697078  89.5820765  21.4699670  84.5885901  90.2166180  22.7787324
  28.8087607  20.1538265   2.8607293  29.0138818  19.2421139   3.0679532
  29.6456100  20.5322922   2.5911352  99.1198540  53.6528492  54.9545097
  99.2729855  54.1901684  54.1772890  99.9863529  53.3225822  55.1918745
  84.1193295  64.8805332  62.6258898  84.4790554  64.2600679  63.2598114
  83.4338951  65.3441668  63.1069851  47.3047972  46.8322659  85.9143257
  47.0113134  45.9962416  86.2764835  48.2549334  46.8230724  86.0300159
  53.5721302  84.0122700  86.9066525  52.9493523  83.8987064  87.6246262
  53.5110283  84.9405193  86.6811562  69.3316130   6.0090741  79.3955326
  69.2103915   6.9276723  79.1553211  68.4510236   5.6351384  79.3643761
  18.3649441  96.1256007  19.9131223  17.5797650  96.6716269  19.9526998
  18.4425637  95.7536630  20.7916852  91.9436455  43.5581827  78.6597490
  91.1198139  43.3796549  79.1132593  92.3344994  44.2820024  79.1491890
 108.7867217 102.0382098  32.8194162 109.4949012 102.2254495  33.4355851
 108.5166650 102.8978709  32.4964925  97.3691611  78.5990433  10.9257242
  98.0024485  78.3298449  11.5910932  97.9019027  78.8062934  10.1579591
  69.9230958  24.9684227  24.0369340  69.5872689  24.5201433  24.8131391
  70.2320005  24.2633427  23.4680196  29.4736959  17.9939831  53.3968183
  28.9833976  18.1672562  54.2004415  29.9398137  18.8110578  53.2197400
  16.9295212 101.6882113  29.0317460  16.3399979 101.6643123  29.7854825
  17.6638886 102.2307328  29.3191549  42.5590992  85.4628468  81.3995266
  42.4577904  84.9345875  80.6077576  43.0876732  86.2111282  81.1222076
  40.3933998  80.7972387  61.4059373  40.8874413  81.5337066  61.0456964
  40.3082176  80.9988741  62.3377725  13.9861203   0.1960743   8.5849305
  14.1970349  -0.3435528   9.3468686  14.7813321   0.1797855   8.0523797
 100.8689837  91.7298464  22.6782438 100.9567838  91.6280130  21.7305299
 101.2330823  90.9221868  23.0406686  28.3215142  19.5412386  22.3408624
  29.0728856  19.4983232  22.9323217  28.6802388  19.8843420  21.5224286
  26.8101693   6.5169132  31.0692140  26.0559608   6.0660351  30.6895944
  26.7814971   6.2906492  31.9988462  73.7823915  82.0128441  82.3592377
  73.2678413  81.2903023  81.9995213  74.5974779  81.6044712  82.6509476
  58.9675999  70.5310917  89.7219563  59.2394972  69.8092985  89.1551113
  59.0486050  71.3107109  89.1725349  23.5369779  21.4764393  36.1440107
  22.8197290  21.1652840  35.5917665  24.3288947  21.2656773  35.6493684
  24.8542877 100.4794673  -0.1397875  25.1316067 101.3424281  -0.4473952
  24.8890969 100.5428485   0.8146783  20.6947757  14.3878305   6.1422368
  20.5782367  14.8681772   5.3225347  21.6343976  14.2101324   6.1841985
  18.0888034   7.2577942   5.7463380  18.1432582   8.1523025   6.0826608
  18.9991666   7.0017040   5.5983850  29.0619994  45.1335895   4.8222276
  28.1076432  45.1008976   4.7561761  29.3598367  44.3361271   4.3845388
 108.2262759  81.8306688  29.1534730 108.8221125  81.1783031  28.7852022
 108.7552075  82.6253203  29.2241212  35.7292319  35.0577820  21.0755464
  36.4552928  35.4704178  20.6077882  35.5719997  35.6301105  21.8265077
  66.8182374   6.9926107  12.3203012  67.2829915   7.5106705  12.9774495
  67.2735501   6.1506689  12.3131582   7.3769089  91.8271951   7.4242898
   7.0554539  92.7250699   7.5062677   6.6640755  91.2857012   7.7632352
 108.1419182  81.7521095  64.1249657 107.2338486  81.4494038  64.1219378
 108.2920265  82.0501995  65.0220919  72.4241353  21.3020552   5.7055970
  71.6441346  20.8405388   5.3976365  72.5495816  20.9890211   6.6014215
  99.8962021  64.0252447  79.1515160 100.7674313  63.6291456  79.1343594
  99.3426418  63.4071350  78.6742878  74.6848440  50.0843382  79.5585060
  74.3830538  49.2512941  79.9207115  74.3971062  50.0669193  78.6457443
  67.8777218  63.0697680  75.1200867  67.6088047  63.1973505  74.2103434
  68.8344336  63.0745888  75.0899696  20.0951911  11.8498648  11.0802575
  19.8856927  12.5120676  11.7389127  20.2728177  12.3513306  10.2845117
  58.0407619  84.6391201  77.0911407  57.9443455  83.8653755  77.6463413
  58.7515974  85.1367855  77.4952126  44.8742105  19.8346699  39.7851774
  45.4562951  19.0772951  39.7235891  45.3472043  20.5371750  39.3390962
 101.2670665  75.9587101  55.9266492 102.1611218  76.0738329  56.2485906
 101.0550742  76.7916731  55.5053827  74.4309616  70.6485605  74.8855829
  74.4243479  69.7252703  74.6331549  73.5789347  70.7901764  75.2981615
  17.8866764  62.7840857  23.1794664  18.6248966  63.3781270  23.3150216
  18.0135628  62.0923040  23.8287469  82.9216199 104.2590693   4.5342656
  83.2267575 104.9781589   5.0874635  81.9700055 104.2647199   4.6373769
  74.9398041  70.5647659  81.1295986  75.8496046  70.5007982  81.4201355
  74.7294903  71.4956045  81.2040424  78.7202787  52.5884485  70.2058315
  78.6913157  53.5300541  70.0362110  79.3604612  52.2517300  69.5789194
  66.6845989  81.4083958  77.8974724  66.3259602  80.5612087  77.6331329
  66.2376785  81.6118336  78.7191200  10.8198444  60.9628248  87.1529675
  10.2536098  60.8468866  87.9159641  10.3205863  61.5334368  86.5686893
  25.7102061  23.9395893  27.4741956  26.5829755  24.2994249  27.6323911
  25.6307365  23.2199562  28.1003305  99.0978718  64.9770641  61.8983221
  99.2925930  65.9081364  61.7914534  99.6745110  64.6915722  62.6069927
  50.7872582  17.1918667  35.5579397  51.1533071  16.9871557  36.4183637
  51.5144349  17.0575226  34.9501630  94.5133686  57.0911503  71.6074991
  95.1697445  57.1625853  70.9144592  94.0918922  57.9503250  71.6276836
  50.4889012   7.4560249   3.9270231  50.1491452   8.2788074   3.5751268
  50.7243253   6.9437635   3.1534597  94.1568470  40.6457329  64.6650696
  93.3979511  41.1168671  64.3210554  93.7819862  39.9422145  65.1949549
  46.5157128  22.5923002   6.1418649  45.6346704  22.6469982   6.5120145
  46.4862157  23.1561792   5.3689500  51.7383718  80.1791191  82.2608280
  52.1996593  80.1394749  83.0986023  50.8484650  79.8906326  82.4635124
  99.6153259  91.8660069  80.5635452  99.0643692  91.1614895  80.2224541
 100.3991985  91.4218807  80.8868504  56.6389180   4.2287481  46.3506624
  57.1973039   3.9651621  47.0820733  56.8780519   5.1403368  46.1831685
  95.4166222  20.5490518  80.2328300  94.6082783  20.7635045  80.6984711
  95.7173920  19.7353423  80.6373692  89.6882153  76.3230133  84.2770576
  89.9539852  75.8008337  83.5201359  89.1283894  75.7376909  84.7871780
  83.4921169  71.0621595  77.9979658  82.9291725  71.5364933  78.6097956
  83.3412170  70.1388264  78.2002449  57.4264336  42.6786327  84.7091484
  57.2514582  42.7485609  83.7706852  57.3735905  43.5787773  85.0303650
 101.7968735  25.2735460  32.1160623 102.0966277  25.9718693  31.5340635
 101.3889227  25.7323873  32.8504106   8.8952018  11.0091484  13.7935754
   8.2885696  11.0379589  13.0537149   8.6489583  10.2190674  14.2745897
  18.7207748  14.0450848   2.1872922  18.6009313  14.6474970   2.9214402
  18.4990216  13.1851423   2.5444433  74.8409557  79.3637753  61.0377359
  75.0170422  78.6979103  61.7024517  75.5825949  79.3031454  60.4356384
  12.0231148  84.6119241  62.4240609  11.1123463  84.7202305  62.1501848
  12.4338719  84.1315583  61.7052099  84.7691154  36.5869927  90.3235912
  84.8870182  35.7930255  89.8021126  85.6102562  36.7120504  90.7629967
  36.0503818  32.6761711  21.9877740  35.6802417  33.5564983  21.9225522
  36.9611455  32.7782143  21.7114946  69.5632315  92.4058151  82.3957539
  69.3864822  93.0705070  83.0614758  70.3060532  92.7530384  81.9019127
  77.1221257  37.4299896  15.3399774  76.8431474  36.5777862  15.0050851
  78.0259610  37.2918308  15.6232187  30.9967948  11.1183870  36.7235109
  30.4805471  10.9379089  37.5091001  31.1173392  12.0679510  36.7290422
 103.4538174  79.5086336  78.7376642 102.6546097  79.2322969  79.1861486
 103.1468582  79.8946285  77.9172897  23.6446715  23.5466755  25.4233667
  23.0026246  24.2392385  25.5794545  24.3374778  23.7139070  26.0623380
 100.3348255  77.7398205  83.4842300  99.6194077  77.2225428  83.1143093
 100.0927067  78.6478758  83.3024502  32.9492475  19.0162170  46.1903306
  33.0449725  19.7791469  46.7604276  32.5748635  18.3404100  46.7554494
  98.7232685  67.9647064  89.4977379  98.1148529  68.6830664  89.3244743
  99.2152119  68.2480907  90.2683926  53.3620549  46.2156666   3.5025903
  53.7305547  46.9664467   3.0370065  52.6614572  46.5867889   4.0389367
  28.4329082  33.4777058   0.6734868  27.5840522  33.5735310   1.1053296
  28.2291127  33.0674255  -0.1669673  30.7077122  54.2018843  91.1028671
  30.7148123  54.7701883  90.3326607  30.7714272  53.3155394  90.7471180
  36.5372516  66.5206039   1.8495103  35.6126023  66.2786472   1.7974874
  36.5496636  67.4600590   1.6664525  66.0824014  60.5475223  25.7291051
  65.8381177  60.4438866  24.8094293  65.4940988  59.9581325  26.2010690
  81.2733174  34.8949707   9.2825242  81.0335733  35.6589306   9.8070451
  82.1400930  35.1053799   8.9351579 107.9370837  82.9476170   9.6191903
 107.2254853  82.3116092   9.6923562 107.5466399  83.7767271   9.8955175
  66.9114971 102.0152855  87.6542473  67.2840595 102.0825768  88.5333920
  66.8693399 101.0744095  87.4833488  82.1940517  53.3897924  83.2143402
  82.0364761  54.0822077  82.5724983  81.4600945  53.4577274  83.8250065
  23.2045413  14.2758024  13.3413907  23.5162307  14.6991194  14.1413137
  23.2752181  13.3386839  13.5231611  38.3279801  30.6158436   4.2104932
  37.8341867  30.3935898   4.9998018  38.3138228  31.5724743   4.1805478
  28.9190198  11.7849720   3.7979814  29.6023799  12.1431816   3.2314702
  29.2605544  10.9356201   4.0775987  52.6411820   5.3038156   8.6741659
  51.9824601   5.9222401   8.3581468  52.2891713   4.4427908   8.4484407
  54.9757858  84.2992405   0.6959935  55.4161545  83.5717443   0.2566072
  54.8973271  84.0165833   1.6071340  10.3306342  18.8423670   4.6811696
  10.5390597  17.9301584   4.4794961  10.2873422  19.2725933   3.8272020
  88.9720917  87.9713726  77.9803896  89.6282291  87.5957394  78.5674238
  88.2346153  87.3627663  78.0247068  61.1301614  29.5643413  27.3289892
  61.1575891  29.8754204  26.4241716  60.8170987  30.3164947  27.8314706
  65.5368806  55.4269874  26.9439622  65.2281095  55.3718555  27.8483030
  65.8680249  54.5500648  26.7500612  35.5648805  36.4766682  49.3836805
  36.3879157  36.4610470  48.8952180  35.1477338  37.2980869  49.1238996
  76.7360926  73.0999660  87.9292297  76.8428850  73.2766914  86.9945717
  76.3528824  73.9028120  88.2825375  43.1566335  44.3163097  22.5815221
  43.7681485  44.8571384  22.0817491  42.2985984  44.7046268  22.4105855
  72.0568419  82.6714611  86.2699890  71.4609957  82.7438641  87.0156193
  71.5779352  82.1435642  85.6310844  50.0128366  29.3080223   8.5770246
  50.0932122  29.2993439   7.6232454  49.4925118  28.5308159   8.7806245
  63.4677601  79.0956306  77.8023481  63.0147505  78.2524157  77.8020763
  63.7888861  79.1947126  78.6986113  64.7579718  73.7749815  74.3283272
  63.8886833  73.3833075  74.4129658  64.6085262  74.5875406  73.8449526
  72.2549249  41.3124836  18.0527898  71.4726449  40.9238327  18.4442159
  71.9967271  42.2097767  17.8419801  22.1160694  92.8594665   1.3924714
  22.0176312  92.2088841   0.6972810  21.3096329  93.3737592   1.3551542
  49.3904019  26.0268248  11.9854947  49.6302510  26.9097126  11.7040464
  50.1272584  25.7387150  12.5242540  74.4172860  12.0246780  17.1630784
  75.1310063  11.4152754  16.9747850  73.8384915  11.5409410  17.7523347
 101.1481094  63.5563898  69.2892075 101.2766743  63.6984921  68.3513832
 100.9659100  62.6199007  69.3667889  64.3647767  42.5298393   8.7332269
  63.9004804  43.3644474   8.6692354  65.2838040  42.7746857   8.8412782
  41.1320111  98.4648351  15.5592843  41.7407032  99.0654353  15.9894201
  41.6880127  97.9150466  15.0071737  37.8599835  19.7647703   6.0734674
  37.7610112  20.6863869   5.8345815  38.0021239  19.3153370   5.2403756
  37.9475165  45.9089744  29.6265813  38.6867047  46.0918796  29.0465947
  38.3513118  45.6578625  30.4573175   9.1873833  98.4002809  53.9560148
   8.9762207  97.5907592  54.4211122   9.9606987  98.7403516  54.4060823
  10.7389065   8.5398110  83.4947491  10.3310486   8.6117276  82.6317787
  10.3771778   7.7342900  83.8642502  94.1789722 103.3486366  90.9659290
  94.9240112 102.8967953  91.3621426  94.2024899 103.0875492  90.0453281
  76.4295579  50.3696144   1.8202897  76.5111543  50.4828346   2.7672693
  75.8908845  49.5849598   1.7184182  37.5816680   6.6231287   9.4196531
  36.6750194   6.3325107   9.5184633  37.8848649   6.1940706   8.6195203
  75.6762362  93.3299637  83.9590740  75.5209684  93.5132027  84.8856544
  76.0607386  94.1368389  83.6165047  77.2966814  56.2624931  84.2600060
  77.8663063  56.9729805  83.9651108  77.1381474  56.4508486  85.1850033
  75.1193953  90.6692696  83.6394215  75.2572823  91.6099167  83.7508106
  74.5698977  90.5985260  82.8588581  27.4240209  28.6999691  28.2671281
  26.8695355  28.7644089  29.0447065  26.8332482  28.4012115  27.5757715
  59.1359521  36.3882435   7.1092912  58.9805413  35.7693851   6.3957902
  58.6417485  37.1693981   6.8607255  41.0868169  18.5525597   4.0036699
  40.2544261  18.0928696   4.1133806  41.6139461  18.2756555   4.7531244
  34.5830442  46.0977257  19.1665002  34.8664332  45.6413258  19.9587270
  34.6282197  47.0259750  19.3957254  49.5695020  53.0106342  24.3311044
  49.4618226  53.8852299  23.9573118  48.6764909  52.7122009  24.5034238
   3.1554500  92.8310871  66.7696095   2.2773639  92.5241184  66.9953680
   3.5434810  93.0840111  67.6072741   9.3156148  14.9105871  10.9463140
   9.1343833  14.4092358  11.7413255   9.2842866  14.2628181  10.2422925
 103.5297108  93.2134342  72.5433207 103.4916019  94.1306305  72.8144693
 104.2885399  92.8581715  73.0061340  96.9760132  72.6506615  65.7763338
  96.1004353  72.6467466  66.1630678  97.4953175  73.1986475  66.3647795
  97.2881255  24.9160421  11.3931104  97.7674684  25.3998888  12.0656797
  96.9050178  24.1732204  11.8596669  70.3739739  71.3507259  22.8030988
  69.4886399  71.7022789  22.7091905  70.8796216  72.0720280  23.1776258
  93.5775757  40.6226969  68.9402533  94.0325260  39.7968388  68.7752724
  93.8256550  41.1837435  68.2054663  70.4211330  59.3655396  82.7287769
  70.8627653  59.9329615  82.0969296  71.0548019  59.2581797  83.4381199
  64.7228242  61.2992657  29.5518133  64.9801732  60.9135044  30.3891870
  63.7658788  61.2806023  29.5635148  86.7537785  68.9147234  89.1272926
  86.2368202  69.6045828  89.5433235  87.4276733  69.3839836  88.6354733
  93.7598515  66.5736866  71.8149424  94.7121143  66.4767361  71.8112612
  93.4281254  65.6778669  71.8758392  88.3457279  58.1065130  80.6657314
  88.8525391  58.3630800  81.4361572  87.4386597  58.0884027  80.9708881
  57.0629693  28.6009872   3.1378003  57.4537755  28.8150585   2.2906419
  56.2437535  28.1571854   2.9183599  36.2704421  22.3062933   8.1008455
  35.7782794  23.0805290   8.3739110  36.8879891  22.6334322   7.4467489
  45.5981637  24.2598761  12.3396226  44.7902013  24.4561565  12.8138467
  46.2465669  24.1026390  13.0259725 109.2002730  94.9858502   7.7810499
 109.7823338  95.4838542   8.3549997 109.2152839  94.0974978   8.1371805
  74.9630929  23.6067713  20.4520627  74.7581197  23.7286413  19.5250436
  75.5325318  24.3445290  20.6704446  74.9184084  71.6303062  84.2231941
  74.5454025  71.0513449  83.5584354  75.7575464  71.9077206  83.8556004
  51.7512704  22.4267280  12.7295610  51.7969228  22.2105825  11.7982026
  50.8214761  22.3575867  12.9461881  87.0913315  66.9168377  67.9026461
  87.3150826  67.1259165  68.8095379  86.2641907  67.3733139  67.7486801
  64.0904427  75.4575539  79.3576479  64.8759842  75.9864092  79.4971704
  63.4353685  76.0802412  79.0424109 108.8789177  72.2237444  87.4710464
 108.3108330  72.4367189  86.7306709 108.2801151  72.1217346  88.2108116
  82.7595425  58.0610800  76.4097881  82.5435162  58.9892197  76.3196421
  83.0202484  57.7892780  75.5297947  71.6257478  28.1501949  66.4995691
  71.7695333  27.2126139  66.3711187  70.9771634  28.1990421  67.2018358
  46.8373490  43.5698021  13.8378068  46.0850907  43.4937656  13.2508107
  46.5327836  44.1384113  14.5450231  48.7755204  11.4807499  19.9293634
  49.4997407  10.8823049  20.1126691  49.1998292  12.2898662  19.6438333
  93.5746193  82.5412273  88.4113693  93.8612270  83.0851078  87.6776886
  93.6012268  83.1266499  89.1682053  95.4251914  83.9753846  36.7887994
  94.8880153  83.9738492  37.5810548  95.3344016  84.8619703  36.4395829
  67.9107761  68.1653595  89.0663624  67.3158693  68.9133978  89.1188812
  68.6100149  68.4560823  88.4808826  53.7062837   3.1798971  14.4313260
  53.9833451   2.3119200  14.1379281  53.8093949   3.1553638  15.3826448
  61.5214158  35.8377636   2.1517488  62.0031644  35.2635181   2.7470609
  61.1211301  36.4933288   2.7229329  34.5766021  38.4528149  13.2418176
  33.6693431  38.1740940  13.1175824  34.5267821  39.4061077  13.3123990
  28.5278178   1.7403257  13.2103463  29.0646077   1.3431347  13.8961431
  29.1597129   2.0570076  12.5648614  59.4861222   1.1433971  23.7090799
  60.3146840   1.5470732  23.4506913  59.4151593   1.3214243  24.6468946
  26.2769791 102.7351979  25.0027200  26.6015526 103.3072070  24.3072435
  26.8146988 102.9544476  25.7636472  72.4279451  73.0833626  58.8371897
  71.9369984  73.5486937  58.1599379  71.7972660  72.9570055  59.5460701
   1.9286720  72.6157045  77.4241447   1.0689155  72.9307461  77.7030754
   2.5358478  73.3036613  77.6967096  20.6022311  21.6207159  19.1886922
  20.0843621  22.3926056  19.4172212  19.9525453  20.9419477  19.0058824
  17.3087689  84.9089126   1.2211820  17.6138397  84.2460374   0.6016942
  16.5536114  84.5064024   1.6500779  35.4568578  26.6958893   4.7544214
  36.4097596  26.6053665   4.7587034  35.1631452  26.1719072   5.4996797
  59.9942113  35.7764328  22.2154065  60.9296323  35.9361065  22.0899984
  59.6259595  35.8043659  21.3323137   5.5562306  25.3978575  20.6924459
   5.5359698  24.4473398  20.5813428   5.5500365  25.5283535  21.6406843
   8.4086601  58.1224203  88.3209896   8.5423938  58.0062008  87.3803329
   9.2885200  58.2565928  88.6732292  21.1353394  95.8437900   5.0230237
  20.3828522  95.9796981   4.4472429  21.7767426  95.3904227   4.4759485
  15.3286167   2.6440915  64.9317455  15.6883904   2.6427373  64.0447330
  16.0243508   3.0188950  65.4718399  34.2726470   2.5649631  11.2825795
  34.5369865   2.8788412  12.1473523  34.6983386   1.7119205  11.1969682
  95.4261684  57.1761656  64.2884111  94.5180416  56.8848848  64.2066288
  95.4605198  57.9949903  63.7938690  98.4263420  86.2913036  75.2605724
  99.1569901  85.7418823  74.9768257  98.1444931  86.7442131  74.4657993
  88.5746861  96.8213844  68.4681940  89.2962074  97.4101925  68.2469749
  87.9223824  97.3867416  68.8818455  95.8457279  41.5446854  79.3245602
  95.0159073  41.0738850  79.2472506  95.6147861  42.3680830  79.7545815
  28.2225896   6.6277874  21.0193750  28.8292266   7.3118532  21.3027211
  27.9157497   6.9202364  20.1611444  86.5347196  30.6609714   8.2460901
  85.8604051  31.0559070   8.7988588  86.8817617  29.9392116   8.7703534
  68.1740190  29.6247566   8.6318036  68.5934259  28.8649738   8.2279989
  68.5800744  30.3783119   8.2034227  66.4255429  15.9652841  37.7928945
  66.0718156  16.5356195  37.1103784  66.0093404  15.1176680  37.6362058
  53.7364389  34.1449249   8.7554570  53.5924626  34.9603546   8.2752630
  54.6877576  34.0399635   8.7694188  43.6893560  35.9451378  12.4402925
  42.8462077  36.0368240  11.9965192  43.4770108  36.0012615  13.3719560
  63.1620885   9.4817055  25.0403806  63.7996579  10.0512970  25.4708597
  62.3805905  10.0261057  24.9449369  94.9444771  77.3090506  90.4145527
  95.2451229  76.4030790  90.4856396  94.4266224  77.4524164  91.2067032
  98.5404491  87.2767735  69.0455532  99.0917492  87.2519207  68.2634497
  99.0022278  86.7304039  69.6815395  98.3896828  80.9153366  90.0531578
  99.2483139  80.5182648  89.9071598  97.8628063  80.2131367  90.4346561
  16.5877152  35.7305038   2.1466562  17.4711705  35.7941997   1.7837735
  16.2011434  36.5917671   1.9884607  38.4805490  34.0367020  17.8862020
  37.8159619  33.3570183  17.7740403  38.6795188  34.3263805  16.9958421
 108.1216335  65.5307913  82.2869778 107.6965523  66.0642910  81.6154671
 108.7661743  65.0106478  81.8071365  37.0426560  40.9920776  24.9836561
  37.4505330  40.9454048  24.1189596  36.7949344  40.0887287  25.1807042
  80.9692574  54.0433168  51.0019684  80.2699280  53.4063768  50.8554125
  80.6792736  54.8285007  50.5376196  32.5076676   4.5673407   9.8489114
  32.1419240   4.0698135   9.1175290  33.1238462   3.9641750  10.2645418
  71.9083215  12.3070562  14.0103647  71.1161138  12.7417696  13.6946698
  71.9613935  12.5480211  14.9352189  26.7954827  38.4303654  11.4975950
  26.8407775  37.5302875  11.1750528  26.7520572  38.3417118  12.4496862
  71.7751027   1.8585480  17.9318258  72.0364381   1.1016310  17.4074098
  72.5603391   2.4044216  17.9724332  68.2650472  61.2929905  19.8916932
  67.7850438  60.5318344  19.5653840  68.0511762  61.9933308  19.2752382
  85.9160614  54.3164587  63.4843397  85.1798439  54.4408417  62.8853989
  85.9560680  53.3699656  63.6213827 102.7147865  77.7339029  90.9251308
 103.4298611  77.9621744  90.3311634 102.3514557  76.9257212  90.5630875
  49.5824624   2.3559320   0.9139272  49.3003179   2.8830564   1.6614362
  50.1625634   1.6951359   1.2921640  50.9740735   8.6388481  40.7889100
  50.3524209   9.3229139  41.0375806  51.7460824   8.8090980  41.3285753
 111.0580444  91.6940880  79.5431805 111.7957497  91.9199944  80.1097298
 110.5063534  91.1277199  80.0827122  30.7732059   4.6856535  13.3280298
  31.1062003   4.4866598  14.2031022  29.8430587   4.8680103  13.4614583
  78.6656809  61.9775009  85.5944920  78.8054562  62.9197216  85.6889343
  77.7514505  61.8970633  85.3225708  13.1812664   1.7777070  72.1029902
  12.7175518   2.6150617  72.0968723  12.5469204   1.1500939  71.7566776
  80.0030899  47.1678686  79.8460674  79.0483475  47.1755219  79.9141455
  80.2629757  46.3249922  80.2178955  28.1583210 102.1367434   3.8916322
  28.7907025 101.4185885   3.9157983  28.0605217 102.3385457   2.9610750
  29.3291760  44.6110523  15.6533643  28.5075570  45.0597275  15.8530256
  29.0727092  43.7036407  15.4888460 107.0983028 103.4979534  51.8486691
 106.1903286 103.1952858  51.8633699 107.5366211 102.9105854  51.2329578
   2.5649444  59.2765284  80.5359554   2.1810047  59.9871635  80.0223160
   1.8787471  59.0319967  81.1568928  55.9404325  23.8860989  83.2625103
  55.9507990  23.9679885  84.2161465  55.1373100  23.4012198  83.0724716
   1.8614761  58.5239601  59.5679951   1.8327705  59.3350649  59.0605402
   0.9503929  58.3623934  59.8130751  37.5954811 100.1096821  84.0997887
  37.9672424 100.6654263  84.7847462  36.8344680 100.5963898  83.7832355
  73.1907083  24.2875755   5.4277631  72.9516603  24.4560945   4.5163461
  73.1585504  23.3345926   5.5115339  30.4560805  61.3622749   3.6733266
  29.6160222  61.7614639   3.4470960  30.4862023  61.3932693   4.6295568
  68.0982828  77.3692226  75.4916286  68.9311171  77.0005417  75.1971960
  67.5775194  76.6086435  75.7496166  54.5910741  12.0872105  16.2549516
  55.1088716  12.8691090  16.0632345  55.1672936  11.3570202  16.0290738
  62.9633379  74.6950054  89.2983341  62.3759937  75.1127863  89.9281883
  63.7633085  74.5224047  89.7948074  75.5019380   4.3793285  16.9960615
  75.6379129   3.8225639  16.2294027  75.9316159   3.9107263  17.7116224
  23.2199470  61.6386175  71.2402821  23.9859287  61.1977005  70.8727264
  22.5020973  61.4006281  70.6535292  10.8998390  12.2960004  69.2434120
  10.3867813  11.5126904  69.0448523  10.2811810  12.8840932  69.6765709
  16.1645023  80.2866840  84.5158386  15.7040779  81.0374737  84.8907471
  16.7228977  79.9693441  85.2255726   3.5171119  78.4217548  87.9270649
   3.5704700  78.0526876  88.8086414   3.6497394  77.6730967  87.3455524
  11.2359616   4.7620019  48.0262566  10.7358452   3.9678391  48.2144690
  11.1524864   5.2912339  48.8194656  26.1188117  88.6558628  43.4297895
  26.3510314  89.1593933  42.6495600  25.1905624  88.4519291  43.3157444
  70.1213102  46.3641135  27.4549600  69.5949416  46.2487630  28.2460710
  71.0171728  46.1742405  27.7335473  26.9249320  44.5146608  83.3178616
  26.8219852  45.1636410  82.6218319  27.5016284  43.8496208  82.9418564
  27.4873920 100.5555648  54.6187162  26.6191621 100.5012349  54.2193890
  27.3178716 100.8027539  55.5277777  86.1416344  68.1829826  18.5590001
  86.6155867  68.3001904  17.7356740  85.9198146  67.2520188  18.5772344
  43.4283733  37.0759916  86.7836857  42.6539326  37.6382518  86.8021488
  43.0777025  36.1870551  86.7284584  61.1526918  21.5802431  25.3062892
  61.1437654  22.5350881  25.3727937  60.7694483  21.3962913  24.4486666
  71.4660601  63.7930659   4.2066022  70.5389576  63.5740117   4.1131803
  71.7822962  63.8846008   3.3078023  30.8775850  89.2656282  88.5501957
  31.0373349  90.1878098  88.3494663  30.1188893  89.2754654  89.1337395
  14.2216396  26.8733454  76.4071655  13.8990128  27.0271397  75.5191946
  15.0558209  26.4204001  76.2838173  97.4636941  76.8521360  18.3984491
  97.5846629  77.5385431  19.0545293  97.0456700  76.1354951  18.8758489
  39.7634359  64.6803752  66.0150671  39.9738927  63.8686172  66.4765835
  38.8422151  64.8404351  66.2199259   0.8205052  83.0806271  70.7769442
   1.3533635  83.4507528  70.0731659   0.1608820  82.5535241  70.3260660
  51.4687824   0.2659279  75.9932280  50.9066439  -0.1713077  76.6328049
  51.2662697   1.1961552  76.0927105  70.6041817  53.5432108   4.9293157
  71.5139799  53.7592881   5.1337930  70.6018405  52.5918393   4.8238775
  89.6139531  49.9814507   0.0623628  90.3717713  50.2936807  -0.4320697
  89.7941594  50.2407279   0.9659883  34.5192742   7.8846687  68.9721918
  35.4124331   7.9697639  69.3057442  34.4021797   8.6461395  68.4041405
 106.1347394  49.9921615   7.8189298 106.0901456  50.9320042   7.9948255
 106.6162782  49.6317197   8.5635301  36.1778588 103.9771812  87.7686787
  36.5905948 103.7249531  86.9426823  35.3888507 104.4517830  87.5070572
 104.3978600  78.5602693   4.0187570 105.0393014  79.2246322   3.7669488
 104.8872905  77.7377562   4.0058538  41.1901951  23.9865947  85.0569248
  41.0575628  23.0485439  85.1936817  40.5582380  24.4055223  85.6411934
  85.8431821  59.8260252  15.1676580  86.3931517  59.0533707  15.0381585
  85.4716115  60.0031022  14.3034765   9.5898624  77.7883354  90.6942940
   8.7339349  77.3715082  90.5949116  10.2174230  77.1076003  90.4513931
 100.8552984  91.3658455  51.2312031 101.0542659  91.8904928  50.4557085
  99.9035076  91.4184025  51.3181925   6.6781707  80.3327337  84.7788906
   7.1472020  79.6156422  85.2055264   7.3581596  80.8211318  84.3148708
  41.3006115  17.6108074  89.1334820  41.6997528  17.0424008  89.7921467
  40.3900862  17.3194396  89.0857315  91.3263612  50.7218514  16.8529054
  92.1912055  50.7202231  16.4426919  91.3452439  49.9776111  17.4545595
  11.3185163  91.1000529  91.1310959  11.0681625  90.3600160  90.5780125
  11.1473699  91.8714872  90.5908871  71.0638046   4.3918741  72.2358179
  71.9741344   4.6470311  72.3855686  70.8102560   4.8635793  71.4424467
  36.8048377  87.7343765  52.6006174  35.9444757  87.3164061  52.6367950
  37.3341270  87.2480980  53.2327747  26.2032743 102.3971990  33.0329370
  25.8633228 101.5870762  33.4128952  26.8985744 102.6693364  33.6318731
  66.1563306  71.2593559  17.6078054  65.9981160  70.3223554  17.4927923
  66.5010671  71.5494899  16.7632886  26.8849993  16.8814433  49.5393181
  27.1956229  17.7713001  49.3722868  26.3763809  16.9529629  50.3470469
  33.6923213  74.4580093  82.4492741  32.8461166  74.7679726  82.1266460
  33.4711785  73.8375631  83.1438065  46.6782236  15.9468627  83.1792068
  47.2870636  16.3238227  83.8143826  45.9712219  15.5828321  83.7119961
  13.2817931 103.3413896  85.3487587  14.1953988 103.1963258  85.5947399
  13.1270023 104.2669477  85.5374813  43.5927391   3.2134864  81.0957527
  44.4268990   3.4572724  81.4969730  43.6400127   2.2618398  81.0042953
  86.8108849  52.4319102   4.9242708  86.0168509  52.0986689   4.5063134
  86.5972619  53.3350794   5.1585409 102.5997118  77.0304290  80.7506084
 103.5483555  77.0227448  80.8780861 102.2626976  76.4401213  81.4245510
  42.9460239  11.2229288  81.7539120  43.7390852  10.9033215  82.1841812
  43.2094002  12.0496774  81.3497448   7.0181652  33.6046473  29.2912122
   6.2065598  33.1026701  29.3656846   7.6985642  32.9428915  29.1672441
  21.6138983   6.3650090  72.8090954  21.3628817   6.7882323  73.6301327
  20.7865548   6.0688889  72.4295568  19.1760314   1.5985553  86.0267162
  19.7874224   1.4823963  85.2994251  19.5924735   2.2530258  86.5874958
  47.7562523  13.7257302  90.5095291  47.9238987  14.5629275  90.9422302
  48.2082939  13.0804253  91.0531044  55.8665609  26.1041331  60.4183006
  56.7234564  25.9456182  60.8143234  55.8989286  25.6381226  59.5828247
  36.9342947   0.4167063  55.5265141  37.1945143  -0.0454459  56.3233376
  36.7478108  -0.2790681  54.8961544  68.5644202  50.0744275  10.3381559
  69.2291431  50.5239181  10.8600160  68.7673025  50.3141383   9.4339391
  42.3171520   4.8770595  42.3215771  41.9818449   4.0376037  42.0067549
  43.0969381   5.0379455  41.7902756 106.8503813  98.8585815  69.5497179
 107.0180181  99.2054311  70.4259777 107.0976309  99.5701305  68.9591265
  40.3998979  77.0913223   4.6599122  39.8591463  77.6515988   5.2166005
  40.1460202  76.1998323   4.8987027  45.3456736  35.9060264  52.7520514
  45.7042694  36.7908168  52.6828671  45.9741116  35.4350019  53.2992554
   4.8651644  55.0194401  37.1702882   4.2601248  55.7091151  36.8973371
   4.3357989  54.4391037  37.7172872  79.9491839  68.6567155  -0.0157241
  80.5083709  67.8927807   0.1254960  80.5505423  69.4011001   0.0064298
   8.5739005  13.5801530  66.0984707   8.5893339  13.0006659  66.8601704
   8.1422424  14.3752360  66.4111137  47.7159612  62.7518753   3.3617708
  48.3593933  63.3230976   3.7812063  48.2252328  62.0011572   3.0563184
  62.3665094  27.1582365  45.4318476  63.1110668  27.7216959  45.2211761
  62.7495337  26.2887764  45.5483103   2.0280833  80.2282539  60.8019257
   1.8632503  79.5111719  61.4141798   1.4279790  80.0646988  60.0743532
  65.5900669   6.9354105  63.1730890  64.8464727   6.8838561  63.7736177
  65.2363634   7.3562247  62.3894835  79.0603309 101.3455800  38.6681482
  79.4549899 101.6208390  39.4956228  78.1677108 101.6895036  38.7024137
 105.4786496  41.6840593  10.3228589 106.0418849  42.3343448   9.9031850
 105.8925681  40.8443240  10.1234838   3.5205598  86.4230612  71.3454008
   4.0282102  87.2172884  71.5119123   4.1369147  85.8307317  70.9147263
  82.8117566  55.3557373   4.2587682  83.2550101  55.5773909   3.4398481
  81.9102578  55.1654912   3.9992830  27.5417209   0.8634770  64.1007137
  28.0257559   0.7019290  63.2908726  27.9141688   0.2454935  64.7296906
  16.9617975  24.4765091  70.6138945  16.0842443  24.2152739  70.8929777
  17.4063170  23.6517024  70.4181099 102.3105197  46.6017041  11.7747136
 101.8704896  46.5845368  12.6245996 102.5460439  47.5204287  11.6454622
  97.1268325  61.9296847   0.5065080  98.0554013  61.8383131   0.7201501
  97.0847754  62.7061001  -0.0517443  33.2491374  47.1261454  44.7174358
  33.9485383  46.4741230  44.7614384  32.4445438  46.6232157  44.8436165
   6.0339898  17.9346740  62.9253006   6.0677564  18.8201225  62.5632620
   6.7143214  17.9250932  63.5985708  64.9092798  39.5806781  21.4699193
  64.3483500  40.0796834  22.0637056  64.2987661  39.0962843  20.9141656
  10.4318285  12.7958131  87.1526623   9.5364350  12.7407563  87.4865341
  10.9483373  13.0957663  87.9006481  39.7417307  59.1644239  71.9192314
  39.4106412  58.6610699  72.6630306  39.4358587  58.6841345  71.1498165
  67.1544218   2.7821597  81.4903069  67.2935104   2.2512574  80.7060719
  67.9120684   3.3663067  81.5215683  29.1243076   1.2096271  72.2250414
  28.9825845   2.1153638  72.5003338  28.4589839   0.7089135  72.6971197
  98.7153367  64.1250983  81.8190670  98.8276080  64.1562358  80.8689880
  99.6067837  64.1526881  82.1666145  76.0288291  43.8789276   1.8101140
  76.2678389  43.1454495   2.3767778  75.3358226  43.5317562   1.2484666
  69.4848537  11.3491940  67.3353291  70.0155878  11.1648035  68.1102848
  68.6495495  11.6590750  67.6852942  24.8880196   5.1198602  53.5979271
  24.7440028   4.9707326  52.6634502  25.7820225   4.8155296  53.7540531
  83.5384278  44.2739288  22.2007486  84.3300395  44.6216575  21.7900583
  82.8647570  44.9278150  22.0141145  64.7639942  13.4583402  75.9981680
  65.0143957  12.5345862  75.9836483  64.4789457  13.6433220  75.1033163
  75.9388494  12.2384036  56.9108963  75.1932764  12.5598836  56.4039421
  76.1323214  11.3799655  56.5342188  93.6033969  77.6837925  20.2338430
  93.2379632  78.1740073  20.9703084  92.8698926  77.5799803  19.6276780
  38.7321277  67.1068040  67.7339983  39.2699523  66.3203326  67.6421356
  37.9481883  66.9226566  67.2165442 107.0407466  93.0046526  42.7437449
 107.6824716  92.7565304  42.0782709 106.3633016  92.3308650  42.6862049
  49.4678783  14.3612528  43.8478088  49.1341162  13.7083554  44.4630814
  50.0072479  13.8601768  43.2360601  44.9507804  87.5686685  69.4428349
  45.8359809  87.3118619  69.7010899  45.0810523  88.2814947  68.8174200
  22.4176574  10.3046918  76.9404221  22.4633384   9.5409846  77.5156593
  22.5850558   9.9555427  76.0650349 101.4950123   1.4205505  80.1352310
 100.9664460   0.6429572  80.3146744 101.8477347   1.2731184  79.2576885
  55.3481674  19.9239469  77.7439165  55.5586672  19.0704238  77.3652077
  55.9906769  20.0404716  78.4437990  40.8547735   3.9280495  50.4865265
  40.3022623   4.5390016  49.9989796  41.4832544   4.4864053  50.9442234
  10.3147359  97.6621202  62.4752665  10.4970164  97.4738232  61.5546370
  10.7460113  96.9545451  62.9544020  79.2842488  48.2824404   0.6328603
  79.5274072  48.7742920   1.4172002  78.7087731  47.5883389   0.9542295
  71.1300664  38.6551408   5.8429071  70.2956467  38.2729343   5.5710717
  71.7712908  37.9599194   5.6954976  64.8328690  33.8740698   6.2264749
  64.3414931  34.5897345   6.6297170  65.7106094  34.2317299   6.0927507
  50.2825356  16.7070985  39.7078061  49.6799135  16.2687206  40.3085613
  49.9034119  17.5767422  39.5804691  33.3792920  89.2332617  54.7288275
  33.3990426  89.5693282  53.8327789  33.3475776  88.2819990  54.6272087
  29.3876910  31.8087935  84.8342419  29.6156502  32.7351832  84.7563362
  28.6802697  31.7895937  85.4787731  67.1219783  27.5731234   1.1354371
  66.1836414  27.7533511   1.0782358  67.3088937  27.5721816   2.0742151
  47.0006084   1.7329891  84.7407055  46.5458632   2.3207609  85.3439999
  47.8618622   2.1329367  84.6202278  95.7710055  93.0452815  78.5015059
  94.9646763  92.5309256  78.4627628  95.5330256  93.8924495  78.1248045
  32.3445821   8.5127413  80.7621956  31.5759945   7.9895926  80.5345535
  32.0077896   9.1910332  81.3476181  64.9517898  45.5499140  24.5703336
  64.7522549  45.6603412  23.6407014  64.9297170  44.6031002  24.7092172
  28.8869143   7.4326748  62.4710608  28.3878231   6.6178226  62.5272226
  29.3692088   7.3618460  61.6472816 107.8593258  96.7326031  78.0636549
 107.2992281  96.8079868  77.2911024 107.3537306  96.1966303  78.6746693
  36.1036897  34.6441364  87.0358753  36.7568707  35.2974463  86.7853355
  36.1783266  33.9624763  86.3680458  50.9340143  25.8006477  81.8268490
  51.8082714  25.5960870  82.1586132  50.4532290  26.1110139  82.5941467
  66.1279516  64.5599452   9.6157380  65.9953599  64.7349874   8.6840650
  65.8536415  65.3663842  10.0523683  19.1738355  12.5017273  63.4820700
  19.7263002  13.1493270  63.9198208  19.7722816  12.0272064  62.9050732
  24.5251842 102.5582968  50.6731129  25.1822515 101.8852100  50.4957581
  23.7426133 102.0684025  50.9257269  38.9713216  32.7930808  79.2498493
  38.9893532  32.8718829  80.2036285  39.4013667  31.9569588  79.0704298
  30.5399489  11.2880445  69.5551109  29.8478889  11.5652645  68.9547491
  30.3215623  10.3811979  69.7699833 109.0771106  85.4992810  57.9223251
 108.1453279  85.5183283  58.1406212 109.1170768  85.0415233  57.0826292
   3.5680242  93.4597639  48.3230686   3.7132402  93.3645240  47.3817539
   3.7835069  94.3740049  48.5073614  22.5913758  87.4707953  88.4772301
  23.5469051  87.5264243  88.4871292  22.3924918  86.6772774  88.9742374
  40.5853415  32.0967603  62.3174381  41.1554384  32.8121686  62.0356417
  41.0324717  31.3036346  62.0220470   6.4971441   9.5927733  38.9165759
   5.8488667  10.2909327  38.8241506   7.0736033   9.8927122  39.6194005
  19.7548337 101.9760222  82.4753380  20.0273795 101.4595664  83.2337761
  19.9129863 102.8838274  82.7343941  59.9832582  19.3451643  68.1935501
  59.1929483  18.9523804  68.5641718  60.0111151  19.0227783  67.2927046
 100.5702452  72.3602191   0.6427881  99.9556260  73.0910853   0.5771562
 101.1639218  72.6093821   1.3510915  54.5394850  14.0598142  68.6788082
  54.8524570  14.6656799  69.3505287  55.1420403  13.3175790  68.7262297
  25.7695961  27.2760463  71.9996977  25.2210927  26.7193151  72.5523520
  25.1863933  27.5661850  71.2983227  46.8430133  97.0871196  89.7038746
  46.7601104  96.5109703  88.9439964  47.1778770  96.5203605  90.3987694
  54.1314452  71.1819116  24.7242090  54.2793279  71.4791123  25.6220075
  54.8647873  70.5941466  24.5426294  56.2461281  16.5012491  79.7752857
  56.8701887  17.1907508  79.5486450  55.9567308  16.7217004  80.6606579
  38.5498195  94.7015885  19.4619390  38.5725840  94.7781400  18.5080835
  39.4705713  94.6892718  19.7232744  72.7790026  76.6516880   1.0557386
  72.8978829  77.5972418   0.9661409  73.6532526  76.3184694   1.2579366
  26.5996313  35.1099849  89.6273899  27.0857573  35.0183678  88.8079262
  25.7942319  35.5635262  89.3786716  47.4103546  27.4205589  86.8598366
  47.7990580  26.5630674  86.6870689  46.9324875  27.3058105  87.6812363
  40.7818174  30.6071186  85.3251457  40.2258253  30.7762599  84.5645523
  41.6250992  30.9984279  85.0971508  31.2770748  10.1573884  47.8281784
  31.6410565  10.7999170  48.4371996  32.0339966   9.8363990  47.3380089
   8.8959404  89.7928170  46.1128541   9.2063614  90.0888018  45.2571317
   7.9802605  89.5554332  45.9664842  17.3666663  95.1442710  52.0408440
  17.0161195  94.2866114  51.8004990  17.1730895  95.2290824  52.9744196
  27.3480630   6.8899888  68.4044075  28.0440331   6.5877724  68.9879513
  26.7186475   7.3187482  68.9842653  69.7658062   2.2653370  53.2882977
  70.1232338   3.0957249  52.9737616  68.8235188   2.4199897  53.3547020
  39.0332532  13.4591532  77.5081110  38.9383078  12.5112951  77.4144077
  39.7885299  13.5682476  78.0859423  14.4392343  92.5861124  90.1490879
  13.6255927  93.0892411  90.1819611  14.8575826  92.8603045  89.3329716
  52.2073841  12.7961385  76.6004324  51.2582588  12.8314924  76.4815044
  52.4436903  11.8964183  76.3748360  30.7439323  84.3406955  55.0569010
  30.4565711  83.4412399  54.8999310  31.2100406  84.3009320  55.8920002
 102.9112344  53.8888528   6.5915128 103.0534129  54.1463436   7.5023958
 103.6650042  54.2453101   6.1213991  33.6747599   6.9287699  62.3425102
  34.4387555   7.1767765  61.8218994  33.7908983   7.3901421  63.1730986
  94.6231227  39.2628554   0.6051656  94.7382884  38.5682241  -0.0432566
  93.6837487  39.4464485   0.5952188  87.1816926  63.2933907  16.5032884
  87.6837640  62.5943200  16.0844060  86.3223605  62.9053501  16.6682168
  56.1255217   5.3804392  80.5400658  55.4493904   5.5852044  81.1859322
  56.6351843   6.1869907  80.4629421  51.3957071  10.9916556  65.3007412
  52.0078182  10.4174650  65.7610178  51.9035244  11.7806995  65.1116323
  93.0245296  99.2131296  66.2587547  92.0865170  99.1248242  66.4277744
  93.1248525  98.9781002  65.3362989  94.0975098  94.2565660   4.2501947
  93.7858729  93.5250834   3.7172242  93.3287625  94.8157243   4.3624231
  62.3943691  60.1063869  35.6533262  62.0573430  59.9181751  36.5292379
  61.9199972  60.8907179  35.3775998  76.6768699 103.1597260   3.5721227
  77.3252873 103.4401111   2.9262372  77.1717934 103.0746774   4.3870183
  99.7474341  94.6111659  32.4060460 100.1723056  94.0262965  33.0334684
  99.6093564  95.4241780  32.8920289  62.4289160  69.6215443   5.9693738
  61.7641072  69.0689949   5.5583402  62.1894579  69.6352355   6.8960401
  99.3524175  97.2627954   5.9142515  98.6450724  96.6553573   5.6976339
  98.9238410  97.9645423   6.4042493  26.2844729   6.9696420  78.3404350
  25.5486298   6.3592368  78.2938051  26.6005921   6.8953627  79.2408705
  60.6708670  42.8396416  75.6709623  60.3183889  42.7602911  74.7845697
  61.2763309  42.1030140  75.7547855  70.1760387  11.2975872  82.6094437
  69.3398571  11.1260164  83.0425644  70.7428741  10.5790305  82.8898144
  93.6717896  55.2712274  18.8337823  93.2306342  56.0686425  19.1266080
  94.4769769  55.5813513  18.4193822  39.0045691   5.8752084  49.3138361
  38.2171631   5.9169799  48.7711763  39.1586852   6.7809391  49.5824099
 100.6169752 103.8849596  46.3965368 101.2910513 103.2145727  46.5080547
 100.9284333 104.6264562  46.9155836  56.9008684  14.7341895  73.3425140
  56.2171698  15.0010252  73.9569950  57.5054359  15.4759610  73.3199739
  86.2922101  23.6635069  38.9378091  87.0294146  23.9821700  38.4170266
  85.6285434  23.4229139  38.2913610  33.4346576  97.4021224  68.4627151
  34.1819616  97.9125163  68.1508398  33.8012309  96.5423188  68.6690950
  62.5608826  26.9562769  56.4515591  62.2637081  26.3413715  57.1222401
  63.3087730  26.5211773  56.0421991  49.8437023  25.1946473  70.7560349
  50.3606224  25.7816315  70.2042389  49.9008560  25.5769277  71.6317177
  60.4882050  15.7291675  57.6306438  60.7784891  16.5436316  57.2200155
  61.2440205  15.4344368  58.1386852  63.2553196  25.4549098  62.3743391
  63.1099367  25.4480076  61.4282703  64.1859150  25.6565285  62.4721956
  10.7633252 104.2920574  80.5363655  10.0585313 104.1753712  81.1734581
  10.9778924 103.4038708  80.2511978  56.1630194  40.9019724   2.2722932
  55.2458923  41.1146645   2.0994588  56.6139500  41.7458431   2.2444269
  52.9892921  17.2906089  77.1733284  53.9100313  17.0443416  77.0848799
  52.9883337  18.2448709  77.0983982  53.0452299  15.3729928  52.6434088
  53.5589314  14.8471713  52.0303392  53.6937857  15.9048808  53.1046057
  46.5333605  25.6021261  66.6517067  46.7396069  25.6314397  67.5859594
  46.3568020  26.5130782  66.4167070  38.5898638  27.5399637  66.5429544
  38.4574795  26.6436410  66.2342262  38.0065393  27.6220274  67.2974300
  55.6951094  46.9281960  89.9119377  55.1552677  47.7056074  89.7689819
  56.5782261  47.2715282  90.0478268  47.9306555  41.7392969  38.7956119
  47.4967766  42.1188211  39.5597720  47.8121042  40.7949257  38.8973117
  35.5183578   6.9662493  59.1112709  34.6849346   6.8197143  58.6638737
  35.7845426   7.8447962  58.8400984  83.6168246  56.2419758  11.0652467
  83.9860158  57.0522679  10.7140275  82.6724391  56.3349805  10.9398671
   9.9346252  85.8411935  81.6339684  10.3380246  85.7837084  82.5001049
   9.0763517  85.4313496  81.7418098  87.3355389  17.9146874  86.3477898
  86.4736080  18.2807565  86.1495399  87.6417255  17.5578117  85.5140495
  68.5786371  58.2628522  21.4682218  67.9193215  58.5225735  20.8247300
  68.3802752  58.7915389  22.2411271  62.6714425  73.7681416  20.1527044
  62.6702075  73.4463481  19.2512151  63.4034948  74.3839411  20.1862069
  89.7634272  50.8106170   3.0051538  90.5051904  51.3949537   3.1619092
  89.9846892  50.0098569   3.4806081  50.0834036  38.1441450  59.5517159
  50.9340143  38.2578945  59.9756908  49.4631529  38.5751176  60.1397514
  83.7086487  21.7589521  90.3329849  84.4132519  21.7424417  89.6853065
  83.2396317  22.5743723  90.1559353  66.6235209   1.7884688  90.2286339
  66.2809277   2.2040465  89.4373417  65.8522797   1.4177403  90.6575680
  55.1787424   6.0385042  74.1107273  55.5921316   5.2602559  73.7369967
  54.6388769   5.7027060  74.8262787  26.2712522  93.2599333  54.2303324
  26.4589067  92.3438898  54.4349813  27.0159764  93.5444072  53.7005329
  86.0316901  48.4756602  14.5588037  85.4829125  49.2222882  14.3187543
  86.7885547  48.5375521  13.9760896 110.2855735  98.0305318  18.1534406
 110.0639014  98.7674788  17.5842210 109.4518666  97.5850467  18.3041211
  41.7397022  17.4353421  75.0866365  41.6113234  18.3584940  75.3046703
  41.0906506  16.9717479  75.6158257   1.2017437  68.7097506   5.5220624
   1.6623732  69.4206182   5.9678384   1.8633314  68.0265454   5.4136201
  38.4120202  22.4002600  81.8341064  39.2649531  22.3680830  82.2673512
  38.5355854  21.9042420  81.0248375  30.7589193 103.5945672  65.7281351
  30.4725309 104.3081062  66.2982893  29.9822898 103.0448220  65.6239271
 105.6315522  68.6115614   6.6801664 105.4956441  67.7239744   7.0117494
 106.5674500  68.7717799   6.8012353   2.6701590  37.2654060  17.4127504
   1.7657229  37.0115892  17.2288820   3.1783863  36.8712024  16.7038461
  38.4429832  76.3019482  83.7105179  38.3946796  77.1149841  83.2076550
  37.5634141  75.9294454  83.6486435  56.9758987   5.5990762  62.4299669
  57.6826668   5.0369984  62.1125126  56.4230871   5.0172335  62.9515886
  91.4113478  44.3439607   0.4983827  91.0144811  44.9446676   1.1291620
  91.9596248  44.9028269  -0.0523356   0.1775924  34.7447705  78.6717653
   0.7279674  34.6871758  79.4527960   0.4039947  33.9672947  78.1613636
  70.4900837  24.3920636  76.3273287  69.9982357  25.2132297  76.3260365
  69.8188877  23.7109208  76.3694715  46.1010218   5.6884199  72.9333687
  45.2054691   5.9451771  73.1531191  46.4488173   5.3153461  73.7433624
  90.2995162  67.8989784   8.0612108  89.4491725  68.1630246   8.4125348
  90.4183774  68.4463171   7.2849866  36.6516776  77.3664323  62.7134037
  36.1886020  76.7006556  63.2218647  35.9570356  77.9102198  62.3419142
  47.5718594  25.5729795  64.0643406  48.3442402  25.0079298  64.0839195
  47.0968771  25.3572607  64.8668861  43.5047674  20.0223231  72.2632742
  43.6806726  20.8801842  71.8767929  42.7618790  19.6826208  71.7643213
  48.7856905  90.6831173  23.9106866  48.6884444  89.9067716  23.3592626
  47.9119448  91.0734848  23.9309331  57.8855419  43.4026384  89.6462727
  58.8045740  43.6699390  89.6591568  57.5191402  43.8417292  88.8786888
 108.2288647   1.7707992  78.5672903 108.5307598   1.6657043  77.6650476
 107.7031994   0.9889705  78.7365675  42.2174264  -0.0951540  20.3267690
  42.9896451  -0.5728542  20.0239202  42.1992351   0.6963957  19.7888585
 100.5513099  79.2460743  90.0961685 101.2727383  78.8486568  90.5838490
 100.1936535  78.5298267  89.5714760  85.6433015  64.5056132  20.5105134
  86.4044957  64.5349065  21.0901281  84.9259906  64.8549346  21.0393449
  78.2609749  11.0450363  61.3828516  78.6988115  10.2878284  60.9940481
  78.8900805  11.3847876  62.0192671  79.9888945  17.0270669  65.5471087
  80.5815411  17.7553201  65.7332468  80.5186367  16.4102685  65.0419712
  53.7960052   7.8508335  50.0839853  54.6764135   8.0583131  49.7708273
  53.2803249   7.7305257  49.2865944  40.7704544  30.5334735  88.3523941
  40.7887363  30.5375314  87.3953724  40.8645964  29.6109819  88.5898399
   9.6204621   8.2729292  80.9768486   9.2872822   8.6912167  80.1829529
  10.3460765   7.7272594  80.6735992  48.2997084  15.9967804  74.8666430
  49.0964746  16.1520588  74.3594122  48.5546923  16.1713231  75.7725954
   1.1882540  51.2639444  41.5270063   2.0233675  51.6109642  41.2133333
   0.7308432  52.0257520  41.8828985   4.9585243  64.6532194   4.8575803
   5.5959889  65.1838604   4.3797895   5.2754303  64.6537308   5.7607957
  61.8117619  18.5860133  76.1423826  61.6976547  17.6360357  76.1149216
  62.7603292  18.7128532  76.1614752  87.9563141   9.9320734  59.0698195
  87.7669621  10.8206499  59.3711615  87.6653767   9.9213028  58.1579685
  48.6515665  15.2341175  51.7059565  49.3434238  15.4264343  52.3388720
  49.1185284  15.0212324  50.8979607  89.5023827  69.1549686  14.4636556
  90.1024489  68.6914150  13.8794729  89.3993001  70.0189201  14.0646669
  83.3911610  13.3400929  53.1013441  84.3220425  13.3298385  53.3240128
  83.3571243  13.7402606  52.2324705  46.2814474  34.1879582  82.0891953
  45.8023882  34.9543762  81.7740154  46.8324900  34.5239568  82.7960777
  68.7451124  14.4246638  79.8561239  67.9498529  13.9001286  79.7630501
  69.4255781  13.7901580  80.0810719  66.9965534  66.2773661   3.8924619
  67.1773748  67.1990732   4.0768358  67.0097403  65.8543102   4.7509977
  42.3702669  19.6033597  29.6554589  42.5929689  20.4917645  29.9336147
  42.8506565  19.4812620  28.8365889  62.6027441  42.2478914  78.6380196
  61.6786575  42.0280933  78.7563086  62.8169346  41.9203281  77.7644920
  77.7078629  17.7104592  63.7592506  78.3370399  17.4735129  64.4405890
  76.8728304  17.7877343  64.2207432  58.9035793  88.6707250  64.5017862
  58.7866302  87.7813843  64.1676807  59.7839446  88.6715702  64.8775482
  79.5494509  17.7273381  87.1554756  79.4630718  17.3555708  88.0332851
  80.2534676  17.2216642  86.7494106  24.9442340  19.9089706   8.9925882
  25.7989789  19.6439207   9.3322679  24.4332601  20.1256121   9.7724553
  27.0965190 102.2531182  84.7927284  26.8756051 102.4583632  83.8842583
  28.0494685 102.1629903  84.7929955  77.6411347  46.2883429  21.1196348
  77.9620938  46.0173098  20.2595445  77.5313620  47.2364090  21.0464689
  53.2684612  26.3878798  75.4634094  52.8987789  25.7696843  76.0938072
  53.8225698  26.9641638  75.9897995  30.3882499  79.1120998  66.1759615
  30.2542682  78.6872879  65.3287220  30.4770131  80.0418392  65.9663439
  16.4001937 101.7323581  79.1734600  16.7775674 102.3632941  79.7864342
  15.7162280 102.2219462  78.7165928  88.3194642  93.9603309  17.6504632
  87.5014787  93.4958152  17.8275510  88.9374690  93.6102180  18.2921239
  56.3498688  41.4846420  62.8868580  55.8090925  42.0750856  63.4114218
  57.2301292  41.5792847  63.2507467  34.0670514   5.2622819  68.4636784
  34.2924070   6.1352193  68.7852812  34.8744249   4.9383235  68.0643892
  19.4021602  93.5797039  59.6000147  19.2305274  94.2904333  58.9822483
  20.2523084  93.7955586  59.9832726 105.3790383  68.5149781  14.3463727
 105.3152232  67.7280942  14.8876401 105.2788310  69.2393271  14.9640390
  71.8543625  20.3221250  82.4528980  71.3594103  20.5695391  81.6718483
  71.3131046  19.6574271  82.8788662  44.9286552  98.1903533  70.3634214
  44.0955062  97.7193574  70.3790665  44.9843593  98.5491625  69.4777679
  98.2282189  91.1281959  85.5048656  99.1475967  91.3664571  85.6240749
  97.9104499  90.9493629  86.3898945  63.7113857  12.8883028  69.5954561
  62.8521061  13.1709456  69.2824364  64.3302155  13.2670224  68.9710760
  82.0451927   1.8714850  87.9578686  82.2847652   2.1988392  88.8248634
  82.1152973   0.9198467  88.0333805  16.5911973  12.6435626  75.2983236
  16.2964821  13.3582199  74.7338438  17.3512685  12.9996526  75.7584620
  83.0353069  49.0984392  86.0106182  82.1181107  49.3686533  85.9662533
  83.5261440  49.9198866  86.0338211  79.9903350  52.8114850  22.6325818
  79.3255668  53.1629951  23.2248231  79.9707703  53.3972929  21.8758317
  12.2041745  93.0628565  71.2123013  12.5911374  92.6374093  71.9774723
  11.7366929  92.3612753  70.7590055  35.2162738  92.1223882  75.0873423
  35.8183284  92.2614077  75.8183956  35.5410619  91.3316730  74.6566296
  24.8552728  17.5730860  61.2610483  25.4617715  17.7934706  60.5540657
  25.4070759  17.5168157  62.0411634  31.5756555  94.9213091  55.9928656
  31.0366292  94.3715767  56.5616179  31.9525523  95.5764541  56.5802050
   6.9837090  67.7747468   0.6882402   7.9103466  67.7785031   0.4483148
   6.7554375  68.7001137   0.7766649  95.6066327  60.3659306   7.4343320
  95.1954799  59.9133728   6.6978666  94.8856263  60.5456207   8.0377313
  45.8678423  89.1260151  23.1901952  45.4800455  89.5812706  22.4428102
  45.1289891  88.9487986  23.7723657  58.9997244  29.1626763  67.1667099
  58.2145929  29.6024680  66.8405533  58.7032604  28.6880422  67.9432821
  48.3150911   5.8720511  90.8428669  48.8985395   6.2568647  90.1888561
  48.4885216   4.9319130  90.7949638  25.8163857  38.5884356  64.0940952
  26.7598295  38.7488008  64.1148233  25.4477286  39.3786907  63.6993551
  36.6135545 102.5815060  70.9972906  37.0928664 103.3924251  71.1672926
  35.6948896 102.8131864  71.1337233  66.4269547  19.5298485   2.6736471
  66.3168125  18.6194948   2.9481431  66.7667250  19.9747066   3.4501001
  75.4168134  43.1643001  16.2454053  75.9636860  43.0172280  17.0171090
  75.6020694  42.4183682  15.6748792   8.5903355  42.1039227   4.6555158
   7.9763600  42.0286826   5.3860017   9.3955227  42.4359015   5.0526258
  23.6467266  10.9886146  36.5888381  24.3516660  10.4030406  36.3124418
  22.8447437  10.5450785  36.3125539  44.1286516  19.9428415  81.6400433
  43.5670280  19.6811783  82.3696613  45.0039625  20.0059843  82.0222378
  77.3074865   2.3974882  71.9747400  76.9586086   1.5145525  72.0969677
  77.7792311   2.3555915  71.1429119  77.0325618  78.4067945   7.0932409
  77.4197297  78.1528691   7.9310151  76.0986380  78.2237009   7.1957036
  17.9072177  14.1794527  56.2514544  17.8358030  14.9686933  55.7145786
  17.0809746  13.7175429  56.1093473  32.9101968   2.8581959  69.9889326
  32.3762608   2.3850019  69.3507862  33.1862593   3.6511129  69.5292521
  27.6563358  37.5927901  79.9900579  27.7670407  37.0252109  79.2272806
  28.4311938  38.1547523  79.9849224  11.8187471  89.2173008  74.6194696
  12.4601169  89.7580973  74.1585827  11.2596412  88.8659123  73.9265347
  51.5710640  14.1862226  59.8258018  52.0464945  14.0607047  59.0045595
  51.3540506  13.2998729  60.1147985  21.0821767  87.9246644  86.3130188
  21.6275497  87.9203156  87.0996475  21.6947313  87.7607635  85.5959797
  87.5453715  87.6896099  30.4791852  87.4511866  86.9666246  31.0993978
  86.7225318  87.6944093  29.9901697  51.8602133  42.4784946  79.3085194
  52.2123528  41.6694021  79.6794653  51.0340452  42.6149035  79.7722816
 108.3548217  49.7554315  33.0295583 108.0233674  48.8752873  32.8514596
 107.8287940  50.0647888  33.7670060  57.7137947  25.6983805  45.5897045
  56.8416643  25.3044343  45.6103563  58.1102514  25.4463744  46.4236975
  56.5417147  45.8727741  73.2078218  56.2974262  44.9472952  73.2147646
  56.6288137  46.0905409  72.2798014 105.2604155  39.1724257  13.3944150
 105.6029277  38.3207921  13.1230470 104.4520716  39.2764775  12.8924390
  21.3720298  64.4354677  58.6924076  20.9191632  64.6998692  57.8916359
  21.1696839  65.1277447  59.3217230   3.8101145  43.5863815  10.7570859
   4.4764897  44.0221027  10.2257463   3.3425471  44.3015096  11.1885949
  21.7895408  96.6231713  84.6323109  22.1618219  95.9008906  84.1263962
  22.5125213  96.9299654  85.1794910  68.9775801  19.7891593  55.4994869
  68.8859034  20.6782818  55.1570129  68.6582232  19.8452806  56.4000988
 108.7314514 102.0902560  70.6371355 108.8347033 102.9838995  70.9642029
 108.0176882 101.7248580  71.1598730  31.2559175   2.6214778  64.4056511
  30.9140658   2.8795481  63.5496330  31.8157220   3.3515227  64.6700096
  57.3657894  13.4492338  70.9015608  57.0281887  12.5688338  71.0663462
  57.0008659  13.9818442  71.6082335  51.4334388 103.7013032  47.8816319
  51.7231746 103.4583804  47.0022726  51.4389129 102.8788782  48.3713484
  71.7354155  19.5286250  68.6515331  71.9359112  19.1423225  69.5040607
  70.7993555  19.7246480  68.6915827  31.2391090  34.4581246  72.3999977
  31.1831427  33.5453439  72.6827240  31.0333037  34.9651647  73.1853533
 102.2137932 103.3888483  87.7717686 102.5128440 103.4851695  86.8675995
 101.2727860 103.2301745  87.6971912  54.7844315   2.1352175  86.0310268
  54.2303991   2.9154843  86.0093880  54.3289566   1.5025744  85.4755688
  98.7996630  56.3071451   1.3447305  98.2935672  56.9737787   1.8091604
  98.5453181  56.4090977   0.4275914  87.9207187  82.3728613   0.9679624
  88.2372336  81.6304139   0.4533502  88.5459523  83.0744032   0.7858869
  11.4632650  96.7368880  57.0192194  12.2914930  96.2640521  57.1010542
  11.6753526  97.5002858  56.4821196   3.7036271  95.5463675  81.8788528
   4.2312141  95.1616291  81.1789513   2.9942699  95.9991911  81.4227772
  28.8643403 102.5225543  78.9270544  28.0819936 102.3421580  78.4058809
  29.5498271 101.9914228  78.5217905  38.9254951  16.6046166  88.8984776
  37.9939032  16.6682923  89.1089916  39.2387390  15.8651364  89.4193268
  84.4048882   4.4458231  50.9534740  85.2165222   4.3643099  51.4543104
  84.6384430   4.9976495  50.2070332  32.8378844  31.8254900  45.9464502
  33.0482125  32.2853923  45.1337481  31.9009876  31.9765115  46.0715389
  72.6690102   4.2731825  86.5269566  71.8601990   4.6898547  86.8243504
  72.8575706   3.6129716  87.1938801  68.3249331  25.1594639  40.6314373
  69.1864681  25.5399299  40.8024263  67.7056360  25.8152175  40.9518909
  90.4282761  58.8273335  78.9844227  90.6837845  57.9213572  78.8107634
  89.5757866  58.7576008  79.4141102  46.4775705  26.5075064  89.3564987
  46.2206602  26.7102265  90.2560139  47.2694206  25.9774446  89.4472408
  64.6284246   5.8249325  84.3130112  64.7677040   4.9324918  84.6298409
  65.2762556   5.9358823  83.6171436  81.5390873  18.1330776  22.4760914
  80.8207130  18.6240113  22.0771527  82.2185230  18.1126451  21.8021560
 104.8674297  25.0967908  89.7491074 104.4960976  25.5608130  90.4994583
 104.4139671  24.2538595  89.7404385  95.6400590  94.0239934   6.7208406
  95.4073338  93.4772614   7.4712774  94.8134618  94.1592053   6.2574979
  69.0840483  18.4033298  82.1755123  68.7060356  17.6117396  82.5585556
  68.8237143  19.1056597  82.7714920  62.3329353   9.6498156  63.3736849
  62.9960346  10.3313661  63.4833288  61.5167522  10.0619638  63.6568928
  87.8037071   9.0246069  62.2299433  87.5615692   8.7354141  61.3501883
  87.0568466   9.5456338  62.5248289 109.5930152  67.9186419   4.7968122
 109.3029265  67.0068232   4.8227044 110.5218367  67.8810600   5.0250932
  96.8868879 102.0021725  88.2543659  97.1993974 102.4738229  89.0264511
  96.0872630 102.4626366  87.9997921  66.1049895  55.4840488  16.6342374
  66.7551594  55.3321300  15.9483548  65.9470753  56.4278153  16.6097661
  13.5894675  83.2053486  89.5566463  14.0377469  83.4713379  88.7538147
  13.6432548  83.9725915  90.1264477  98.0458646  92.4092225  15.6921216
  98.9420705  92.0779780  15.6344243  98.0063109  93.1080369  15.0391790
  -0.0253634  99.0270529  55.5465174   0.0912733  98.1044743  55.3196335
   0.1556106  99.4984171  54.7333145  63.7425756  28.2535672  78.8921213
  63.6472893  27.3576164  78.5689783  63.1885529  28.7771678  78.3132172
  33.1687593  12.3305523  76.2536573  33.5519218  12.9002285  76.9206524
  32.6994538  11.6610265  76.7513704  41.2803030   6.9327819  88.5245228
  41.4466715   7.7612126  88.0747986  40.4480886   6.6272181  88.1635666
 105.7732014 102.2532109  19.2817994 105.8241753 101.6096381  18.5750791
 105.8742385 101.7383269  20.0823709  62.0576143  39.9844599  83.8287354
  62.3884153  39.0866971  83.8000298  61.6780663  40.0720119  84.7031021
  28.5914513  75.6284694  15.2199384  28.0221173  75.3232006  14.5136091
  29.3959423  75.9006599  14.7784158  87.0590973  23.1936598  67.0788860
  87.5101185  23.4737444  66.2824154  86.2362003  23.6825776  67.0726776
  76.5606546  50.9101439  74.9361706  77.2226524  51.0876083  75.6043768
  76.5456438  51.7014456  74.3977928  87.2201590  97.3668221   0.1958391
  87.3805623  97.2308473   1.1296579  86.3724999  96.9520835   0.0355359
  42.5472355  40.4568338  79.9280405  42.1684790  39.6836305  80.3462887
  43.1304550  40.1041126  79.2559767  84.1966348  97.1040467   1.7584821
  84.4047074  97.4897222   2.6094743  84.7845416  96.3521413   1.6860982
  74.6369886  24.8925281  87.9265881  74.2275381  25.4754329  88.5659599
  73.9734793  24.2251968  87.7514935  54.7072406 102.6168837  89.1472149
  54.9284549 103.5011857  89.4392776  53.8544460 102.4398321  89.5442390
  46.3985062  38.6354446  47.1583128  47.3522234  38.7096238  47.1243000
  46.2374592  37.7196932  47.3856735  91.3874149  16.5673292  90.5534458
  90.4417610  16.4929771  90.4252052  91.7466164  16.6107929  89.6672630
  69.3057871   3.2301819  41.1970043  70.2612829   3.1827635  41.2287760
  69.1018820   3.3335361  40.2675056  98.4596634  64.0955925  69.6738052
  99.3982697  64.2438745  69.5587015  98.4014511  63.2272005  70.0722313
  95.0437836  90.9888247   4.2914411  95.4130511  90.1539401   4.0036126
  95.7741790  91.4408592   4.7138330  94.5545869 101.7123107   0.0610181
  94.1773753 101.7149810   0.9407541  94.4231992 102.6049451  -0.2586249
  14.7814366  97.6312045  38.7569257  15.2655598  98.3022574  39.2381116
  14.7289654  97.9686240  37.8627130  38.5897470  25.0701189  59.7489119
  38.7499356  26.0053182  59.6225405  37.6382470  24.9806952  59.6952057
  80.9946971  85.8572988  11.4007493  80.4363160  85.6362967  10.6553575
  81.3392930  85.0157980  11.6996785  55.8715439  33.6697221  66.2498522
  55.0139523  33.5330582  66.6524649  55.8748817  33.0876780  65.4899549
  83.1887817  29.5360374  84.1054630  83.2189655  28.8952875  84.8159313
  82.8296471  30.3256464  84.5101547  43.8584995  45.6040049  82.1059132
  44.1124916  45.0118160  81.3980770  43.0835867  45.1964283  82.4927330
  39.3645787  41.9317389  87.3228073  39.8205781  41.4614105  88.0207253
  38.9609265  41.2433815  86.7941666   5.1495737  18.4642053  59.1582680
   4.4950661  18.1925511  59.8017406   5.8814251  17.8619552  59.2921305
  69.5609236   8.5614944  77.8013659  68.9675093   9.1079164  78.3166456
  70.2152777   9.1723001  77.4622965  20.7636067  73.4574512  13.5041543
  19.9110314  73.4071282  13.0719396  21.3811394  73.6380557  12.7954408
 107.3978619  78.5495810  49.5370504 107.9657845  79.2667727  49.8187085
 106.5715508  78.7045220  49.9946996  69.4813013   6.1326557  90.1808643
  69.1207170   5.2471876  90.1344013  69.9164009   6.1696965  91.0326481
  56.8259330 100.7882104  66.2176752  56.0044761 101.2496981  66.3864040
  56.7458434  99.9697623  66.7075348  17.7559849  81.1846737   4.0150281
  17.6762768  82.1265296   3.8640806  18.4969803  80.9168605   3.4714814
  88.7746143  28.4279418  79.1026354  89.1341591  28.3268023  79.9839592
  89.0749454  29.2914367  78.8190699  91.0217476  14.8462510  79.5933723
  91.0511303  15.5287266  78.9228535  91.4799786  14.1037881  79.1996670
  47.0630550  39.3558955  75.4741859  47.0708084  39.3278980  76.4309406
  46.3560820  39.9639416  75.2580833  57.3886919  13.3796978  68.1664610
  57.4050617  13.3776999  69.1235209  57.3999929  14.3068194  67.9286575
  87.1914010  91.4541654  28.0852910  87.8052525  91.1060623  28.7320062
  86.6759496  92.1004085  28.5678979  99.0119605  90.5925993  13.0165025
  98.6018042  90.1463512  12.2756406  99.0458827  91.5122560  12.7532216
  75.6684542  64.6625805  84.6762753  74.7896147  64.8079634  85.0266075
  76.2522411  65.0648212  85.3194141   8.7041951   3.8612640  18.4293672
   7.9608680   3.5207880  17.9316064   8.3086778   4.2823589  19.1925641
 110.1813130  43.1621478  20.2577993 110.1757150  44.1000430  20.0666066
 110.8402972  42.8008000  19.6650144  63.5064363  10.2766120  54.1389322
  63.7741470   9.4533461  53.7305260  64.3287992  10.7272995  54.3308496
  69.3406248  25.1552415  65.4956865  69.8217058  25.1687169  66.3230991
  69.1201115  24.2334557  65.3618288  21.5063710 102.8050156  72.7379990
  21.4956517 103.5361523  72.1202946  22.4180646 102.7461125  73.0236053
  45.9816837  37.3648787  61.1682129  45.8780193  36.4245558  61.0223389
  45.4317331  37.7730584  60.4995012  49.2045069  25.1831293  79.7166491
  49.5042324  25.7186103  78.9820385  49.8413038  25.3514004  80.4112053
  87.7907944  20.6116796  86.5527439  87.8205490  19.6634769  86.6802502
  88.5596943  20.8054996  86.0165977  46.2410641  62.7227688  62.0832872
  46.3285208  62.2649765  61.2472200  47.0371199  62.4969053  62.5644493
  92.5380282  64.5547167  22.2720167  92.7836995  65.0239817  21.4747258
  92.2482400  65.2403478  22.8738138  95.6375556  77.7808551   4.2243596
  95.0081782  77.3066954   3.6809560  95.6831555  78.6529640   3.8324663
 109.8227361 100.5395693  83.3149242 109.6879057  99.6062515  83.4791565
 109.7055582 100.6358359  82.3698139  59.5724678  63.3325386  90.2026272
  59.1697454  62.6111317  89.7192860  60.5139303  63.1838655  90.1144218
 103.3310704  90.3776959  12.7407190 102.9249625  91.1603335  12.3681852
 102.7316956  89.6663240  12.5150510 109.5688872  84.0240625  28.8315412
 110.3555636  84.4554166  29.1651651 109.5373397  84.2659787  27.9059526
  40.5482244  20.2318621  68.0629349  41.2852764  20.0210619  67.4897432
  40.5437183  21.1881065  68.1054401  24.2577072  56.9689084  11.1549112
  24.7626492  57.7652732  11.3194391  23.4511658  57.2776941  10.7421514
   4.1522738  84.2692379   6.4740011   4.6114155  85.0815038   6.2603494
   4.7667309  83.5761503   6.2325403  23.1733891  63.4990148   2.9817697
  23.4551998  64.3850640   2.7543374  23.6702725  63.2849101   3.7713834
  57.5531387   1.1274610  59.1090059  57.6212549   2.0741719  59.2328215
  58.4079647   0.7889608  59.3753242  58.1860065  29.9330354  82.4281120
  58.0651855  29.2872262  83.1242180  57.7388144  30.7165504  82.7480507
  89.5657921  35.8989954  74.6834183  89.7203445  36.1676455  73.7777805
  89.0564632  35.0918651  74.6102190  69.0692854  14.5756769  87.8809357
  68.7922144  14.4281006  86.9766808  68.6559248  13.8687241  88.3765030
   8.4543987  86.9032816   4.2571279   8.9794823  87.4806980   4.8112985
   8.9330765  86.0743765   4.2535421  42.3863788  97.4395618  45.3463411
  42.7994104  97.1796892  46.1698103  42.9184432  97.0216939  44.6691895
  36.0488009  43.7887573  57.7480602  36.3763213  42.8998566  57.8852510
  36.2166691  44.2365026  58.5772610  73.7071228  67.4536371  83.4818363
  73.8264179  66.8087864  84.1790867  74.3413782  67.2010469  82.8108978
  70.1622677  12.4218178  62.0205975  69.3405437  12.6559460  62.4520826
  70.5356216  13.2592916  61.7458630  62.7426481  15.2614522  59.2870855
  63.3785152  15.5444860  59.9441957  63.2667589  15.0908983  58.5044909
  64.4208145  18.8386345  76.4367533  64.9672174  18.9358115  75.6568623
  65.0322533  18.5822654  77.1271515  98.8046269  61.7903218  13.4772035
  98.5539489  62.7140752  13.4687349  99.7191577  61.7877213  13.1946107
 104.2307668  24.0679482   3.9870187 103.9478926  24.8815063   3.5694810
 104.3998055  23.4708790   3.2582113  91.2991004  68.0455009  10.4676458
  91.5984397  68.9498226  10.3736802  90.8831792  67.8425983   9.6297475
  34.5711465  94.0626350  73.3333158  34.2382093  94.5433942  74.0911150
  34.6951337  93.1687287  73.6523628  59.2097807  15.2897930  81.5864086
  59.3875074  16.0909939  82.0790768  59.4627333  15.5002570  80.6875515
  59.9580336  44.3252563  82.3009205  60.2668095  43.5272312  82.7299309
  60.4650640  45.0276327  82.7081203  93.0732822  35.7011461  83.5244942
  92.4368763  35.6688333  82.8102207  93.3462620  34.7914362  83.6433887
  73.4482293  86.6360716   4.1321393  74.1857462  86.4255551   3.5594388
  73.7900572  86.5133671   5.0177594  82.9011154  12.8159416  71.9968224
  82.5911522  13.7109685  72.1349573  82.7741909  12.3853588  72.8422356
  63.5555696  23.5917115  69.1593552  64.1705227  22.8754497  69.3175840
  62.7286863  23.1561637  68.9524889  94.7853331  35.8618943   1.2683507
  94.3169932  36.6069321   1.6449186  95.0029282  36.1405579   0.3788396
  42.0787477  39.5594931  55.7791042  42.5875616  40.1248741  56.3602066
  41.8186378  40.1307964  55.0564814  66.9892406  48.3871174  75.8127594
  66.7766857  49.1067171  75.2184296  66.9200182  48.7702799  76.6871881
  42.0373340 104.8514674  61.8610430  42.3640437 104.0055861  62.1676064
  41.3841052 104.6297074  61.1974621 105.8614688  99.3250588  33.5337945
 105.8442550  99.5055942  32.5939294 105.0014357  98.9489631  33.7212297
 103.2799582  69.9951593   5.6273481 104.0352635  69.7030739   6.1376783
 102.5542264  69.4576649   5.9445878  39.6534681  22.7566218  44.9624681
  39.1166067  23.5490274  44.9521780  40.5325174  23.0599117  44.7354889
  63.2543516   3.2162467  76.2010670  64.0604830   2.8125432  75.8794975
  62.5529385   2.7046052  75.7979870  59.9173212  36.5899658  72.9554129
  59.7556448  35.6641388  73.1369019  60.8711529  36.6700506  72.9504251
  29.6238705  58.3012859   6.4886495  29.8382279  58.2295678   5.5585214
  28.7864014  58.7644819   6.5064164  75.1824264  63.5432545  13.8512346
  75.8928137  63.7290207  14.4652959  75.6253223  63.2627110  13.0503770
  57.7104950   2.4391590  83.8564873  58.3354282   2.6438475  83.1609344
  58.2072067   2.5550115  84.6664810  23.9657355   4.2040623   4.6461030
  24.3699504   4.6146143   5.4104921  23.4157039   3.5101736   5.0097200
  59.8363972  26.1639142  85.2759361  60.0379896  25.8896375  86.1705685
  60.3678274  25.5901527  84.7240162  99.0383057  94.0765838   7.1225950
  99.1703181  93.2643250   6.6336747  98.4716086  94.6050147   6.5605947
  58.3984947  40.7771015  74.8792315  58.8456678  41.0244751  74.0698624
  59.0437984  40.2595282  75.3608274 105.3465752  48.0964673  14.0271398
 104.8805861  48.8557453  13.6770173 105.0029092  47.9927719  14.9144765
  95.7978492 104.3246678   2.7124044  95.8607631 104.9439410   3.4395715
  94.9068837 104.4348840   2.3803445  83.6103344   1.7358613  80.7485199
  83.2685280   1.9894153  81.6059017  84.3296909   2.3464280  80.5873394
  45.3367376  48.3004427  90.9326935  45.4395103  48.2194853  89.9844742
  45.4938364  47.4173498  91.2668991  36.1139441  29.6304893  72.2550774
  36.1850858  29.2689848  73.1385279  35.2523923  30.0471139  72.2354317
  62.9847240  46.4028454  85.8778572  63.3471632  47.2883606  85.9049511
  63.4451008  45.9342146  86.5740395  50.8881330  19.3312550  84.4697762
  51.0965204  19.9940908  83.8113976  50.7273054  18.5342371  83.9646721
 108.9087491  76.7777685  18.4068128 108.7861256  77.5237922  18.9938756
 109.6974091  76.3438920  18.7323877  66.1792612  18.6665547  74.2919350
  66.7779207  19.0739453  73.6659384  66.7388630  18.1038535  74.8271370
  99.5986752  78.6543874  20.6255838 100.0502019  79.1690663  19.9566575
 100.3025775  78.2782654  21.1540529  58.6654139  30.7437515  88.0290413
  57.7550602  30.8601785  88.3009529  58.6840773  29.8792434  87.6185513
  17.9080243  83.5611025  85.6873226  18.5778375  84.2288486  85.8346272
  17.5065322  83.8045112  84.8531818  61.5762615  17.6360357  83.7331295
  62.2285986  17.8373885  83.0622005  62.0313597  17.0554662  84.3430901
  61.4042234  49.7312832  86.5843296  60.9507418  49.7611904  85.7418919
  60.7062340  49.8074007  87.2348976  59.2728138   6.9338143  85.3568077
  59.7048616   6.2491512  84.8461246  59.4667339   6.7117661  86.2674809
  85.3590870  16.2333262  69.5028019  85.0631332  15.4496145  69.0397215
  86.1663437  16.4858067  69.0546656  74.3136358  27.6488733  66.7920399
  74.2093086  27.7550626  67.7375937  73.4875584  27.9616880  66.4232969
  74.2670627 100.8605034  60.0503492  75.1932330 100.6913737  60.2230358
  73.8786502  99.9909416  59.9542713  48.2095294  72.3367015  42.3775884
  49.0253644  72.3477391  42.8781148  48.4410362  71.9120578  41.5515634
  70.1035337 100.5058888  13.2303830  70.0649028 100.6658629  14.1733381
  70.8736019 100.9924249  12.9362603  78.8532066  49.2579412  84.9415970
  79.5899677  49.8596430  85.0482368  79.2183828  48.5149145  84.4611931
  20.8955574   6.6136318  66.1324263  20.1312494   6.3644725  66.6520262
  20.6506705   7.4472272  65.7307053  74.2068911  52.1939945  81.2224770
  74.0413952  51.7172194  82.0358276  74.3770695  51.5103483  80.5744839
  83.7558937  21.7357898  70.1377344  83.0309963  22.3309207  70.3289938
  84.5275307  22.1758556  70.4943180  64.7792387  28.5705876  70.9258795
  64.3651962  28.5867810  71.7887449  64.8642492  27.6400089  70.7184410
  71.5106297  46.3060808  79.0194988  72.2105885  46.0845327  78.4053278
  71.8460417  46.0332155  79.8734760  37.3757625  22.4757385  84.3501091
  36.9586563  21.6149688  84.3865681  37.6008701  22.5939131  83.4272957
  62.5821972  24.6628404  71.7270851  63.4075308  24.2761540  72.0195341
  62.5646210  24.5043921  70.7832527   1.3155504  67.3429755   1.5662023
   2.0957609  67.1104518   2.0696279   1.4551684  68.2563702   1.3163015
  40.7693095 100.2589068  62.9954386  41.5594526  99.8297957  63.3237171
  40.5262418 100.8745778  63.6868858  61.6789198  21.3478732  72.5143766
  61.2667751  21.2997246  73.3769608  61.0332346  20.9675050  71.9188547
  38.7429280  98.8508991  51.1908245  39.3926854  98.5110203  51.8060732
  37.9109855  98.4903858  51.4976454  85.0949669   7.8291571  76.5956831
  84.6865940   8.5356212  77.0960522  85.5274868   8.2718390  75.8654833
  64.4089365  21.5259576  73.3680630  64.8282433  20.6666803  73.4133959
  63.6149406  21.3782096  72.8542852  89.1131406  87.6694135  20.2364179
  89.3329577  87.1034674  19.4964048  88.1561761  87.6767925  20.2563211
 104.9163871  71.6646365  15.6089898 105.0313239  70.9404210  16.2242433
 104.7169261  72.4197177  16.1624357  83.5678387  20.6263852  74.1304731
  82.7074623  20.9547710  73.8694334  84.1834545  21.2842584  73.8072777
  20.0612588  92.1976677  73.5046673  20.2726741  91.3324562  73.1540298
  19.2741676  92.4630908  73.0289936  67.4439955  29.8432946  70.4651642
  66.6054869  29.6854377  70.8990049  67.8667259  28.9848280  70.4413939
  49.0952779   2.9246271  12.1206495  48.4324933   2.7389563  11.4554616
  48.7917806   2.4564255  12.8983995  83.7794781  14.1124213  79.0218544
  83.7397766  13.4687209  78.3145285  83.1403637  13.8027894  79.6636343
   2.9568621  70.6355432  19.1192933   3.3421894  71.1367623  19.8379918
   3.6412808  70.0165538  18.8650247  72.0111942  37.2847724  76.9034290
  72.7467299  37.6917553  76.4456224  72.4162722  36.7926717  77.6175594
  77.4044037  25.3030968  87.5305462  76.4493036  25.3603029  87.5032902
  77.5839901  24.5803761  88.1319237  65.8420234  57.7261654  10.3382798
  66.5635972  57.2646955   9.9109479  65.8072882  58.5757367   9.8986646
  27.0111938  91.9376126  69.8025084  27.9334922  92.1371487  69.6419430
  26.7857547  91.2918321  69.1329002  72.3111729  90.9544758  15.0838014
  71.3590007  90.8564977  15.0835725  72.4768953  91.6852359  14.4881841
   6.1370845 102.9030352  80.3814888   5.7784267 102.8070555  81.2637520
   6.7627855 102.1835146  80.2977180  86.6359520  86.2924480  77.8358793
  86.8330288  85.4662800  77.3944902  86.7247200  86.0931873  78.7678909
  52.8404617  40.1896715  65.5226040  52.2470665  39.5900488  65.9748888
  53.7046719  39.9869180  65.8807421  90.1220417  41.2160635  89.8137665
  89.7870731  40.3208208  89.8644733  91.0608196  41.1303043  89.9798107
  11.6920563 104.2401723  13.0588456  12.5606247 104.0636043  13.4203168
  11.3987538 105.0290755  13.5147401  21.6365524  94.3427745  87.1623135
  22.0269723  94.0958980  86.3239479  22.3645635  94.3144599  87.7831459
  61.8355322  50.9742880  83.4413624  61.3368034  50.1665926  83.3183670
  62.4996233  50.9530020  82.7523327  65.9409761  32.3440146  79.0846920
  66.2663603  32.5744343  79.9549007  66.7295313  32.2599792  78.5486412
  70.3126955  67.5620508  87.1109009  70.2873039  66.8379402  87.7364063
  71.2234163  67.8564835  87.1221924  81.9043446   0.3680984  74.1052628
  81.4834213   1.2272856  74.0760708  82.5759125   0.4071337  73.4243011
  81.0779953  19.6290696  71.7056513  81.4012527  19.5647478  72.6043177
  80.9881496  20.5692720  71.5501547 107.4889760  83.3806685  14.1433450
 107.4307542  82.4340490  14.0139028 108.2741313  83.5015468  14.6773454
  66.9432211  16.6094363  64.9857140  66.4847898  15.8075404  65.2367878
  66.5845299  17.2817612  65.5649805  57.1038961  22.3228717  71.8149233
  57.9525900  22.7581954  71.7346430  56.6802788  22.4660206  70.9685850
  50.2498770  14.6401858  84.7875118  50.5161953  15.4499948  84.3521786
  50.8728313  13.9841342  84.4748497  58.3698797  12.7865756  81.8518353
  58.7206554  13.6652279  81.9972897  58.6787748  12.2781932  82.6017475
  54.0459299  15.0228035  82.4733829  53.4736061  15.2330935  81.7355061
  54.5629930  15.8167815  82.6093102  77.4649143  26.6356707  70.5048704
  76.7893696  26.0929179  70.0983095  77.0510769  27.4919534  70.6132841
 109.1134028  63.6520246   7.6391145 108.4986358  63.3239225   8.2953473
 109.7232060  64.1988603   8.1344339  78.1836605  29.9262786  90.6032276
  77.4981928  30.3453016  90.0828648  77.7169704  29.5283318  91.3381195
  93.3604483  66.0950784   9.4919225  94.0338378  66.7736916   9.5395013
  92.5581078  66.5335480   9.7751542  74.0674782  23.5134125  83.4459209
  73.6872053  23.4488940  82.5698757  73.6201143  24.2585874  83.8469315
  93.0474953  96.9055203  13.7002298  92.5631718  96.6449050  12.9168149
  93.6403851  96.1734466  13.8698694  95.2149296  12.2038376  71.5719461
  96.0948849  12.5573993  71.4419413  94.7771549  12.8491032  72.1271133
  15.7720661  25.1713777  79.3836546  15.0797677  24.8972201  78.7821627
  16.3236558  24.3954945  79.4835901  28.7433810  95.8345888  62.5636292
  28.1554456  95.2258555  62.1164083  28.2142015  96.6199485  62.7029562
  99.2508750  68.0230586   8.1823274  98.7956290  67.2075943   7.9725667
  98.6893515  68.7100533   7.8232213  23.3434673  85.5193511  64.5110607
  24.2936559  85.4901711  64.6229696  23.2176204  85.7896927  63.6014938
  13.9415212  90.3054133  82.1374607  14.7992082  89.8971931  82.0192719
  13.5030217  90.1897756  81.2944984  89.2410426  59.2233119  11.3656637
  88.3199553  58.9668635  11.3201925  89.6837001  58.4611974  11.7391130
   3.6717793  85.5080465  10.0444337   3.0574414  85.2544955   9.3555757
   3.5105606  86.4421848  10.1771947  25.2535482  99.6245936  33.4316993
  25.3545280  98.7035934  33.1912971  24.5246120  99.9339611  32.8939509
 105.9167104  63.6840073   4.9210092 105.9195380  62.8986672   4.3737813
 105.6572251  63.3711354   5.7876226  80.7350826   2.1141352  62.7430344
  80.2061749   1.3636300  63.0136490  80.7352829   2.0746225  61.7866516
  13.7186910  22.4277819  21.7966577  12.8225184  22.0949591  21.7483255
  13.8523246  22.6220787  22.7243539  49.5236969  21.6388822  76.3028574
  49.0207624  21.8995833  75.5312872  49.6419287  20.6941986  76.2037325
  38.3999252  54.8879194  82.6330280  38.1184149  55.7155228  82.2430706
  37.6458359  54.3070030  82.5324440  51.3741012  96.1714468  53.7014627
  50.9016223  96.9465450  54.0051317  52.1165652  96.0935346  54.3005562
  59.5252514  49.9245739  88.8756180  59.7874260  50.3608274  89.6862793
  58.6961794  49.4973230  89.0908527  81.2107754  22.5162888  71.5941525
  80.3586578  22.4169731  71.1695862  81.2775421  23.4526801  71.7810965
  68.1092310  13.0710328  76.7978477  68.9871550  12.9296064  77.1520710
  67.9694366  14.0149081  76.8739414  51.2645102  18.7468731  87.3915672
  50.8663225  19.5752430  87.6589203  51.0267258  18.6535466  86.4690781
  61.3494964 102.6147832  74.7125435  61.9789787 103.3358750  74.7089243
  61.8168636 101.8868044  74.3028498  88.2495117  78.1137943  73.3179188
  88.1368828  77.4664593  74.0139771  88.5629654  77.6075411  72.5684595
 103.9336591 103.0698995  14.5688554 103.3456664 102.8644446  13.8420221
 104.6082787 103.6272792  14.1809675  54.3428230  10.8861184  62.1831179
  54.7208166  10.2328885  62.7718782  54.9804926  11.5999556  62.1763277
  72.4421339  64.0116278   1.7517301  73.0507283  63.3639590   2.1072122
  72.5554042  63.9514021   0.8031579  68.9892387  22.1392512  76.3555098
  69.4666481  21.5031552  75.8228779  68.3410883  21.6172361  76.8284035
  90.9205394 103.0714969  21.1636945  91.4684682 103.7679175  21.5256425
  91.1191706 102.3058633  21.7027589  21.7214723  96.5278390  51.3290215
  21.6044564  97.2300801  51.9688606  21.5995021  96.9540242  50.4806566
  62.6159196  40.1596729   3.2945558  62.8838925  39.3274979   3.6843034
  62.2955112  39.9241964   2.4238511  45.8323569  96.4138744  86.9127369
  45.8827396  95.4647717  87.0263100  46.6963287  96.6619233  86.5837288
  88.7087536  47.7296114  67.5372791  89.0759182  47.7969933  66.6558743
  89.3101120  47.1489000  68.0035067  62.4658918  44.9293709  69.8178816
  62.8371382  45.7868719  70.0254774  62.6527834  44.3943501  70.5892801
  86.5644836  49.7697926  77.4618626  85.8468533  49.3332100  77.0029211
  86.1309338  50.3423882  78.0946398  46.2154055  38.5111666  52.5667048
  46.5201473  38.7380266  53.4452868  46.1336803  39.3521643  52.1169519
  70.3956127  35.7523322  84.1510105  70.8241177  34.9320030  84.3952942
  71.0828161  36.2634921  83.7235832  79.3888192  87.6560120   6.1332628
  79.5891290  88.5828046   6.0022661  79.6674590  87.4753098   7.0310041
  84.3043804  55.9912443  70.5672455  84.0107632  55.4148531  69.8617077
  84.5776844  56.7937660  70.1228333  55.1762009  19.7086954  87.3349476
  55.4941940  18.8426924  87.5901985  55.9418011  20.1440525  86.9600487
  38.8326546 101.0370711   5.7519552  39.2314526 100.1672057   5.7749387
  38.4629437 101.1542443   6.6270658  69.7387505  35.2460647  89.1795731
  69.7726393  35.6582355  90.0428200  70.5106544  35.5814195  88.7235737
  81.2737326  87.0222548  19.0953370  80.3539948  87.1391276  18.8573095
  81.4743380  86.1215047  18.8410970  14.2260353  26.8955278  73.6264467
  14.6016113  27.5580263  73.0465603  14.4037334  26.0639930  73.1868935
  31.0061503  11.6732347  27.0838090  31.0676004  11.6321028  26.1294671
  31.2400485  12.5758398  27.3001977 109.1366439  97.5837544  10.9884855
 109.5092110  98.3763961  11.3746759 109.6382527  96.8683127  11.3793298
  59.1865636   2.4418533   9.9975511  58.2725240   2.4448908   9.7133943
  59.4597150   1.5280903   9.9159738  38.8891216  89.1361264  26.1335679
  38.8687512  89.0286449  27.0844957  39.1827008  88.2872204  25.8028146
  12.1177574  95.7639388  24.5425531  12.1889778  96.4621333  23.8916417
  11.9423958  96.2205438  25.3653547  98.3545070 104.7841195  27.2430917
  97.6886086 105.3943566  26.9262048  97.8571849 104.0920524  27.6789209
  73.8429260  26.4693666  82.9734516  73.9772606  27.0751786  83.7022781
  74.1964054  26.9288731  82.2117901  98.9740372  47.1095324  75.1400614
  98.5952187  46.6533041  75.8914471  98.9314938  46.4726257  74.4267750
 100.7532554  26.2805418  36.4033624 100.7225327  25.3276590  36.3178941
 100.4199891  26.4528994  37.2839662  52.4213409  19.6943641  75.8376598
  51.6515446  19.3675113  75.3720284  52.9708052  20.0765324  75.1533604
  55.7982923  21.3046444   0.7603761  56.6599656  21.3175762   1.1770173
  55.1855947  21.4923180   1.4714452  88.3274846  87.4492840  11.1742135
  87.8333430  88.2519607  11.0075780  87.6687341  86.7549829  11.1590692
  38.9366055  21.7828727  79.0422106  38.0003786  21.5855503  79.0144062
  39.3553662  21.0117412  78.6598158  52.9842424  11.7723513  71.7779255
  52.5365877  11.1518908  72.3531342  52.3524427  12.4801588  71.6511536
  94.6969223  71.4816141  87.9811192  94.3924904  71.1033821  88.8060379
  94.3355751  72.3679733  87.9762459  96.0737514  50.2594948  82.5920200
  96.2438488  51.1460257  82.9103947  95.5277061  49.8620605  83.2703304
  66.1970472  34.5141363  76.1141586  66.5637970  35.1016450  76.7748833
  66.9279528  34.3317962  75.5236006  25.2291294  94.8245124   4.9051114
  25.0103947  93.9225511   4.6708986  25.6292530  95.1869134   4.1146680
  88.0914879  49.4555283  70.8551693  88.4362507  48.5867882  71.0617113
  88.8138580  50.0524855  71.0502672  77.7040291  52.6244259  85.2583694
  78.5253668  53.1073380  85.1665401  77.1775341  53.1582880  85.8533669
 105.7257938  38.6981583  73.8675785 105.4791641  39.4523501  74.4029284
 105.5667782  37.9415679  74.4319534  97.5704956  31.5154696  49.4041920
  97.4816036  31.0980010  50.2609587  98.4796906  31.8134809  49.3761444
  13.8428112  76.1175612   0.4308530  13.7940308  75.4494838   1.1146089
  14.1827484  75.6531219  -0.3339842  64.8531151  59.2470551  85.8844185
  64.9012470  58.7755156  85.0528145  64.3833685  58.6529779  86.4697647
  43.5535623  27.8021896   3.1318113  43.2681848  28.5866249   2.6633569
  42.7966643  27.2169817   3.1023618  73.2647229   3.9811457   9.1952535
  73.3685399   3.0298412   9.1734906  74.0662671   4.3187511   8.7955114
  56.3355875  21.8911505  68.3823156  55.7118130  21.3751340  67.8715706
  56.7135382  21.2661791  69.0010214  80.3260422  41.7290831  80.1558304
  79.9362946  41.1414194  80.8031178  80.2013302  41.2806416  79.3194246
  23.7602187  13.2472217   3.2880613  23.1617166  13.9018953   3.6478349
  23.7578441  12.5402439   3.9333555  10.0955344  23.6934984   5.3489229
  10.7713271  23.6326492   4.6737691   9.3806077  24.1724384   4.9297162
  55.5276823  61.9628286  89.9297523  55.7924557  62.8687620  89.7703457
  56.3471031  61.5019178  90.1096153  74.6278286  56.7598009  85.3112411
  74.3678141  56.2448025  86.0750484  75.4288864  56.3385010  84.9997234
  60.0535966   8.3322227  53.2650396  60.3998281   8.3536423  54.1571733
  59.1499520   8.0331028  53.3659383   9.3639995   1.2588251   6.4991399
   9.8533870   1.8638647   5.9417745   9.9778558   1.0246504   7.1952554
  40.5275346  36.2262142   1.3426992  40.4989244  35.2694786   1.3339731
  40.8154822  36.4652622   0.4616853  -0.0265192   1.3377273  16.3493749
  -0.2448701   1.6187418  17.2379609   0.9153915   1.4907635  16.2744256
  91.9105148  60.1398087  84.4146252  92.8454399  60.0834942  84.6120453
  91.5156460  60.4758883  85.2192116  28.9077564   0.5141267  89.5844746
  28.9099594  -0.2479163  89.0052223  29.4685837   1.1520490  89.1431618
 103.8428883  94.2896584   1.9258233 104.7633605  94.4687680   1.7337819
 103.6982779  94.6779756   2.7886792  91.8100552  95.3252200   2.6874753
  92.7132325  95.1458577   2.4260732  91.5686278  96.1084107   2.1929475
 108.3380127  53.6653471  16.9155049 107.5672817  54.0429831  16.4917159
 108.9140511  54.4129753  17.0750821  36.8032409   0.1210869   7.0584318
  36.3125468  -0.6373655   7.3749753  36.9858647   0.6338251   7.8458139
  83.3572102  54.9588203  79.6998167  84.1010666  54.5244694  80.1172352
  82.7317810  54.2539740  79.5316935  79.8414850  90.4561329  83.0031204
  78.9412498  90.2178955  82.7816582  79.7925043  90.7614326  83.9090061
  57.7573156  35.1155615  84.4376564  58.5067844  35.3879166  83.9081764
  57.8859282  35.5545235  85.2784920 100.2052879  34.1796350  71.4081717
  99.2585754  34.3200231  71.4243269 100.3597450  33.5113144  72.0757961
  65.1453972  70.5908775  74.6908474  64.9024630  69.6699524  74.5953941
  64.4308949  71.0716152  74.2729759  70.8918810  13.8632894  76.7857838
  70.8751726  14.6605647  77.3152208  71.7523861  13.4803915  76.9565105
  24.6716686  68.9452068   2.9622575  24.8507687  69.8850922   2.9900190
  24.4570919  68.7154631   3.8663598  49.2483235  30.1012886   1.5781900
  49.1534520  31.0031593   1.2718126  49.9938203  29.7581470   1.0855218
  81.6682339  45.9079981  73.2298183  80.8792400  46.2440157  72.8046083
  82.3563576  46.5243912  72.9792595  40.7019472  37.8953338  64.0999222
  40.8691502  37.5661731  64.9830580  41.4748001  38.4193230  63.8892984
  71.8286753  21.4709163  78.6350679  71.4872360  20.9270740  77.9252195
  71.1879253  21.3750553  79.3396807  16.5595342  11.0814989  16.4741823
  16.9554378  10.2267921  16.6443845  16.0070134  10.9406937  15.7053300
 106.9775824  99.5869378  10.3067704 107.2251897  98.6632422  10.3481122
 106.2312846  99.6617011  10.9014722  93.6291409  72.1633244  64.8278761
  94.1916180  71.4257669  65.0642347  94.0068245  72.5020790  64.0161896
   7.5067898  88.3712057  54.8612996   7.6249405  88.2454208  55.8028146
   7.7382847  89.2877821  54.7112008  30.2845693   5.5145568  58.8497162
  29.6499395   5.0472891  58.3064508  29.8038745   6.2732506  59.1806984
  81.2168503  61.4220333  85.1043034  81.3971901  62.0416546  84.3973541
  80.2862453  61.5401506  85.2947235  60.0580454  35.3012800  82.7710438
  59.8555803  34.9331856  81.9109535  59.9959803  36.2483621  82.6468849
  54.7794915  27.1914518  15.5527517  54.0013314  26.8604792  16.0012742
  54.4367505  27.7874935  14.8868009  94.6236615  58.6937771   1.1261579
  93.6867671  58.4977297   1.1310502  94.9757914  58.1988702   1.8659612
  85.9153938  36.0720634  85.9428501  85.5544281  35.8505130  86.8012524
  86.5213966  36.7923641  86.1165047  84.1092682  64.4971323  83.5052872
  83.8340950  65.2096748  84.0821648  83.7901497  64.7528315  82.6398277
   6.1902619  31.7489136  11.6546365   6.5904094  30.9382141  11.9690629
   6.8750907  32.1674049  11.1329957  15.8692352  50.1498556  60.8417845
  15.3734771  50.8568668  61.2548208  15.9539310  50.4192781  59.9272013
  39.7129437  86.2731937  29.3870279  38.9476677  86.2859253  29.9618551
  39.5895191  87.0247487  28.8072320   7.1987716  81.6338348  81.0129356
   7.9693977  81.5017891  80.4607296   6.7995731  80.7663155  81.0784435
  61.7716837  36.5108681  80.8990479  62.6467514  36.8836617  81.0063553
  61.7652512  35.7455182  81.4738750   1.8517300  93.5297994   2.9099866
   2.3485991  92.8510789   3.3668252   0.9845206  93.5049418   3.3144208
  23.8396598   4.7490633   8.9911863  24.0344525   5.3088653   9.7427865
  24.2863513   3.9248026   9.1842958  45.8937645  65.7177162  79.5878839
  45.2270555  66.3851261  79.7500324  46.4339685  65.7218695  80.3780746
  94.8799992   5.4363257  75.5916643  94.6759319   6.1260784  76.2231970
  94.0258598   5.1035440  75.3161049  31.9230844  17.3873604   9.8538133
  31.0502292  16.9955242   9.8824426  32.3634625  16.9387281   9.1319963
  57.5373746  27.0033729  12.4028035  57.1790124  27.7346886  11.8998357
  57.3166371  26.2274111  11.8876478  88.8929939  78.7323904  84.8937798
  89.3317604  77.9948616  84.4697857  88.2473660  78.3265543  85.4723072
  50.5084515  54.0606451  84.0107536  51.0909319  53.5168505  83.4804440
  50.7577324  53.8678217  84.9145889  73.4737873  85.1496315  83.0474949
  73.9050436  85.7547188  82.4440670  74.1682291  84.5518208  83.3242702
 108.5313039  91.0822252  16.8616029 108.3794026  90.1973609  16.5296861
 108.5300450  91.6347341  16.0799619  63.4610319  50.0141430  73.0302525
  62.9813862  50.7068300  72.5759840  64.3722677  50.1408482  72.7660036
  96.7638545 100.7207755   8.8664552  95.8815675 100.5075387   9.1703245
  96.7074303 101.6354493   8.5900232  56.8224144  31.3513899  58.3093929
  57.6001549  31.2850451  58.8634205  57.0578432  30.8822870  57.5089264
  63.8934994  72.9243183  78.2478571  63.0348063  73.2174492  77.9429817
  64.0383339  73.4106398  79.0594912  11.4525028  55.2554638   1.0858365
  11.1564728  55.5207045   0.2150651  11.4343544  54.2986886   1.0638543
   6.3605114  94.5353774   7.7359792   5.5133005  94.1756848   7.4731370
   6.1950966  94.9401597   8.5874578  70.7202053  26.9490170  83.2593346
  71.0759497  26.6092110  82.4382401  71.0433912  27.8487873  83.3062077
  86.2692547  56.9434118  82.1012306  86.2459278  57.0497513  83.0522156
  86.6798019  56.0894108  81.9657135  57.0153236  37.8688073  76.8194437
  57.5784254  37.3208308  77.3661280  57.2685814  37.6522279  75.9221220
   4.7323796  86.7023782  22.9963323   5.5206581  86.7381743  22.4545118
   4.0097615  86.7776231  22.3731157 105.0426917  96.0717372  15.4699346
 104.9404292  97.0124511  15.6142732 104.3624835  95.6710319  16.0112115
  99.6703625  19.1819489  85.0505733 100.3042793  19.8704612  84.8497486
  99.0439320  19.2148495  84.3275642  77.6876163  68.4553051  63.8639402
  78.1682873  68.8027573  63.1126308  77.9791451  67.5463724  63.9352608
   4.9957367  90.1741318  32.2939702   4.6808811  89.9572686  33.1715032
   5.9151932  90.4082803  32.4204751   8.3873359  54.1636896  50.8704185
   8.7511817  54.8082352  50.2634478   7.4791709  54.4388390  50.9959316
 104.6140723  63.1816188   7.8868219 103.9247756  63.7892953   7.6188012
 104.6127324  63.2245664   8.8430520  90.4940891  71.2298870  68.1852198
  90.6969929  71.9435501  67.5804520  90.7164383  70.4348660  67.7007294
 106.7638779  25.8608341  52.7769804 107.5796032  26.1324954  52.3562384
 106.0751438  26.1952019  52.2024632  85.8202744  51.3088608  61.5856886
  85.0580406  50.9328794  61.1453915  85.9643078  52.1451759  61.1428928
  50.7411576  10.4740131  22.3085519  50.5962754   9.8440874  23.0145475
  50.5263139  11.3222540  22.6965734 105.6222873  94.4371251  33.0299493
 105.2378516  94.9417571  33.7467309 106.3665442  94.9637822  32.7384874
   0.4378910  94.8831192  78.9615488  -0.1980142  94.2927722  78.5573912
   1.2883325  94.5565716  78.6676931 106.4235973  60.2730894  84.7240829
 105.6112289  60.4569864  84.2524052 106.1372089  59.9028397  85.5590248
 105.3138499  85.6044392   9.5866510 105.8440547  85.5352382  10.3805848
 104.8798184  86.4542631   9.6618196  11.8673130 104.6085004   6.4325448
  11.3178536 103.9896373   5.9515687  12.6724526 104.1234807   6.6134855
  29.4562626  42.4806404  77.5692272  29.6330810  43.0773401  76.8419600
  28.5204649  42.2911119  77.5014400  85.4517174  41.9569588  77.3888683
  85.4314327  41.2153721  76.7839956  85.6966496  41.5727854  78.2306814
  32.7494575  16.2489117   7.3419401  33.6944057  16.1839283   7.4800607
  32.5422908  15.5203903   6.7566415  56.4252945 104.2563514   4.3376275
  56.7743202 103.3724622   4.4522687  56.1332699 104.5138339   5.2120706
  12.8595158  72.0239703   4.0623781  12.8267952  72.6629023   3.3503839
  13.4514996  71.3419537   3.7451288 110.7005982  93.0383185  26.4848348
 110.4938226  92.1114758  26.3646814 111.6495375  93.0579070  26.6087648
 102.5173240  94.7535256  31.1700651 102.9576497  95.5890492  31.3257619
 101.6274504  94.8873023  31.4963361  72.1599388  52.9246902  76.4889717
  71.5346622  53.6108208  76.2555456  73.0154037  53.3500385  76.4298582
  62.1244907  20.6831598  77.7372074  62.5991201  21.1824512  77.0726299
  61.8426275  19.8886001  77.2839308   5.9470264  36.5240550  69.6891451
   5.9426299  35.6638002  70.1088715   6.2835876  36.3591051  68.8083792
  89.0194321  57.3520088  90.6371689  89.5944023  58.1141567  90.5680752
  88.7720013  57.1559381  89.7335243  64.5837779 100.2764202  81.8617344
  64.5486732 101.2304917  81.7928410  63.7423320  99.9801064  81.5147591
  78.5215664  94.1267109  81.1267948  78.5799265  93.3013344  80.6455612
  77.5905037  94.3482494  81.1103153  89.2720222  29.9922037  88.9394760
  88.5224724  29.4205594  89.1057205  88.9102936  30.7208514  88.4350395
   9.7537991  90.3411225  30.5736753   9.9102398  90.5184344  31.5012094
   9.0001866  90.8869628  30.3492662  65.6695986 101.5502644  38.1081533
  66.0748196 102.2230244  37.5609541  66.3782930 101.2419701  38.6729050
  64.8729992  66.0241842  87.3999310  65.0437641  66.9602489  87.5041485
  65.0940704  65.8405828  86.4868927  49.7111464  63.7276888  63.2562351
  49.5622969  62.7924252  63.3953953  50.5192280  63.9152622  63.7337780
  82.6050568  62.9430389  79.7892952  83.5583782  62.8674746  79.8304605
  82.4474907  63.8539124  79.5408678  84.1349411  66.8069124  85.4227161
  83.8925362  67.6399040  85.0182438  84.8522091  67.0287228  86.0164833
  61.3210965  14.7927893   2.8817960  61.8388845  14.0084780   2.7001687
  60.4349519  14.5652569   2.6003476 108.9098553  92.9288415   1.1784860
 108.3409457  93.3428458   0.5295106 109.6224742  93.5549668   1.3064786
  87.1712494  61.7976713  81.2595367  86.5161228  62.3427677  80.8237457
  86.6611290  61.1268473  81.7134094  85.9280014  57.7263069  84.8632431
  85.3403568  57.2382069  85.4400063  85.9268570  58.6156559  85.2172089
  48.1849953  86.7438773   6.0502263  47.9695507  87.4942402   6.6040918
  48.0813786  85.9849099   6.6242143 102.8821564  52.0434856  80.5828476
 102.6011276  51.4420795  81.2724590 102.4073982  51.7533875  79.8039436
 100.4663849  21.7807937  42.4395370 100.2259254  21.8358922  43.3644009
 100.7991791  22.6525640  42.2262383 101.3769150  41.1661434  44.5481157
 102.2745132  41.4852285  44.4546270 101.0347271  41.6335154  45.3101540
 105.9708023  38.0045414  48.6443233 106.1238575  37.8566623  49.5775652
 105.2540684  38.6383843  48.6166382   1.5441886  64.3863678  67.3809814
   0.9470169  64.4734335  68.1239748   2.1370880  63.6780405  67.6319504
  32.9511643   7.2756660   9.2132779  32.7063895   6.3610828   9.3542119
  32.1551419   7.6876057   8.8772794  68.0077172   5.6727064  22.6972982
  68.8948632   5.9003628  22.9754564  68.0491925   5.6724728  21.7409917
 110.1111221  38.8873243  61.0679674 110.9866905  39.1639280  60.7975769
 110.0450516  39.1617298  61.9826126  87.9665852  47.1744394  82.7176380
  87.0953465  47.0537853  82.3400021  88.2774734  46.2859583  82.8913593
  86.2088585  49.0563202  29.7800851  86.4473820  49.4044209  30.6392503
  85.3453732  48.6647511  29.9116182  88.4588051  34.8856735  66.1566496
  89.0342045  34.2804193  65.6888771  87.6386261  34.8658252  65.6635618
  17.1114918  86.5109066  42.9745981  16.3435837  86.8067888  43.4634897
  16.8312260  85.6954721  42.5589677  79.8091650  54.9513388  69.0574598
  79.5494366  55.8025932  69.4097900  80.0884724  55.1382017  68.1611919
   7.2685615  21.8457389  57.6109648   6.5012256  21.7320347  58.1717682
   7.0054809  21.4774513  56.7675257 106.9409848  28.6423195   9.4237920
 107.8231717  28.8377655   9.1079255 107.0433713  28.5354984  10.3694841
   8.1937496  66.0903645  69.8583889   8.7279025  66.2573624  70.6349325
   8.8035194  65.7116508  69.2251587  84.8241997  58.6715508  60.9174252
  85.7557201  58.5032988  60.7753468  84.7458649  58.8024998  61.8623877
  60.0144578  21.5226734  14.2013570  60.6074334  20.9589136  14.6981355
  59.3376733  20.9297407  13.8748285  80.3406334  69.6422911  85.4436016
  79.5560503  70.1726913  85.5826664  80.7062054  69.5210648  86.3198948
  87.7962589  79.2643070  66.5046787  86.8499756  79.3798351  66.5909195
  88.0921555  79.0441465  67.3879719  19.3629924  61.9779921  33.4660292
  18.4130851  61.9484711  33.5801816  19.4867984  62.2770214  32.5652051
  53.4335042   5.3979338  12.5656244  53.6287309   4.5708931  13.0062219
  52.4782849   5.4188621  12.5078222  12.8980252  88.9143661   7.1426889
  12.1505352  89.2635063   7.6280805  13.4566208  89.6751622   6.9833585
  12.4692050  62.8844023  83.0125809  12.0014469  62.6693153  82.2056293
  12.6299182  63.8261032  82.9525280  66.7127943  75.4649353  72.0108366
  66.4001179  75.1603365  71.1589622  66.0241652  76.0520601  72.3227835
   7.9778668 104.5919970  14.6060392   8.8573261 104.2343501  14.4840928
   7.4580666 104.1926888  13.9084741   6.8827244  61.9054268   0.8467027
   6.3818451  61.3160799   1.4106389   7.1033283  61.3745890   0.0813409
 104.4653034  64.2183113  40.3673983 104.6928215  65.0420618  40.7985640
 104.0637302  63.6898899  41.0571384  82.4457933  25.3032005   4.2323705
  82.5281144  26.2547768   4.1694280  83.2208253  24.9655378   3.7834283
  69.5822048  52.0046186  81.9106102  69.7026825  52.8055954  82.4206638
  69.7408199  52.2711802  81.0050678  70.2983809  74.2418098  57.2571707
  69.7067738  73.8081408  57.8721189  70.1701450  73.7747002  56.4315796
  86.5600395  72.9278326  55.5219698  86.0064411  73.4215879  56.1269236
  86.7953491  72.1356153  56.0049343  55.1210404  40.3257645  11.7650338
  56.0727597  40.3100765  11.8660184  54.8212434  39.5252884  12.1958371
 102.9695606  45.4316902  80.1953602 103.3684254  45.5548620  81.0567284
 103.6962128  45.5251980  79.5793486  47.7286340  41.8329609  21.0952874
  46.8683530  42.1866882  20.8694001  47.5852300  41.3592422  21.9145891
  74.0447998  55.7889175  78.5646248  74.3479156  56.1379814  77.7264690
  74.8404789  55.7014513  79.0894794  29.6499110  33.4145058   7.8476068
  29.6322633  32.5239075   7.4972364  30.5000688  33.4842194   8.2819005
 103.8709831  41.3182449  51.6476250 104.3564892  40.5291700  51.4070511
 104.1758251  41.9842339  51.0313749  81.6094017  50.4266119  72.6453304
  81.3432693  50.8786726  73.4459829  82.4460125  50.8280325  72.4104214
  71.8027639  77.5005817  80.1724243  71.9900227  77.1416664  81.0398102
  72.4914932  78.1494284  80.0279140  73.2857227  52.8114033  69.2803526
  72.5052691  53.3496475  69.4123125  72.9573965  51.9123554  69.2682409
  79.0534402   0.6074083   7.0164319  79.0976621  -0.1321470   7.6225206
  79.0389443   0.2049148   6.1480924  22.7572151  79.5014576   3.4152051
  22.2114655  79.2405776   2.6733609  22.8855034  78.6944226   3.9136716
  90.3392410  41.2376213  74.5079279  90.1463699  41.8329668  75.2322149
  91.1956024  40.8681011  74.7231722   1.0419933  44.9490929  41.1762285
   1.7499343  44.3670416  40.9000683   0.8804027  44.7130442  42.0896864
  92.3227692  45.2554750  69.1102314  93.0135822  45.2680492  68.4477806
  92.4543381  44.4307041  69.5778608  75.2246141  74.2252493  47.4578714
  75.5407810  75.1155949  47.3044157  74.2707777  74.3049574  47.4491358
  96.5067863  96.6684437  66.9259071  96.5409660  97.0533752  66.0501862
  95.6061077  96.3570690  67.0156813  87.1879387  80.4022026  74.5186138
  88.0564022  80.3058720  74.9094200  87.3189545  80.2026463  73.5916567
  20.7522289  64.5210886  64.9936199  20.2984706  63.6920547  65.1454020
  21.1492530  64.4219017  64.1283035  71.8083286  66.0771608  57.3163605
  71.7105103  65.5291748  58.0950594  72.6188326  65.7717800  56.9088554
  64.2683412  26.9444788  10.7238408  65.1071359  26.9680822  11.1843797
  63.9998818  27.8615559  10.6679746  83.3397007  60.1271057  71.7797947
  82.6446247  60.7161140  72.0733261  83.9678001  60.6989765  71.3385582
  87.7652168  41.8198586  64.4030666  88.2489967  41.0426712  64.1234779
  87.4154949  42.1889114  63.5920620  18.8678261  88.2693247   6.4192697
  18.3829113  87.9976682   7.1985647  19.7817417  88.0730728   6.6253587
  79.0098763  55.3379822  80.0471401  78.7507105  54.4629145  79.7584820
  78.1851006  55.8163309  80.1317596  86.6480923  38.7562609  62.5977564
  86.0652924  38.0157590  62.4297476  86.1523533  39.3216467  63.1900501
  86.4099693  46.1992550  79.4714928  85.7156181  45.6977654  79.0441608
  86.0806751  46.3586140  80.3560257  10.6187435   5.2711591  83.6791801
  10.7657334   5.2769193  84.6250153  11.3868805   4.8270139  83.3201218
 107.3499393  68.7613821  40.9527206 108.0188370  68.9624786  41.6072226
 107.6115894  67.9126215  40.5958176  71.9751263  57.3496294  80.0472927
  72.3886061  57.4649048  80.9028435  72.3574066  56.5422916  79.7033501
   0.4189102  48.8560629  80.5751514   0.2150337  47.9468155  80.7940960
   0.3551380  48.8926983  79.6207809  68.3998395  33.7476814  15.9951421
  68.0770112  34.6405971  16.1164495  68.9748670  33.8025272  15.2318784
  44.0287963  79.9157524  60.2194071  43.8594333  79.1095543  59.7319698
  43.5301105  79.8146868  61.0301685  91.1035824  89.7196007  80.3348827
  91.5222836  90.2190590  81.0359287  90.4631138  89.1676426  80.7836151
 104.9645901  64.5556116  71.0011911 105.0277424  64.5485497  70.0461006
 104.0806866  64.2376423  71.1851358  15.4650489  64.2612505  66.5795517
  15.0149051  63.4241581  66.6929865  15.8703033  64.4324017  67.4296761
  79.5516253  58.5280657  60.1730824  80.2169132  59.1779280  59.9465895
  78.8566399  59.0336466  60.5945253   4.1067020  39.2439008  58.1331158
   4.9074451  39.0648866  57.6401663   3.7779132  38.3789945  58.3782148
  88.4891319  64.3263578  81.7126656  88.2563972  63.3990097  81.6669655
  87.9365349  64.6778631  82.4107456  95.3488307  92.0467476  15.1714441
  95.0318341  91.4210133  15.8227464  96.2806802  92.1447209  15.3671094
 103.7907505  85.3328800  63.7562180 103.1239605  84.7777462  64.1604996
 103.8935375  84.9790287  62.8727865   7.6060101  90.4393271   4.4525167
   8.3500763  89.9313358   4.7758409   7.8265759  90.6339673   3.5416337
  50.9261037   2.0325268   4.2144605  50.8443452   1.2742031   3.6361142
  50.8778478   2.7874124   3.6279031  93.3398056  65.4447937  52.7191830
  93.2069302  66.0583258  53.4417868  92.8205967  65.8052778  52.0003653
  99.8281288  97.8742599  59.3192816  99.1648960  97.3371887  59.7527647
 100.6169510  97.3320770  59.3255520  79.0730238  74.7243023  43.2084656
  79.0520096  74.2500401  44.0396452  79.9265385  75.1575422  43.2014179
 107.3978190  96.5415267  16.7594072 106.9992547  96.1074428  16.0051175
 108.2103162  96.0589532  16.9117376  57.9881574   5.9497059   8.0499193
  58.5987378   5.3565586   7.6122018  58.0399037   6.7616403   7.5456258
   5.2849285  86.9143677  68.7974548   5.6777374  86.3023376  69.4198370
   5.9467880  87.5961208  68.6817837  17.1534625  64.4129801  75.7052326
  17.2539989  65.2839994  75.3212404  16.8644611  63.8623333  74.9775648
  92.8660202  60.8876085  62.0222950  92.4552059  60.2928066  62.6497269
  92.1455383  61.1840248  61.4661694  49.7621632  94.4867802  85.8812809
  49.0015030  94.9386597  86.2465572  50.4946280  95.0812721  86.0435104
  79.9574137   9.6508306  38.2554865  79.7238398  10.1715410  39.0239501
  80.9003448   9.7814298  38.1552577  44.5765829  43.1723118  90.6667805
  43.8144207  43.6397505  91.0085964  44.9398661  43.7591743  90.0035667
  46.1070824  93.5111713  80.6316948  46.3636827  92.6345348  80.3455353
  45.2449560  93.3904266  81.0296822  47.1309468  73.2874469   0.7494375
  47.3160359  72.8666476  -0.0901393  47.9805847  73.6131076   1.0465928
 100.5664687  94.6053294   2.9624673 101.2438874  94.1626243   3.4736940
 100.8011489  95.5323009   3.0057737  88.5044575  32.6245022  76.5105772
  87.7301788  32.4981833  75.9621620  89.2413902  32.5592971  75.9032011
  82.3536205  63.2578230  59.8534536  83.2214737  62.8919554  60.0242996
  81.9418049  63.3103609  60.7159424  70.0580645  75.6719446  73.8433170
  69.5870686  76.0775518  73.1153965  70.5000973  74.9183083  73.4523201
  19.4410125  65.9439659  82.4189568  20.2414409  66.2565184  81.9972420
  18.8806812  65.6671810  81.6939354  91.7288589  28.9984059  48.2677841
  92.3193550  29.3232369  48.9475155  92.2088337  29.1307950  47.4502707
  96.6103172  53.0305243  61.5595913  97.5551224  52.9657316  61.4203691
  96.2263489  52.7662420  60.7235527 108.8986969  44.8500586  74.5446301
 108.7304592  44.4458866  73.6934137 109.7808743  44.5603752  74.7771549
 107.4256325  61.4834976  89.4490528 107.8241158  62.3177958  89.6968269
 106.5282631  61.5398121  89.7773552 106.3206387  79.4339895  86.1019516
 106.4497375  80.0387096  85.3712749 105.4543495  79.0562391  85.9500217
 103.7766414  87.3498587   1.7474195 103.3066516  86.9685892   2.4890157
 104.5614152  86.8092064   1.6576597  88.0953407  62.7090883  88.1282616
  87.6160622  62.4766636  88.9235592  88.8575363  62.1300459  88.1301022
   5.0495616  65.2139330  87.3560810   5.0888149  64.8263836  88.2304382
   5.9602252  65.2341080  87.0619392  70.1942062  41.7990494  86.2668610
  70.4451704  42.7223349  86.2386608  69.3394423  41.7699528  85.8370113
  19.3794719  50.1919079  84.0614796  18.8600723  50.9959269  84.0578365
  18.7389175  49.4923782  83.9326954   2.0559880  85.4799060   7.5937578
   1.6810080  86.2664632   7.1975919   2.7876183  85.2489380   7.0214006
  78.6550808  65.8518648  61.0160160  77.8046846  66.0289669  61.4181185
  78.4854174  65.8805418  60.0744104  72.2318821   3.7655839  82.0038986
  72.0506863   4.4769868  82.6181412  72.7901058   3.1621179  82.4942398
  96.1086845  97.1204662  87.8047466  96.4048004  97.0585155  88.7128830
  96.4310169  97.9705238  87.5051880  21.0595790  46.9618177  88.3370590
  20.9067432  47.7288055  87.7851486  20.4682723  46.2944984  87.9888248
  96.9995785  82.4607277  69.4882393  96.5109921  83.0959129  70.0117493
  96.6496944  81.6106892  69.7551441  50.7410241   6.9269693  38.7525674
  50.6792069   7.4780262  39.5327874  51.3275147   6.2149465  39.0080758
  68.0150204  95.0991420  22.7503797  68.2804136  95.1498584  21.8321058
  68.0854301  95.9986238  23.0700799  17.0538517  80.1575355  14.0807363
  16.3149449  80.3587703  14.6549817  17.5992104  79.5601658  14.5925638
 100.2859784   2.4630630  33.9719602  99.8655034   2.4503124  34.8317643
 100.4530812   3.3898914  33.8007852 101.1656380  54.3202209  56.6049194
 100.4653263  54.3963051  57.2530031 101.7908192  55.0036097  56.8464994
 102.8569508  43.8209677  87.5994301 103.5431004  43.2217693  87.8933430
 102.8053284  44.4827509  88.2890701  89.9535084  49.8372412  85.9450340
  89.7014618  50.2039099  86.7925358  89.1227627  49.6289778  85.5175686
  71.0096455  49.9683714  83.6624432  70.2838802  49.7842646  84.2587662
  70.6241179  50.5145359  82.9773903   5.5872718  28.7385726  76.8780136
   6.2156192  29.3298388  77.2925234   6.1291210  28.0864596  76.4337349
  96.9698524  25.2128792  77.0348883  97.5738144  24.5729518  77.4116516
  97.5371075  25.8574414  76.6118240  21.0749336 102.2033576   0.9257814
  20.3994747 101.8569545   1.5088769  20.7285210 103.0458716   0.6318399
  79.6621513  93.9015007  89.7574520  79.1401958  93.1509876  89.4736767
  79.8729324  93.7144947  90.6722450  47.6844693  29.7260654  11.6726037
  47.2158147  29.1841400  11.0378572  48.6052514  29.6434677  11.4244672
  98.9887714  39.6175194  85.1930332  98.2512188  39.6684980  84.5850372
  99.4783497  40.4264355  85.0440407 107.9426098  63.2977390  65.9725046
 108.6759853  63.7913465  65.6054258 108.3441830  62.7178431  66.6195679
  66.1956692  71.7571592  85.7640457  65.3786469  71.2857294  85.9266949
  66.3034630  72.3209286  86.5300560  22.6552574  35.2086997  45.7356405
  23.2353774  34.5729852  45.3166437  21.7793552  34.8357391  45.6359482
  74.7917366  60.7865095  70.4040956  75.5552006  60.6678963  69.8390436
  74.0570641  60.8797026  69.7976303  11.1744396  31.6374469  71.4906120
  11.7072479  31.9127178  70.7445765  10.6706134  32.4166608  71.7256021
  14.9544908  12.5083673   2.5541898  15.1159907  12.9284227   3.3990022
  15.4555465  13.0303276   1.9275113  23.2529351  95.9596328  12.0662423
  22.3212429  95.9199218  11.8503877  23.3471867  95.3864316  12.8270170
  40.2793313  16.6035927  14.5204660  40.4795695  16.4016664  15.4344484
  40.4448272  17.5430143  14.4409200  52.5161744  26.4889563   9.8887655
  52.4218751  26.2818754  10.8185312  52.7220632  27.4235857   9.8712274
  65.9064245  61.3491344  49.9480104  65.4142857  61.4041567  49.1288614
  66.2168789  62.2415209  50.1013088  10.4643341  88.9333037   5.5385801
  10.6179425  88.0269650   5.8053895  10.9613034  89.0314011   4.7264024
 102.8622632  90.4542760  28.5880014 103.7799220  90.3910140  28.3231851
 102.6469855  89.5812849  28.9162942  74.0543653   8.4172380   1.0482141
  74.3693925   8.3095301   0.1507875  74.7318364   8.9385307   1.4789316
  57.2263337  31.9876469  20.1777479  56.5561296  32.3266685  19.5843431
  56.9752027  31.0761154  20.3269693  43.9805698  25.0959420  89.8580551
  43.5210609  25.9332943  89.7954369  43.3129597  24.4780636  90.1559734
   1.1113445  39.0093756  57.8764534   1.1434928  39.4411707  58.7301207
   0.5163471  38.2704997  58.0040359  92.8389454  27.3805022  77.2294855
  92.2658348  27.0156169  77.9037523  92.4306202  28.2133484  76.9931126
  67.7226019  92.1949577  77.5784016  68.1970310  92.5470161  76.8252707
  68.4078026  91.8708420  78.1629372  43.7141610  22.0715797   4.2723485
  44.4790269  21.4965856   4.2966291  43.9725591  22.7896107   3.6945077
  97.5930977  41.3130999  70.3345203  98.2307148  41.3485432  71.0475540
  97.5243378  42.2177935  70.0295115  64.3266773  58.8713169  76.8371916
  64.0435362  59.3656063  76.0679436  64.1156101  57.9613686  76.6282177
  94.9517918  78.9853430  84.4046879  95.5531502  78.3929920  84.8560429
  94.3404484  79.2695093  85.0841999  47.9044534  30.4061306  28.9730569
  48.1287290  30.5606354  29.8906919  46.9650365  30.5828178  28.9230653
  72.2334386  17.1020878  16.4228555  72.0734407  17.7895773  15.7763406
  72.3225499  16.3021553  15.9047910  85.0930691  81.3274288  34.9703932
  85.7160091  80.6755066  35.2915978  84.2806816  81.1331463  35.4378557
  98.8891220  51.5605116  70.7166290  99.6518230  51.2236977  70.2464533
  99.0980244  51.4242029  71.6407585  96.5407562  42.1119261  63.0402946
  95.7290554  41.7027569  63.3402014  96.3120365  42.5105190  62.2006273
  76.0994196  75.0253820  89.6535969  76.2969685  74.6598959  90.5159378
  75.7780552  75.9084558  89.8356342  79.1047382  57.4077129  73.8424492
  78.8235188  56.8765831  74.5874643  79.9537659  57.0418596  73.5943842
  69.4418669  65.5949926  80.5783272  68.9277935  65.9284639  81.3136864
  69.2180586  66.1722565  79.8483229  97.3190880  51.2351799  87.2849941
  97.3430824  50.3760386  87.7063370  97.4160004  51.8580198  88.0053520
  21.2107178  61.1778108  21.3983651  21.7318913  61.9804648  21.4171430
  21.5313812  60.6665859  22.1413728  90.0446415  57.2524071  56.0992002
  89.9396801  56.4564371  55.5780029  90.0314045  57.9624367  55.4573917
  87.7122974  13.4824526  72.2085285  87.8770256  13.1587064  71.3229322
  88.1794167  14.3169427  72.2492313  75.3465700  72.4613571  55.0455999
  75.6529808  71.5834427  55.2727890  74.7831297  72.7150249  55.7766390
 100.0578976  35.4580569  60.6161737  99.1497040  35.2432871  60.8289957
 100.1915264  35.0934672  59.7412729  96.7387676  37.1160483  64.0759087
  97.1843243  37.6231313  64.7545719  95.8146667  37.1439958  64.3239021
  38.3172561  33.1759155   7.3395654  37.7959586  32.5892437   6.7915651
  38.3837415  32.7225960   8.1799909  98.1661415  33.4607649  33.6561155
  97.8700352  33.6474156  34.5470190  99.1093063  33.6225772  33.6783624
  64.3477678  44.4626474  87.6926517  65.3002024  44.5389080  87.7500248
  64.0585756  44.3842173  88.6017418 109.5781994  60.0152493  78.6900091
 109.0547562  59.2258739  78.5517263 108.9592075  60.6542778  79.0431690
 100.0782681  61.3567209  53.8554478 100.4637909  61.7369318  54.6447754
  99.1723061  61.6656971  53.8586521   5.8869926  55.6967878  80.7100677
   6.6957847  55.1856565  80.7388210   5.2570812  55.1239729  80.2726555
  42.1454431   1.5101898   5.4938623  42.8812600   1.2387503   4.9451181
  42.0534612   2.4477947   5.3245374  85.7446004   0.5174196  16.3608667
  85.7052327   0.7170141  15.4255315  86.4146997  -0.1623022  16.4327260
  18.2515384  24.1747558  11.4342328  18.3995534  25.1157177  11.3397809
  17.3026658  24.0729273  11.3600560  82.6387501  29.9476218  89.8855686
  82.5780773  29.4772410  90.7170105  81.8911934  29.6329665  89.3772602
  71.3619184  56.4672947  84.9350643  72.0329475  55.8759260  84.5941353
  71.8316984  57.2799253  85.1225948  35.3638936  18.2517422   2.7290365
  34.9237395  19.0433681   2.4194833  34.6521712  17.6398981   2.9169866
  89.5069981  34.8832488  80.8314800  88.8405228  35.1173186  81.4774323
  90.3387356  35.0672507  81.2680435 108.6339951  43.0933428  68.5738039
 109.0578270  42.5656128  67.8969765 108.0837440  42.4728441  69.0517616
  48.4447476  74.5374183  26.4534684  49.1376778  74.6816091  25.8090421
  48.8781639  74.0774111  27.1723386 106.5950012  25.8074760  61.0563707
 105.8393002  25.2969313  61.3470650 106.7168236  25.5550838  60.1411152
  98.2226467  54.2481756  73.2637405  97.4026680  54.7384834  73.2049227
  97.9539013  53.3295679  73.2506466   9.6290962  12.6278770  58.9634752
   9.0144435  12.6828742  59.6951866   9.8722545  13.5365295  58.7861109
  86.7160416   5.4330361  67.7208519  86.1508369   5.9021008  67.1070480
  86.6872883   5.9571105  68.5213232  48.7902452  15.5263317  14.1410276
  48.8220311  15.6160200  13.1885644  49.7028829  15.3992117  14.4002076
  91.3424873  37.6447153  76.0003757  91.7650223  36.9794106  76.5435696
  90.5235481  37.2380185  75.7172203  99.2156124  74.9024582  81.6692543
  99.1420841  73.9756155  81.8968296 100.1179314  75.1326180  81.8907928
  87.7011013  59.6954250  83.9594269  86.8311691  59.8055840  83.5756111
  88.0494118  58.9079809  83.5412884   4.9736301  46.8687153  74.3274975
   4.6207611  47.6495934  74.7540379   4.8690692  47.0391893  73.3914232
  19.3010703  26.9819260  84.9806499  18.4738532  26.7322040  85.3924561
  19.0767661  27.1273518  84.0615368  44.2832943 101.2653188   2.6987096
  43.3563801 101.4733151   2.8161832  44.7028919 101.5810231   3.4990236
  71.5384150  63.2195091  69.2374134  72.1066570  63.4186125  69.9815130
  71.6408539  62.2773218  69.1031837  94.4789410  91.0351276  71.9058037
  94.5275879  91.9894791  71.9612646  95.3317833  90.7715034  71.5602827
  99.0039062  53.9268160  88.5733700  99.5011806  53.4497356  87.9090214
  98.2926655  54.3435335  88.0868340  87.7754688  17.6185262  31.9099474
  88.6065292  17.1521747  31.8199801  87.5308418  17.4972117  32.8273749
  94.3304920  45.6416798  38.1477737  94.3026638  46.1757326  37.3538947
  93.7552738  44.9004745  37.9581046  20.4024307  66.4647770  43.4244347
  19.9283496  65.8027649  43.9276457  19.7247020  66.9094372  42.9153299
  73.7706375  58.5526848  59.5815706  72.9122019  58.6770010  59.9863768
  73.5766459  58.3463144  58.6672306  94.5669842  61.6787243  67.1071100
  95.0085545  62.0593405  66.3479137  94.0965748  60.9224796  66.7563486
  86.9624805  25.5480170  89.4857979  87.5490284  25.1729536  90.1426983
  86.2932682  24.8769927  89.3512058   0.6827918  88.4354401  88.8752079
   0.7403079  87.6342964  88.3545399   1.5736953  88.7854671  88.8753700
  82.9518700  77.0369339  66.8023825  83.1714821  76.1523342  67.0947695
  82.8026962  77.5264406  67.6113081  87.7926731  64.2113352  77.7033710
  87.5761414  64.5669317  76.8414593  87.4534035  64.8585558  78.3216190
  53.0612470  18.8307655  10.6602212  53.3961297  17.9849899  10.9581205
  52.1208383  18.6905611  10.5497476  90.5254269  33.4364510  85.3121471
  90.7053280  33.3024621  84.3815994  90.1559639  34.3181705  85.3601265
 105.1441150 100.8156280   5.4557344 105.8713488 100.5737666   6.0291978
 105.5316548 100.8557490   4.5814153  47.4272438   2.5543507  42.5983143
  46.5383145   2.2992429  42.8451824  47.9475971   1.7607030  42.7231693
  65.3344632  28.6487377   7.4930307  65.7431508  29.4331348   7.1270772
  64.7297669  28.9810455   8.1564733  79.0196896  94.4147396  67.1649170
  78.5481215  94.1212559  67.9444790  78.9971685  95.3702545  67.2169209
  65.4050542  38.8166702  11.0012933  66.1210538  38.8710678  10.3683397
  65.8290959  38.9254177  11.8525239  10.5370418  89.6997356  48.3610821
  10.0237647  90.4547119  48.6488152  10.0224010  89.3169975  47.6505280
  39.2449618  10.1477135  15.9887048  39.4502498  10.2816284  15.0634214
  38.4227181   9.6576965  15.9831353  20.8608714  93.9121532  53.8928986
  20.6283847  94.0578842  52.9758692  21.2704269  94.7319508  54.1693497
  66.0572244   6.8615473   6.3287183  66.7647935   6.3319767   5.9611245
  66.2170793   6.8529785   7.2724363  27.3760978  46.3760948  90.4523277
  27.7757255  47.0572567  89.9114418  28.0954734  46.0439014  90.9893417
  98.6127090  69.4289494  72.6676989  98.2172966  69.9262524  71.9517565
  97.9250145  69.3767118  73.3314562  12.7487270  62.4074316  79.8686552
  12.1683017  61.6464329  79.8836660  13.5582248  62.0993233  80.2761078
 107.2256756  73.9027643  55.0063229 106.9984150  74.5353413  54.3248320
 106.3905716  73.6880875  55.4219484  30.3488246  65.5479765  70.2039576
  29.9444858  65.8166456  69.3790007  30.5373756  64.6169424  70.0862312
  95.5924320  50.6090593  62.2261286  96.4117527  50.2255392  62.5389528
  95.6419945  51.5278625  62.4898958   3.6935230  91.0911278  10.3659746
   4.3053719  91.7458586  10.7024309   2.9604288  91.1099152  10.9811612
  80.8814430  39.5693612  85.3049660  81.6152763  39.8102880  84.7395611
  81.2026310  38.8214135  85.8086014  82.8778553  65.8375502  81.5162373
  82.1470928  66.3401794  81.1562634  83.6325550  66.4207506  81.4353561
   5.6750289  39.8380160  79.8263741   5.7935993  38.8884878  79.8025990
   6.5272991  40.1922417  79.5726347  71.5331888  97.8549194  59.4951153
  70.9024858  98.5693932  59.5844364  71.3903761  97.3111248  60.2697945
  31.6480065   8.0233705   2.6903459  31.7078115   7.0683086   2.7131578
  32.4098350   8.3229721   3.1864091  99.2903805  89.2618942  59.5648241
  98.3792782  89.0330219  59.3811274  99.4787788  89.9894238  58.9720058
  28.6101624  97.2529105   4.2672941  28.3127781  97.7692489   3.5181638
  28.9511009  96.4458636   3.8817235  80.0177860  72.5301313  73.2357216
  79.6688557  73.3375311  73.6133337  79.3806601  71.8578577  73.4772968
   5.7190124  50.5686474  80.5524158   5.4483978  50.6976938  81.4614487
   5.1387588  51.1376715  80.0467014  44.2889978  18.2882584  13.0145475
  43.6557675  18.6891401  12.4191114  44.2487050  17.3533810  12.8130170
  93.7412071  60.5577278  64.6417999  94.4543266  60.1898718  64.1199160
  93.9713287  61.4811420  64.7446632  43.1138803  10.7013023  13.1885358
  44.0320207  10.6948173  12.9179784  43.1047441  10.2209223  14.0164110
 104.6313095  26.3802862  82.9055691 104.3179703  25.4759622  82.9211330
 103.8354206  26.9085240  82.8442955  69.8952104  12.4122560   6.7197343
  69.9149419  11.9936550   7.5803300  69.7110940  11.6977251   6.1100026
  94.4007397  45.8467007  67.4194622  95.2899456  46.1972952  67.4708509
  93.8690758  46.5848732  67.1217012  98.8576889  75.1782370  64.7071362
  99.6884918  75.4490423  65.0978470  98.1951809  75.4442215  65.3447628
  42.7229930   3.9836538   0.4282304  42.3000003   3.1584537   0.6656190
  43.4597684   4.0582741   1.0347196  69.0746308  24.1641939  28.6384317
  69.0311624  24.8641241  29.2899247  70.0112248  24.0279806  28.4953615
  93.2704258  66.2336397  38.4514403  93.4769058  66.8725014  39.1336799
  93.9562893  65.5704403  38.5288477  88.7510872  78.6084127  64.0525103
  88.7184525  77.6568365  63.9541864  88.4419441  78.7677956  64.9442863
 108.6114025  34.9980283  69.7170115 108.3206177  35.4629850  68.9324808
 107.8173351  34.8924136  70.2409697  97.4367619  60.3638077  68.4907007
  97.5301361  60.7816219  69.3468237  96.5465164  60.5809546  68.2140350
  98.4703445  30.5287027  82.9519558  98.5204029  31.2821317  83.5402393
  99.3166924  30.0922704  83.0491829  53.4103204  23.9363754   5.3104993
  52.7595426  23.2389439   5.3899213  54.2490579  23.4773338   5.2654477
  52.0942975  52.9825294  22.7697965  51.3224317  53.2139099  23.2864400
  51.7594434  52.8572834  21.8818685  65.4719973  88.3984756  78.9160252
  65.7089758  87.5599861  79.3122768  65.4226160  89.0065193  79.6536350
 101.0494328  61.3073635  86.8588543 101.0241890  61.4179277  87.8093147
 101.9813156  61.2428284  86.6499043   9.8088738  10.5391988  55.9600687
  10.0929829   9.8021516  55.4194498  10.2078911  10.3770551  56.8148947
  92.0349979  56.5134239  78.5765600  92.4656582  56.0015106  77.8919363
  91.5446758  55.8679390  79.0856409  92.8940773  68.1758070  83.9618206
  93.2784939  68.6330986  83.2139397  93.4968376  67.4529743  84.1362286
  29.0202857  28.9038456  21.4341470  29.6044684  29.3965900  20.8578130
  28.1854249  29.3693531  21.3836976  26.4898730  11.4005363   1.6416951
  27.0181609  11.4568413   2.4379274  27.0238401  11.8239963   0.9695360
   9.3054959  99.7333364  10.5833932   8.8600823  99.8272113   9.7413560
  10.1883503  99.4415359  10.3561231  81.6421604  46.3933849  64.5819950
  82.5148964  46.4927483  64.9623823  81.7741013  45.8212328  63.8260412
  67.8686238  28.3101356  12.9325982  67.8527452  27.5923717  12.2995206
  66.9855786  28.6781013  12.8997060  78.0596067  11.4564503  14.1426393
  78.1002332  12.1914804  13.5308286  78.8805295  10.9840238  14.0042993
 102.8012943  47.6153088  85.3831387 102.2293472  48.3513880  85.1656818
 102.2175884  46.8570185  85.4059029  84.7557164  19.6840275  13.9869710
  84.4627858  19.3992222  13.1213399  84.2225553  20.4556120  14.1783735
  20.9549896  84.1485405  70.4605150  21.0632984  84.0836716  71.4093542
  21.4583675  83.4131527  70.1111603  83.7773896  35.5785263  30.3421041
  83.2091428  35.9421528  29.6630498  84.6485234  35.9139717  30.1303693
  82.8192234  89.2413139  60.4787016  81.8669510  89.1734982  60.5479908
  83.0304241  88.8102341  59.6505737   1.5260593  64.2717171  71.9499636
   0.6644145  64.2906427  72.3664284   1.8151752  65.1841879  71.9561720
 103.0458164  52.2464705  64.4740152 102.4476719  52.0521498  63.7524271
 103.6488152  52.8981781  64.1163874   9.1522409   6.5630186  22.7643796
   8.6995460   6.5928734  23.6072370   9.0033723   7.4277103  22.3817941
 102.0603657  66.3472223  79.2140102 101.3543701  65.9531689  79.7263861
 102.7525520  66.5190172  79.8524380  15.3723995  59.4946337  66.4521170
  14.9245349  60.3216648  66.2741661  15.0724117  58.9059496  65.7595158
   2.2918121  84.5216846  73.0791426   2.6463596  85.1714039  72.4721909
   1.5472404  84.1404533  72.6138353  92.5951004  53.7353802  66.5029812
  92.7802563  54.5570803  66.9576883  91.6545010  53.6029243  66.6211605
  28.3531471  84.1593746   3.0045816  28.3766361  83.9144329   3.9296075
  27.9812714  85.0413732   2.9997274  23.7665740  59.0883303  80.0911427
  23.8816921  58.1399679  80.0312805  22.8432266  59.2311287  79.8831272
  93.4279537  68.7124300  47.0850849  92.9410076  68.2890224  47.7920818
  94.3476200  68.5673380  47.3073387  83.0223560  49.1740036  62.4341536
  83.6425304  48.7175035  63.0026865  83.3578014  49.0299177  61.5493059
 107.8138256  86.1399841  86.6947937 108.5985565  86.4015198  86.2131119
 107.3218822  86.9528770  86.8106747  23.8769051  14.0529355  70.2331781
  23.8082310  13.1036385  70.3349495  22.9955097  14.3779000  70.4169369
   1.9046012  83.3569908  56.8555021   1.4905254  83.7333298  57.6321268
   2.7282897  83.8365269  56.7670965   0.3446380  63.8872766  87.7659225
   0.3530589  64.5369434  88.4688473   0.9989444  64.2012119  87.1417809
  71.8280649  71.2128353  81.7988396  72.1615934  70.6103563  81.1339951
  71.8069506  70.6941938  82.6030731  88.9937592 103.6602306  70.1330996
  88.5775375 104.2642879  69.5181942  89.0874386 104.1666031  70.9399700
 100.7272911  24.3376970  54.6465778 101.3154888  24.6829414  55.3181839
 100.5040932  23.4586215  54.9525881 108.7084198  86.1139488  83.7850094
 109.6117878  85.8544827  83.9661884 108.3106804  85.3375912  83.3909321
  29.9613086  76.0935545  56.1897087  29.2707912  75.9684372  55.5387402
  30.4640285  75.2793694  56.1651134  14.0778629  46.2474155  81.8516541
  14.4338218  45.3625679  81.9326591  13.1740753  46.1709356  82.1575356
  17.0726863  66.7431688  42.6875353  17.3499004  66.0290241  42.1136141
  16.1220542  66.7801142  42.5818539  89.4567299  43.9542913  82.5852871
  89.3661690  44.5196819  83.3523369  89.9717999  44.4714451  81.9660187
  91.6175747  48.1149149  62.6251507  92.0435905  48.9495182  62.4297571
  90.7165337  48.3516169  62.8450012  47.3590084  18.1513699  56.2365294
  46.9888302  18.3190640  55.3698826  47.7065274  17.2612485  56.1803865
  37.9363819  98.7379817   2.2715112  38.3023449  98.8977412   1.4015790
  38.3762451  97.9435376   2.5741884  89.9979115  71.6760921  62.5676918
  89.8144245  71.5594864  63.4998798  89.1422939  71.6051006  62.1444607
  65.0882054  15.8004034  19.2484113  65.4915048  14.9842823  19.5442888
  64.3911744  15.9669197  19.8829576  69.3176079  82.5692368  47.0393038
  68.7957335  81.8962288  47.4762774  70.1217794  82.1187496  46.7812347
   5.8480636  84.0084267  60.9734821   6.4217178  83.5913944  61.6163206
   6.4334861  84.5542717  60.4485369  82.2428989  98.4549999  78.8992786
  82.7403450  97.8795338  78.3182287  82.8041649  98.5633469  79.6670485
  86.6783333  58.0320597  63.6518288  86.6512394  57.6123333  64.5116711
  87.1640778  57.4182653  63.1008863  64.9890805  13.0011070   9.9893400
  64.2391206  12.4867714  10.2880689  65.0358487  12.8321255   9.0483400
  85.0805759  30.9625697  80.5751801  85.9876347  31.2447762  80.6927967
  84.5912838  31.7755055  80.4488659  26.2839881  79.4675732  42.4910021
  26.3422767  80.4095745  42.3314333  26.6823284  79.3455267  43.3527803
  81.3018990  54.0173864  71.1023378  80.7658386  53.2749605  71.3810253
  80.8467865  54.3672752  70.3363848  48.6751653  19.0110767  39.6044465
  48.9047624  19.2127121  38.6973306  48.3253289  19.8318613  39.9510881
 102.3258019  20.6932581   6.0160371 101.7563249  21.4105642   5.7378217
 102.3068620  20.7295359   6.9723626  14.1477386  61.9127321  66.6694975
  13.2730380  61.9272518  66.2810087  13.9996616  61.6720676  67.5840378
 104.9098301  79.0523052  56.5553093 105.5129337  78.9136171  55.8250523
 105.2105141  79.8642874  56.9633675   0.9783164  31.1151147  84.5465851
   0.3794090  31.8612742  84.5184422   0.4108611  30.3578258  84.6905899
  65.4359437   2.4225080  13.0452367  66.2466527   2.7352655  13.4467050
  64.8596383   3.1867683  13.0425569  74.6646452  66.2775421  80.3542137
  74.4479513  67.1176338  79.9498367  73.8168526  65.8939695  80.5785942
 107.5877285  39.0256023  82.2568417 107.7951527  39.9423027  82.4381351
 107.0964241  39.0490842  81.4356804 100.2174091  72.5746918  90.6668949
 100.6708717  72.1096230  89.9638176  99.3868828  72.1091080  90.7652855
  15.0519172  70.3682566  54.8433542  14.4839851  70.2450705  54.0827560
  15.0901691  69.5054007  55.2559662  92.7554512  34.6573591  74.4602776
  93.1840420  35.1343822  73.7496471  91.8296909  34.6464229  74.2172098
 106.8608570  57.8071070  52.1894503 106.6711807  58.6815834  51.8495321
 107.7763939  57.6529646  51.9564962  53.0005642  92.9172019   5.3395864
  53.1060597  93.5558013   4.6344014  52.3924919  93.3333472   5.9505769
  63.0571271  35.6044853  18.8176080  62.6367379  35.9088982  18.0133458
  63.9398194  35.3528393  18.5460397  53.8455773  22.3449457   2.5965997
  53.6266519  23.1396330   3.0832025  53.0935193  21.7679012   2.7294942
  40.7984496  45.1778019  16.5037938  40.7017613  44.2564285  16.2630388
  39.9839879  45.3933800  16.9581147  75.0305796  77.7911615  81.2048340
  75.5722332  77.1447992  80.7519913  75.5869532  78.1161880  81.9126797
  12.7545921  77.1558428  71.5869570  12.7099315  77.8578615  72.2361183
  13.5802452  76.7090416  71.7737770 108.1039715  76.1523771  77.2720098
 107.9001713  76.5250540  76.4142179 107.2557640  76.0811949  77.7098703
  75.1934720  14.6724499  10.3675767  74.5120431  15.1166284   9.8630163
  74.8719121  14.6869886  11.2690278  58.2411861  78.3248472  68.0888033
  58.6975288  78.8806725  67.4571037  58.4279680  77.4314022  67.8005314
  16.1389924  38.8299072  24.1284677  16.3311864  38.7675751  25.0641080
  16.9647838  38.6067284  23.6989423  51.1677552  41.2909878   5.1972696
  51.7383576  40.6298912   4.8053476  50.9256555  40.9245956   6.0477849
  37.5301410  21.3571918  25.1538202  37.6956988  20.8290422  25.9347745
  36.8189956  21.9450653  25.4085847   2.8512374  45.3213835  71.5110350
   3.4845058  44.6036148  71.5073872   3.3199207  46.0563040  71.1154842
  41.7789508  25.4596079  11.1741563  42.4581100  25.3830326  11.8443128
  41.7314817  26.3971937  10.9873029 106.4370632  83.4986496  78.7114716
 106.2492657  82.7779961  79.3128204 105.5834389  83.7380886  78.3505964
   8.3835689  47.9316711  86.1801720   9.2835895  48.2485914  86.1042118
   8.4276763  47.0165682  85.9029102 108.5026455 100.4897022  74.4360256
 107.6373863 100.0803757  74.4382048 108.9390087 100.1314926  75.2090073
  10.1673309  49.1095543  73.7365723  10.2480499  49.9085951  73.2157469
  10.4038326  49.3775368  74.6245384  48.7552835  43.0541885  11.7958947
  49.5058442  42.9216659  12.3749658  47.9973699  43.0460728  12.3804780
  99.9855804  49.7214890  80.2214050  99.3218803  49.2093754  80.6834316
 100.5960464  49.0687466  79.8786306 109.9261475  57.5604963  81.0859013
 109.5923805  57.3358917  80.2173424 109.2420101  57.2684193  81.6882896
  52.7166749  49.7575939   6.3677617  52.5449754  50.6696308   6.6021749
  53.3887864  49.8074520   5.6880494  57.9630944  63.9170019  11.6932985
  57.3954006  63.2225791  12.0275613  58.8512799  63.5918859  11.8404599
  30.0140334  29.5398319  15.0643846  29.8673583  28.5987080  15.1593038
  30.7741023  29.6066845  14.4864103  22.5969974  79.4776487  84.4964314
  23.3650104  80.0453281  84.4321918  21.9029228  80.0498390  84.8236847
  58.0261898  76.0390425  57.9076338  57.4991369  76.3938713  58.6235571
  58.1612492  75.1208353  58.1419182  84.7122097  70.3167486  55.5756474
  84.8058033  71.0557175  54.9744844  83.8423538  70.4286575  55.9591436
  73.0911589  83.3148861  89.4709778  72.3006535  83.3147240  88.9312172
  72.9098177  82.6772881  90.1615047  11.2463857  52.2526920   1.1074182
  10.2957202  52.3533333   1.0591241  11.3818313  51.5689552   1.7634603
 108.7082867  76.1634878  15.7001134 108.7016778  77.1150426  15.8037015
 109.1374879  75.8393339  16.4919111 109.3140030  63.0409384  77.5675583
 108.3685398  63.0464792  77.4182558 109.5133877  62.1358490  77.8069305
  97.9319286  56.6232777  82.0473099  98.4763241  56.0581589  81.4991188
  98.4477806  56.7541170  82.8429222  80.6486607  77.2969866  81.8182182
  79.9931240  77.8320980  81.3708210  81.0019970  77.8701878  82.4985218
  90.0939656  18.3658302   0.2541467  90.1953794  19.2662514   0.5626699
  90.6803704  17.8542030   0.8114644  23.5308648  47.9262340   8.3351823
  23.7038995  47.6729954   9.2419168  23.5490228  47.1020687   7.8487035
 100.1589108  44.3873215  72.2792435 100.9473991  44.9299860  72.2745132
  99.5170975  44.8930502  71.7806959   3.2735053  55.0288248  84.6172523
   4.2299835  55.0337744  84.5804214   3.0579559  54.2567635  85.1404095
  95.7106972  40.4541779  86.8685246  96.3262558  40.1670790  87.5429821
  96.2182522  41.0522413  86.3199520  49.7950078  24.6435297  18.2601472
  49.1124726  25.2926958  18.0899736  49.5444108  23.8876617  17.7290174
  78.2405949  69.5435905  70.8128643  78.2932377  69.9401379  71.6824675
  77.5529480  70.0370741  70.3658199  65.0667287   1.6853178   3.4965631
  64.7228147   2.5784433   3.5134622  64.5863629   1.2570560   2.7879926
  -0.1468381  43.9599228  75.7585335   0.5847732  44.2599773  75.2191496
   0.1259414  44.1458464  76.6570044  31.6827012  12.0069921  20.7470437
  31.3588382  12.6572073  21.3703939  32.0714236  11.3240517  21.2935945
 102.4363327  34.1896391  65.7204247 102.0841312  33.3431149  65.4454947
 102.5380230  34.6825838  64.9062443   8.2872669  69.4819689  78.0624104
   7.4051849  69.4356060  77.6936197   8.7437145  70.1185799  77.5123024
  39.3017765  25.3452405  90.7535553  38.8335224  25.8597764  90.0961208
  39.1391369  25.8044537  91.5775108  19.4689742  59.7143888  60.9343243
  20.3467647  59.6856689  61.3149786  18.9021865  59.3444204  61.6111565
  64.6617365  34.8005700  84.5784664  64.9782515  34.7685909  83.6756802
  63.8344431  34.3194675  84.5594120  90.3121853  87.9430866  53.8839436
  90.5190086  88.7119102  54.4153214  90.1723099  88.2911682  53.0033159
  51.2943650   8.3004702  10.5131933  50.7116605   7.9828108   9.8234197
  50.7518483   8.3050192  11.3017865  69.6537686  21.8587959   1.8732091
  69.3063165  22.7470482   1.7925283  68.9728547  21.3002766   1.4981767
  40.7846070  33.0808628  18.8321325  41.2558509  33.8021553  19.2491361
  39.9061538  33.4273804  18.6756917  84.3173218  89.8297691  62.3691607
  83.7644768  89.7587395  63.1473398  83.7222862  89.6679497  61.6370535
  62.3759938  47.9194630  24.1680738  63.1837560  47.6672733  23.7207052
  62.6179124  48.6888206  24.6836301  56.0664459  83.1710581  17.5530168
  57.0075699  83.2958631  17.6752778  55.9550186  82.2215895  17.5047895
  44.3966862  61.6799460  10.9008523  43.7767788  62.2174785  11.3938161
  44.1484162  61.8068824   9.9851629  74.8132707   1.7370880   6.3481447
  74.6342279   0.8228577   6.1282464  75.4746057   2.0111788   5.7127401
  16.7979904   5.0967797  48.3163357  16.5232750   4.7184380  47.4810982
  17.0578572   5.9922036  48.0997467  98.9600564  16.5663612  18.4577485
  99.4349767  16.6665209  17.6327440  99.3504716  15.7939423  18.8666173
  73.5166455   5.9273088  24.2483827  74.1977788   6.2893618  23.6816331
  73.9082337   5.9246529  25.1218149  13.9179889  75.4919338  87.9885101
  14.3195430  76.3027859  88.3007717  14.6471492  74.9864101  87.6293468
  51.8769742  25.8979118  13.4115526  52.5707437  25.3486908  13.7766095
  51.6416932  26.4919079  14.1243287  92.9344560  21.1927307  57.1653768
  93.7935258  21.5583313  57.3765012  92.3552896  21.5326727  57.8474637
   6.8338100  57.2259855  54.1352272   6.1058418  57.4966908  53.5757494
   7.5937358  57.2198391  53.5532475  22.5553227   3.0486954  11.3635274
  23.4150840   2.8226984  11.0086080  22.6309634   3.9718759  11.6048642
  56.8777371  18.0100811  40.0882360  56.4668847  17.7644384  39.2593309
  56.1637403  18.3760775  40.6102487  70.5897903  62.7448654  74.9664879
  70.9742737  62.5475693  74.1123915  70.5029345  61.8922377  75.3927708
  59.0950681  39.0845573  15.1548978  58.3264829  39.4722546  15.5734559
  59.8393632  39.5188511  15.5716249  94.4799614  87.1967030  90.0905895
  95.0846386  87.3632908  89.3675041  95.0183678  86.7760563  90.7609653
  18.4733859  54.9737453  76.5428019  17.9942695  55.2423763  75.7588911
  18.8999072  55.7741451  76.8488550  85.3559971  84.4297314  74.1452885
  84.8058510  84.7228336  73.4188747  84.7978497  83.8316441  74.6422768
   8.1363861  84.0756226  72.5071049   8.4837047  84.3763256  73.3468580
   7.9258052  83.1531143  72.6515245   5.8420650  40.7298660  41.5122604
   5.0411312  40.2731133  41.2551498   6.2817947  40.9263611  40.6850576
 109.7235684  83.7287239  34.6441861 108.7863641  83.8430742  34.4866964
 110.1166062  83.7432531  33.7715169   1.4742557  76.0471010  66.5448856
   2.3924629  76.0901833  66.2779140   1.3749496  76.7590237  67.1769810
  45.3298756  99.6626977  26.7295286  45.6405159 100.5535106  26.8913575
  44.4079396  99.7693805  26.4952680  12.2164050  59.1004372  56.7607403
  12.2567169  60.0565529  56.7819881  12.6568500  58.8601971  55.9455585
  67.2185708  24.3818224   4.4352933  66.3706685  24.1092098   4.7859594
  67.8595353  23.8920582   4.9506017   0.9108535  70.9803343  63.8124657
   0.3183738  70.2621222  63.5902786   1.0405818  71.4477968  62.9873133
 103.7688828  45.9826422  63.9891958 103.4075832  46.2255859  64.8416471
 104.2210293  45.1540470  64.1480350  55.2400590  19.5261467  14.9771425
  54.5649339  19.8484075  14.3799897  56.0602666  19.8603762  14.6141168
 105.8852291  71.3966322  66.7617989 106.4202213  72.1356153  67.0514917
 105.4728794  71.7017221  65.9536457  33.1080624 101.1374310   6.7695638
  33.9878746 101.2262277   7.1360036  32.5236603 101.2560777   7.5183126
  55.6419278  13.1273497   1.0035821  55.0587274  13.1830585   0.2466127
  55.1508523  13.5383356   1.7150327  90.9472179  68.3803320  63.4053135
  90.7127190  68.9301205  62.6576662  90.1079559  68.1351280  63.7948704
 107.1851635  67.1509933  80.1129723 106.3753414  67.6612711  80.1189709
 107.3973751  67.0493984  79.1851425  89.1280270  65.7650852  84.9730206
  89.6010494  66.3228130  84.3554211  88.2661915  65.6437683  84.5745850
 108.1842761  92.5929383  21.7311307 107.8127913  92.9276732  22.5473234
 108.9501576  93.1447486  21.5725156 108.8853555 104.6038703  11.2480470
 109.0235858 104.2548970  10.3675100 109.7613482 104.8421935  11.5514776
  62.2716809  19.6099842  14.9650785  62.0511437  18.7014330  15.1703378
  62.5141145  19.9938524  15.8077642  35.7818032  55.9977425   1.7393323
  35.6486417  56.9120491   1.9894334  36.2073232  56.0431850   0.8831235
  55.1048280  53.8024128   6.6263315  55.3831006  53.3641899   7.4305459
  55.8301164  53.6670196   6.0165330   9.6938983  61.0762930  65.2887011
   9.0187732  61.6660213  65.6243467   9.3553821  60.7811165  64.4434071
  75.1939344  92.1198940  90.3437233  74.3906927  91.8466473  89.9005890
  75.2298498  93.0672836  90.2118015  77.0773506  53.9825821  76.8778372
  76.1273336  53.8690376  76.8494272  77.3957443  53.2177925  77.3573685
  95.4939939   8.5229767  42.4782773  95.6872273   7.6756466  42.8794214
  95.6376363   8.3831823  41.5422937 100.5675125  58.0948830  77.2945833
  99.6568394  58.1814241  77.0127535 101.0740376  58.5178328  76.6012049
  53.7128259  27.2103537   1.8101426  52.7715016  27.3839081   1.8146058
  53.8557626  26.6849220   1.0229226  73.8909532  10.1731861  19.4722291
  73.0591870  10.4586685  19.8502275  73.7285520   9.2738235  19.1876050
  90.4152679  60.2061987  90.0573254  90.4505444  60.5878925  89.1802311
  91.2692070  59.7890902  90.1715374  51.4804269  56.5239132   5.2162095
  51.2640286  57.1706570   5.8878728  51.2469388  55.6829918   5.6093618
  47.2897054  15.9274614   7.7737829  47.3660661  14.9736393   7.7487775
  47.3353387  16.1470783   8.7043306  19.7385684  60.9985352  72.0904684
  19.6124832  60.0504684  72.1293592  19.0352241  61.3105345  71.5210867
  81.5032865  19.7657621  31.0671159  81.6354657  18.8890112  31.4277669
  80.6107999  19.7505319  30.7214948  85.4325391  37.1107090  34.4225808
  85.6744100  36.7610157  33.5649988  84.7910882  37.7946270  34.2301198
   8.2060710  63.3668041  75.6479883   7.6178638  63.1026888  76.3554382
   9.0625564  63.4501743  76.0671711  20.4509059  86.2692261  80.7362175
  21.3637439  86.5356064  80.6266499  20.4986659  85.4420090  81.2154484
  19.3744274  13.1464204  87.9627609  20.2030655  12.7416524  88.2192039
  18.7450405  12.4252423  87.9641819  98.0797768  61.6051817  70.8712721
  98.0832195  61.4561129  71.8167830  98.9668941  61.3809681  70.5902243
  53.2797433   0.4959238   5.2187940  52.4515630   0.9004248   4.9604722
  53.9003182   1.2237299   5.2563688  99.6111203  30.5692089   4.1142103
  99.9623967  31.0657776   4.8532983  98.6639691  30.5716598   4.2525216
  31.9460102  25.4131898  65.7497072  31.4739414  25.5705174  64.9320078
  32.1335980  26.2879380  66.0900879  67.4709130  42.7752483  10.6865617
  66.9487859  43.0215538  11.4500734  67.3705197  43.5095203  10.0807592
 103.0657960  33.2397735   1.5287229 103.2738877  34.0519798   1.9905111
 103.0913259  32.5651539   2.2073003  96.1914635  96.2719250  63.7165165
  95.2470875  96.1650848  63.6026764  96.4946938  95.4157257  64.0185165
  73.3180571 100.0048637  82.7414894  73.2742786 100.9586334  82.8095913
  74.0067005  99.7521877  83.3564377  90.3442192  76.5571928  37.8039527
  91.1460686  77.0686388  37.9121137  90.3604603  76.2770081  36.8888211
  93.8731766  69.4284344  81.8789005  94.4544697  69.2020273  81.1528969
  93.1854630  69.9601746  81.4782238 109.5264340  80.1477325   7.1795293
 109.9615098  80.8756435   7.6234742 110.2309800  79.5289696   6.9872018
  38.7858669  87.6856136  62.8048801  38.9359943  88.4836864  62.2981644
  39.6082679  87.5406933  63.2727385 106.4891911  90.8172226  75.5366039
 106.0164833  89.9992275  75.3827477 107.1466255  90.5936527  76.1954117
  71.0203363  24.6595514  12.8880807  70.9126855  25.3026331  12.1873018
  70.1346208  24.3377722  13.0560037  58.9766789  16.6207159   6.3389322
  59.5985509  15.9476650   6.0623380  59.4058896  17.0549763   7.0761033
  30.3297993  30.6116876  80.3063679  30.0894924  31.5273866  80.1650810
  31.2811657  30.6270989  80.4108143  90.9307575  80.3779984  86.1877346
  90.3751278  79.8412657  85.6225586  91.3247395  79.7546625  86.7980289
 110.7893181  69.8425341  81.3451004 110.5029774  69.3718624  82.1278572
 111.7415237  69.8911619  81.4297771  75.0311470 101.6870117  71.1223650
  74.6422386 102.5564575  71.0273361  75.2577829 101.6261196  72.0503521
  57.2000695  41.8657482  17.0595571  57.3549939  42.7172935  17.4683305
  57.6734639  41.2446773  17.6130983  66.5098859  39.2871559  13.3930799
  67.3633863  39.5630253  13.0588933  66.2301541  40.0068558  13.9587709
 110.6968212  82.2588539  73.4402084 110.2282047  81.7407703  74.0945959
 111.2318707  81.6209221  72.9679775  23.9306117  -0.2312004   8.1145879
  23.1044627  -0.0369608   8.5572931  24.4671727   0.5487955   8.2557889
  83.5946179  22.1098507  15.4376622  84.1920186  21.7619837  16.0997316
  84.1645623  22.5571716  14.8121282   4.6413470  54.6183670  13.5098954
   5.2163173  54.9940002  12.8431531   4.9922944  53.7409199  13.6620542
   7.2856418  68.0849552  66.2806988   8.0394641  67.5709295  65.9912682
   7.3480312  68.9015007  65.7851171  11.9384433  27.4523294   0.9740564
  11.7971374  27.2162617   1.8908616  11.0824681  27.3353136   0.5619260
 108.6135006  74.3478537  71.1382246 108.3064270  73.7726784  71.8390179
 109.3027306  73.8469744  70.7019854  97.9043007  28.0276132  85.4716206
  97.2047710  28.6546230  85.6553459  97.5859356  27.2006965  85.8336735
   8.1872074  53.8640642  80.6125927   8.5897628  53.5270977  79.8121977
   8.6140529  53.3782053  81.3182640  16.3611785  71.6928768  84.9312115
  16.5814296  71.1723185  84.1587257  15.6289665  72.2413445  84.6496391
  48.6616040  22.8095949   2.8612443  48.5075379  22.5692118   1.9476243
  47.8893663  23.3182323   3.1085798  89.7707081 104.7854996  72.5965118
  89.5394230 104.2366791  73.3458710  89.1856861 105.5402184  72.6627493
  96.2898731  82.6752090  90.0588131  97.1353436  82.2705269  89.8648357
  95.7930279  81.9896698  90.5053806  77.6744271  38.8382805   5.9415456
  77.2636796  39.5452869   5.4438993  76.9808198  38.5163010   6.5172788
  22.6409141  61.0804844  63.6517715  22.9978649  60.4302740  63.0467558
  22.0465747  60.5836201  64.2140245  63.5777665  13.0671585  29.9266168
  63.5728456  12.4778593  29.1723367  63.0937005  13.8383091  29.6312448
  81.5027046  26.1067057  87.9437733  80.7470036  26.5218353  88.3594799
  82.2111607  26.2074947  88.5795021  32.9313561  34.2593392  66.1717367
  33.4677597  33.8978394  65.4661703  32.3061463  34.8322877  65.7278013
  84.9429417  80.4632854  77.8714275  84.7895908  79.7456121  78.4859705
  84.5866585  81.2353134  78.3110523  53.3113671  23.6379993  23.5657808
  53.5597421  23.0361355  24.2674276  52.4146367  23.8966835  23.7783643
  68.8823892  43.5372818   1.1130544  69.6696282  44.0611065   0.9643861
  68.2359315  43.8991249   0.5069276  72.9440023  31.5976036   1.3261815
  73.4245874  31.5443504   2.1522733  73.4346677  31.0351074   0.7269403
 106.3248830  15.9210881  60.8476925 106.8362908  15.1558789  61.1106491
 106.8531613  16.6693124  61.1257553   0.4016296  57.9680252  29.8565745
  -0.4565056  57.8026724  30.2470922   0.9832279  57.3367786  30.2802491
  57.7398873  36.0549057   2.0791837  57.5423623  35.3134334   2.6514074
  58.6511708  35.9205044   1.8189451 106.0848427  96.6320038  75.7983017
 105.3809834  96.6787434  76.4453220 106.0383892  95.7385540  75.4579735
 108.5449123  82.1016216  88.2169533 108.2108212  81.3031578  88.6256981
 108.0742645  82.1600533  87.3855114  49.9167825  45.0193394  14.5708581
  48.9924432  44.8223961  14.7226735  50.3561402  44.1714180  14.6358320
  32.7719399   1.4396295  62.1142244  33.1251427   2.3119935  61.9396639
  32.4244210   1.4956387  63.0043507 100.0091362  98.5852051  83.6005592
 100.1000786  99.4765759  83.9373493 100.3836727  98.0310726  84.2853260
  50.3860093  62.3718536   8.1276914  50.0151731  61.8364132   7.4262544
  49.6916486  62.4201095   8.7847825  62.3464490   5.0933874  12.8565332
  62.0249463   4.6036327  12.0995542  61.9913865   5.9746302  12.7400419
   5.4824439  64.9570656  76.8896151   5.9859363  64.2808199  77.3428440
   4.9689857  65.3765106  77.5800180  84.8069763  63.7035275  74.8022270
  84.9211597  64.1698933  75.6302977  85.2346325  62.8586912  74.9422026
  99.9242878 101.3438416  84.0484715  99.3795490 101.9227886  84.5816898
 100.6688595 101.8868256  83.7896156 102.1954727  97.8488064  71.4648581
 102.1823692  97.8427601  72.4219513 103.0992413  97.6315403  71.2363243
  36.3730861  48.9166820  11.8291875  35.9155036  49.2454994  12.6029607
  37.2201587  49.3621719  11.8445131   1.9574443  74.1586494  85.0388050
   2.4781696  73.3715582  84.8789024   1.1129085  73.8288450  85.3457546
  69.3788720  37.3219097  22.5628492  69.3703462  37.8169334  23.3820649
  68.4542943  37.1917713  22.3520204  69.7853757  70.3959549   0.9668371
  70.1281072  69.5920933   0.5762121  70.2279092  71.1001099   0.4929563
  43.4878827   2.9233730  28.8053247  43.9695359   3.2482374  29.5660421
  43.3254624   3.7027824  28.2739374 109.3022728  57.5927877  51.1327457
 109.8213768  58.1552792  51.7075157 109.5363522  57.8732395  50.2479982
  92.5918674  81.1303902  83.6130810  91.7351341  81.2229919  84.0298271
  92.7709866  80.1904869  83.6400414  85.1758194  61.6735697  70.6695795
  86.0763454  61.3826370  70.8132219  84.9732304  61.3937569  69.7768927
  74.0300561  18.8288105   4.7361871  74.3892194  19.5427168   5.2630349
  74.7764207  18.2518423   4.5740434 110.6701088  93.2652473  74.5724487
 111.5361023  93.6351395  74.7441244 110.1154518  93.6220264  75.2661991
  60.7534500   5.5276021  54.1529322  60.1626202   5.5230912  53.3998537
  61.6184994   5.6923016  53.7776947  55.4828645   7.1875847  12.0612737
  55.0960733   7.9498899  11.6305562  54.7322560   6.6835773  12.3755857
  73.5976602  24.3236673   2.2993490  73.7926389  24.9021614   1.5620824
  73.5932637  23.4449900   1.9196912  91.1508943  51.0014522  13.2483407
  90.7074452  51.7170227  13.7039110  91.6311742  51.4298046  12.5397703
  12.0283309  84.3512535  66.2297392  12.5692359  84.3607903  67.0194006
  11.4188186  83.6258221  66.3656807   6.3531872   0.7505425  85.7452106
   5.5174586   1.0957631  86.0592270   6.9739910   0.9525880  86.4452267
  58.5445119   1.5813339  32.3299142  58.7420178   0.6526459  32.2084256
  58.3759500   1.9079721  31.4461061 105.6862640  58.3140612  63.0827951
 106.5434265  58.6574364  63.3349800 105.6301594  57.4647903  63.5207653
   5.8051578  71.2552118  88.7983990   5.7364360  71.8822813  89.5183277
   6.1618129  70.4643536  89.2028522  70.1862622  55.0446690  15.8581182
  70.6621648  55.6090534  15.2488538  70.0849248  55.5762470  16.6476747
   9.3120090  66.4098692  64.7493839  10.2398483  66.1758852  64.7736120
   9.1454307  66.6343641  63.8339138  32.1324059   5.3592214  75.9223175
  31.2448307   5.7165822  75.9495592  32.6896473   6.1156472  75.7392120
  88.0656724   1.4836606  88.9875221  88.2445817   0.5594644  88.8140774
  88.5367589   1.6705235  89.7995472  13.7771598  79.8730183  77.1735859
  13.6315528  79.1740561  76.5360260  13.2032863  80.5830288  76.8858480
  59.8918725  25.9438837   9.8155614  59.4898988  25.3057135  10.4049512
  60.7946492  25.6419218   9.7153398  26.8133446  22.8144177  90.4110813
  26.3483330  22.2033795  89.8395729  26.9730564  23.5818681  89.8617649
  36.4751626  28.6526573  18.1877252  37.3968316  28.8611687  18.3403035
  36.1610557  28.3249271  19.0304395  93.8125516   6.9228733  20.1980897
  93.2376576   6.8015516  19.4424363  94.2106534   7.7824343  20.0605985
 104.2734147  30.7177246   2.5038358 103.5850144  30.2621258   2.9883596
 104.8706914  31.0375488   3.1800004  34.3555881  47.5868500   0.2349588
  33.3986856  47.5910080   0.2113077  34.5727588  47.1695030   1.0685655
   9.4255058  61.8705606  81.8124008   8.8870899  62.5346327  81.3818836
   8.8069717  61.3668013  82.3414326  88.9962959  99.2335510  81.7583179
  89.4852734 100.0232029  81.9898033  89.6607113  98.6283588  81.4288998
  95.4257298 102.0405293  69.6126747  95.9681225 102.4096584  68.9156914
  95.2788639 101.1328506  69.3465996  68.5524178  71.1426544  72.2370911
  67.9344034  71.6085815  72.8003025  68.8586235  71.8052578  71.6178799
  88.2347298  75.3135014  58.5322809  87.9183674  76.1226368  58.9340830
  88.7849998  75.6060839  57.8057623  99.9701405  73.9678240  88.2709312
  99.0708637  74.0668488  87.9583168  99.8834419  73.5171080  89.1109180
 105.5663776  68.3799076  36.2967157 104.6593189  68.5555506  36.0464764
 105.7508564  69.0142345  36.9894123  24.8260399   1.5528592  50.0381899
  25.1743790   0.8051785  49.5525265  25.4622456   1.7014893  50.7377481
  91.2947179  30.7051170  18.0493566  91.3056851  29.8282707  18.4331056
  92.1948339  30.8502853  17.7579137  13.3480168  61.0332382  29.3048211
  13.1587125  61.9234741  29.0083906  14.0606023  60.7384289  28.7377759
  60.6230546  22.3488462   6.7961332  61.2797833  22.0583332   6.1632558
  60.7418443  23.2973230   6.8462774   9.9271103   0.4462155  85.7101631
  10.4066082  -0.2125445  85.2078247  10.5702397   1.1353311  85.8767414
  27.8411952  93.8821888  84.1376305  28.2120410  94.4963169  83.5039520
  28.0160610  93.0182457  83.7644577  31.3861457  63.0758429  43.0567932
  30.9111396  63.0313635  43.8866282  32.2950546  63.2379103  43.3094788
  89.7645283  22.0656157  71.3475132  90.1191521  22.9542041  71.3772345
  90.5239773  21.4998651  71.4867783 107.1978167  96.9204596  67.8970289
 107.1757630  97.5854627  68.5851526 107.2798828  96.0911540  68.3679295
  42.3786683  54.3465034  58.3161068  42.9209514  55.0415221  57.9431343
  41.6382117  54.8065463  58.7114859  94.7830872  56.8900196   3.2615110
  94.2880540  56.0730658   3.2001993  95.5516724  56.6655568   3.7860414
   1.7918534  68.7867561  67.1615362   1.7699905  67.8684417  66.8923712
   2.7083583  69.0440098  67.0611620  84.0086756 102.3746628  70.8752489
  83.1670294 102.0762068  70.5305958  84.0467361 103.3026943  70.6438637
  33.2145214  16.3329089  72.7218676  33.1501436  17.0341039  73.3702612
  32.8570080  15.5634236  73.1649351  86.0054831  55.2634458   5.4865094
  86.8503909  55.5753178   5.8107110  85.9041266  55.6883166   4.6347829
  15.7270141  70.5732123  75.1533985  15.3026385  69.8018256  74.7777653
  15.7996030  70.3757611  76.0871935 101.2379769  64.1398135  83.2136631
 101.9848517  64.7037021  83.4147549 100.7941893  64.0215484  84.0534782
  54.6223159  96.4382211  59.4569588  54.9336620  97.3021922  59.7268629
  53.7810321  96.6083965  59.0332699  43.0614519  18.3460104  43.0806398
  43.0350018  17.4884474  43.5050440  42.9870701  18.1531119  42.1460342
  52.6870341  94.2450229  70.7434988  52.1968074  95.0024209  70.4237175
  52.1137901  93.8482193  71.3993740   5.1696342  10.1601374  66.7731571
   5.4516238   9.2846769  67.0382643   4.2985952  10.0281048  66.3988686
  86.8145041  48.3732177   1.7161676  85.9004979  48.1124894   1.6028425
  86.8530373  49.2662618   1.3737890  44.4361179  68.6026136  10.3042432
  43.6367516  68.7489501   9.7984430  44.3417142  69.1685370  11.0704347
  82.1644878   7.0558923  40.8283329  82.5562477   6.5529227  40.1143456
  82.4299049   7.9597157  40.6583643  13.5682864  94.0021721  74.7482109
  14.1239114  93.3489207  75.1733828  12.7742477  94.0253321  75.2822495
  49.4126272  24.6304488  58.9668798  49.6283340  24.3403482  58.0805731
  50.2178669  24.4941902  59.4661283  40.4191971  23.4839606  66.2942839
  40.1336288  22.7749586  65.7180929  41.1201715  23.9192605  65.8091259
  86.0597134  24.5576072  75.1049519  85.5282116  25.3076530  74.8381662
  86.9286633  24.7406054  74.7476339 100.7472329  38.0811910  18.3582898
 101.1527448  38.8211266  17.9063054 101.2491660  37.9910854  19.1683313
  63.0058698  33.2515112  13.5791799  63.2308297  33.6158649  12.7231046
  62.0490484  33.2250694  13.5843011  51.0104513   7.6081395  56.7107868
  51.3662910   7.3552537  57.5626421  51.7057800   8.1258118  56.3048792
  54.4808860 103.0692834  67.5778246  54.6867652 103.4971621  68.4089470
  55.1653476 103.3675893  66.9788551  92.7907276   0.3633054  34.3827891
  93.5769272   0.8725262  34.1857672  92.2996807   0.9089153  34.9971342
  95.8250332   9.7633457  53.9367771  96.1337280   9.9503934  54.8233175
  95.9854889   8.8269597  53.8198709  97.7976704  36.1219978  27.7930164
  98.2580376  35.7929850  28.5650587  97.0763111  36.6417003  28.1476760
  30.0048661   2.1292296  87.6806259  29.7765112   1.9615400  86.7663193
  30.6252480   2.8571954  87.6429176  18.1759572  24.0428257  33.7995219
  18.5547888  24.6426702  34.4421005  17.8231990  23.3230138  34.3226504
  45.4942846  33.7950897  44.7701120  46.2925100  33.9981508  44.2824268
  44.7831059  34.0492511  44.1820145  57.9396915  13.1885219  64.6038961
  58.4396839  13.6388004  65.2846956  58.2077169  13.6135542  63.7891912
  95.5607514  31.2084631   2.3972246  95.9050994  31.0772542   3.2806512
  94.6238952  31.0287551   2.4761888   7.4464794  92.0077900  30.7306691
   7.0345112  91.5607838  31.4700528   7.5504490  92.9125051  31.0254785
  42.6842785  18.8164330  79.3706131  43.2873297  19.0486336  78.6644650
  43.2436562  18.7203467  80.1413918  73.0720186  28.2368231  54.3427610
  73.2000780  27.3194766  54.1012907  73.9349413  28.6361718  54.2326927
  42.3294301  91.6180805  72.2039890  41.8809123  92.3720709  71.8211555
  41.6497894  90.9483567  72.2800732  53.0221934  90.6689623  88.5713482
  53.2760902  90.2656022  87.7412510  52.0694156  90.5811552  88.5987854
  81.8299389  15.5405605  61.7099905  81.1862946  15.4245496  61.0110664
  82.3150253  16.3271916  61.4607191  64.9262953  18.2675064  89.8118114
  64.6138716  18.8782597  90.4793453  64.9047947  17.4121439  90.2409172
  16.2238164  98.1812111  57.5513792  16.8997474  98.6654696  58.0255651
  15.4042096  98.6089537  57.7993870  42.3184962  95.1477150  34.3944979
  42.5123115  95.1677040  35.3316593  42.6151033  94.2842523  34.1069412
  48.2344723   2.7149093  68.9878988  48.7226486   3.5033211  68.7505770
  47.3156738   2.9795462  68.9430857  57.0149708  21.9904208  76.4199305
  56.2923861  22.6180530  76.4064693  56.5891123  21.1364675  76.4950180
  19.7234722 104.3340520   0.3373929  19.5565697 104.9910478  -0.3384188
  19.3505379 104.7103909   1.1345884  97.7735996   2.4041946  50.2045679
  98.6905193   2.6709473  50.2703714  97.7766037   1.4763767  50.4398918
  62.2378726  94.4235436  45.6255579  62.9241748  93.9180521  46.0611010
  62.2791858  95.2871266  46.0363483  61.6180511 104.8082791  20.5382371
  61.0711188 104.0627854  20.7858968  62.2609611 104.4423357  19.9308038
  72.0333767  18.2673085  71.4933634  71.6026449  18.3272707  72.3460722
  71.5800238  17.5529301  71.0457373  83.4446907  10.4328442  82.8322124
  84.2835236  10.8046782  83.1048584  83.3706665   9.6184576  83.3297348
  77.3392062  49.1412512   9.8042032  77.4372105  48.6289627   9.0015813
  77.8801827  49.9177016   9.6603128  80.7950111  96.9913033  69.6944475
  81.4038463  97.0937542  68.9629745  79.9317546  96.9475875  69.2832232
  66.8454599  12.3537004  67.9396296  66.2655163  12.4578691  67.1852732
  66.6721535  11.4664567  68.2542610  85.3103452  32.6213364  23.9746305
  85.4855828  32.6799528  24.9138280  86.1392836  32.3311881  23.5939714
  76.9962597  10.7063675  65.3557396  77.5521421  10.3782034  66.0625172
  77.2140503  11.6362691  65.2918339  33.1413078   2.1628186  33.4997106
  33.8531828   2.5592706  32.9974270  33.3090925   2.4286960  34.4038057
  97.0193481  22.4256301  31.1500359  97.8947639  22.7232623  31.3975883
  97.1711540  21.7922115  30.4486322  17.2879739  88.4532014  69.2057562
  16.9732948  88.0108086  68.4174013  17.2751517  89.3832544  68.9797735
  91.5565300  33.0426717  54.6751833  91.3061714  33.3359194  53.7990808
  90.7503605  32.6855135  55.0476933  63.7972212  26.2727165  75.2546883
  63.6011934  26.5473747  76.1504364  64.4464922  25.5764723  75.3543186
  64.6630335  34.2574310  70.0933218  65.4646969  33.7542510  69.9505806
  64.5489502  34.2616868  71.0436916  51.1539793  28.4384584  60.5568504
  50.4052114  28.4273148  59.9606514  51.3878918  27.5165844  60.6648493
  56.1940284  84.9359993  61.3597822  56.6580482  84.4614569  60.6700516
  55.6472488  85.5662564  60.8907080  56.8995953  24.4911933  68.8197374
  57.5359392  24.4730330  69.5345592  56.7118788  23.5694265  68.6427021
  13.8578792 102.7538540  81.7835236  14.4153161 102.0378450  82.0882130
  13.8056321 103.3509484  82.5298405  64.7698069  16.4258575  33.1327844
  64.6046925  15.7882428  32.4382210  65.7199144  16.5421200  33.1302667
  50.5098867   5.2082610  72.1924210  50.6685781   5.7363355  72.9748440
  50.1032877   4.4070828  72.5226068  90.5685329   2.2257757  64.7224474
  91.0473442   1.4245749  64.5101929  90.1544952   2.0411460  65.5654812
   1.2746234 101.9444755  76.7196894   1.4374609 102.6418296  77.3548365
   1.3210268 101.1376682  77.2326612  39.3235202  66.6046372  85.2683640
  40.1016565  66.2179128  85.6698322  39.5705218  66.7456523  84.3543911
  56.7023277   5.5689627  37.0671105  57.0440817   5.0418085  36.3449287
  57.4551058   6.0765433  37.3702931  68.0989456  19.8722422  42.4774027
  68.2297850  19.0412343  42.9340649  67.2812748  19.7537792  41.9940662
  52.6092906  99.9530298  83.1162834  51.9887824  99.4732550  82.5676346
  52.0589633 100.4599593  83.7132740  83.8446288  50.4328314  23.6461278
  83.4961800  51.3089258  23.4809800  84.1266541  50.1212042  22.7861425
 107.9042053   9.0779680  69.0078259 107.7111435   9.5657355  69.8084784
 107.0824146   9.0881532  68.5171223  67.8451157  20.0921702  72.8856850
  67.9311514  19.8738587  71.9576931  68.7441015  20.2319312  73.1832027
  35.7745644  51.5233143   4.8507139  35.6915184  51.0439783   5.6750795
  35.3487297  50.9616267   4.2031022  58.1626511   7.1817946  48.2310247
  58.6607504   6.6897857  48.8837528  57.4405289   7.5710368  48.7242460
  44.0974712  33.3868051  78.9495564  43.4380770  33.2285166  78.2740021
  44.3337059  32.5137424  79.2629004  72.6469231  15.4619586  57.3133278
  73.0899525  14.9916935  56.6070652  71.7782354  15.0625432  57.3589706
  20.1566788  66.4043573   3.3763620  20.9159943  66.3243298   2.7990648
  20.5302616  66.4794437   4.2544481  83.7208419   8.7444667  15.5712911
  82.9915242   8.4836034  16.1336728  83.5485606   8.3072213  14.7373983
  83.3448887  18.0584085  73.1133890  83.2429886  17.8969991  72.1754169
  84.1306782  18.6010528  73.1790638  57.9306650  18.8889325  60.0215816
  57.1239376  19.1175318  59.5598841  57.7256632  18.0685759  60.4701567
   1.9872208  96.6140256  67.0244741   1.7064662  95.7097331  66.8842506
   2.2723003  96.9129417  66.1609888   4.2660613  93.5689059  56.7651272
   5.2055354  93.4533290  56.6227818   3.8536067  92.9952553  56.1193371
  65.6515074  30.6826878  60.2495813  64.9746180  31.2925410  60.5430698
  65.2487659  30.2104330  59.5208836  10.5396267  52.3292341  22.6521131
  10.4853626  51.3739346  22.6783964  10.7186981  52.5338042  21.7343351
  99.1093445   7.5043803  72.8031301  98.5603619   8.2878703  72.8346968
  98.4906769   6.7760581  72.8582191  81.8488121  21.1918926  81.0869408
  80.9119511  21.3573241  80.9812641  81.9968700  20.3587484  80.6395245
 100.3719572  83.1949726  85.5033302 100.3530887  82.3102203  85.8681393
 101.2991599  83.3663837  85.3385639  72.1849585  17.2274232  59.2065859
  72.6258945  16.7571878  58.4989929  72.1865892  16.6125786  59.9402046
  24.6081920  90.7740489  90.5251884  24.0846105  90.8047346  89.7244740
  25.5106969  90.6880263  90.2180767   2.9304118  80.6230227  65.1828241
   2.2362275  80.1950232  64.6816635   3.7294955  80.4422060  64.6878481
  54.6005392  11.1654353  90.3484058  55.3401470  11.3020086  89.7563267
  54.8271084  10.3734899  90.8359718 111.1122804  35.0395135   4.7403356
 111.2880997  35.9229759   4.4165918 110.9046988  35.1608423   5.6668493
   3.3917947  91.8341998  54.2626143   3.7838502  90.9704236  54.3907404
   3.5699983  92.0445314  53.3459711  17.8512235  84.4461075  55.0724220
  17.4539371  83.6270038  54.7766829  17.1436734  85.0885478  55.0187826
  88.6102252  74.6229295   4.9719449  87.8660970  74.1271333   5.3135320
  88.2193284  75.2601508   4.3741247  95.1700687   3.3755898  43.6385059
  94.4738579   3.9995575  43.8439083  95.7771015   3.4428605  44.3755388
  69.1819191  20.5109644  49.5318365  69.8157835  19.8142016  49.3616343
  68.9505911  20.4041743  50.4545021  33.7250566   2.5951079  86.4031506
  33.2026291   2.5601599  85.6018543  34.6284080   2.4890421  86.1049271
  49.7551823   7.2435427  82.6985645  49.6890688   6.3846803  82.2811699
  48.8593578   7.4497473  82.9654121  77.0786285   5.2767420  86.6654205
  76.6093397   5.6193882  85.9047699  77.2092533   4.3491900  86.4684105
  86.2076950   6.0723889  73.5495520  86.6102695   5.2105528  73.6563587
  86.7365456   6.6532195  74.0965319 109.2100576  97.4072770  86.7885113
 109.2496399  96.4707950  86.5944386 109.2845444  97.8323064  85.9340954
  60.4252481  49.2772722  79.4219017  60.6997776  48.4475994  79.8124218
  59.7174501  49.5857096  79.9876928  95.0158744  83.2738856   1.8874284
  95.9419112  83.4524850   1.7237397  94.7009330  84.0491561   2.3521825
  77.6835442   0.8554482  52.2492361  78.5720730   0.7186529  52.5779295
  77.2636700  -0.0009148  52.3303556  49.2726469  16.0063577  62.3497725
  49.2884684  16.7682266  61.7705154  48.6519575  15.4052114  61.9379473
  95.5097202 101.7774186  79.1238403  94.8511342 102.0526356  79.7616100
  95.2627805 100.8810839  78.8961649  19.9495645 104.4335630  54.3304634
  19.5543714 105.2441563  54.6513844  19.6806474 104.3827703  53.4132195
  55.6992912  32.8614116  75.6985521  55.0266171  33.2745218  76.2399244
  55.2194357  32.2347021  75.1570654  77.9014869  91.9264022  43.3966303
  78.7222095  92.4130872  43.3205414  77.2232242  92.5645176  43.1752729
  41.0376358  16.5574205  53.8787174  40.6498575  16.2839794  53.0473995
  40.8276796  15.8478117  54.4858456  93.8362217   5.2666229  53.2316494
  94.5985794   4.7028661  53.1004477  93.0921745   4.6645373  53.2427692
  99.1229110  49.0306661   1.2377092  99.8585086  49.0875862   0.6278917
  99.5246510  48.8077531   2.0774480   3.9207312  35.8516649  15.4023477
   3.7084194  34.9301568  15.2540990   3.5860869  36.3022939  14.6269914
 107.9352096  99.5294747  88.0623817 108.3391551  98.6619392  88.0413437
 108.6071852 100.1150880  87.7134609 109.0344291  51.3681360   2.6445600
 108.4357171  50.9750729   3.2796022 109.2292886  52.2339670   3.0031606
  57.1660900  30.2344131  76.2624502  56.8504715  30.6247568  77.0774603
  56.6606569  30.6705976  75.5765104  72.5167561   7.2081512  51.9279814
  72.8781176   7.4864036  51.0864210  71.9552565   7.9342985  52.1993923
  67.6077890  26.3520885  52.1931362  67.0575809  25.7069254  51.7489910
  68.1422424  25.8361030  52.7967501  65.8001089   8.4549218  88.7263107
  65.7289886   7.5007159  88.7005424  65.5005455   8.7408137  87.8633118
  90.2662139  53.2025483  23.9992544  90.1986937  53.9300311  23.3808347
  89.3694072  52.8800568  24.0885278  10.3709598  86.4922980  88.7667274
   9.6858020  86.3210217  88.1206226  10.6135841  85.6260851  89.0938950
  69.9062634  31.6654682  80.9098625  70.0688171  32.5706506  81.1752892
  70.2546501  31.6105628  80.0200081  78.9911413   6.1892939  50.2700949
  79.2610979   6.9879955  50.7233381  78.3251953   5.8041257  50.8396482
  60.9446044 100.8288172  66.1681986  60.6256576 100.1576740  66.7715788
  61.8982024 100.7670576  66.2236166  70.5477571   3.4617838  56.6019201
  71.0649824   4.2621812  56.5120840  71.0971642   2.8791714  57.1262741
  39.0755963   9.6477950  43.0188513  38.3487511  10.1514757  42.6524687
  38.6982369   9.1979629  43.7748146  33.3011432  92.9133085  55.1906681
  32.7645297  93.5454360  55.6688881  33.7733836  92.4356178  55.8726025
  49.0809250  18.2390583  45.5426979  48.6338520  18.5086119  44.7403908
  49.2348433  19.0560210  46.0171604  57.2472954  25.5946994  87.5953484
  57.2880363  24.8424244  88.1858158  56.6711712  25.3110933  86.8855095
  41.1906619  65.8484284  51.2208080  42.1289439  65.7582155  51.3873196
  40.8181853  65.0079719  51.4874983  25.4940028 103.7305127  46.2748861
  25.4715438 104.0027775  47.1922731  26.4036937 103.4741392  46.1233377
  66.1525659  60.9021703  16.6556665  65.9995680  61.0611800  15.7242509
  65.3142218  61.0997514  17.0732518  16.9097610  85.8874539  67.5847673
  17.4578996  85.2518145  68.0449200  17.4978776  86.2950138  66.9489622
  22.0000359  65.0568191  11.1866304  22.7847382  65.0067727  11.7324945
  21.3874718  65.5875269  11.6958925  56.6683102  33.0790544  81.0152817
  56.8876982  32.8869128  81.9269753  57.4372005  33.5366678  80.6752396
  85.5981831  56.4214961   2.9179689  84.7930102  56.5387858   2.4138089
  86.2802605  56.3057477   2.2564527  81.5185452   3.0122158  53.0408907
  81.2321091   3.1904006  52.1450996  80.9348011   3.5377020  53.5880089
  50.4269309  88.7436572  36.2362337  50.9313007  88.2170573  35.6161261
  50.6963821  89.6450189  36.0596609  36.6501117  23.4567022  76.1341619
  36.5711880  22.5058556  76.0574007  36.1336446  23.6781287  76.9090557
  44.4777475  56.4440338  18.2303354  44.7484760  57.2207410  17.7407857
  45.2964364  55.9916768  18.4336969  54.5847411  82.0238105   7.3416412
  53.9260860  82.6933042   7.1567374  54.8754687  82.2137443   8.2336241
  81.5316105   2.0536576  70.8521414  81.5544605   1.1347851  70.5849648
  81.5024185   2.5417086  70.0292301   2.4472065 103.3769238  49.0157318
   2.5420852 103.2769098  49.9629545   2.6296086 104.3024113  48.8531446
  33.8050265 104.0522106  48.9097214  33.4892125 104.9107139  49.1916227
  34.3766112 103.7620125  49.6205711  57.2017431  19.8776650  70.0833654
  57.3014688  18.9638758  69.8163939  56.7050838  19.8356056  70.9005547
  35.2102208   5.3693014  81.8681049  34.8509407   4.6320161  81.3745785
  36.1551237   5.3156775  81.7248726  51.0397959  13.6189651  71.4411640
  50.7978964  14.2305839  70.7457256  50.2088118  13.3866513  71.8555641
  81.1787415  15.5609655  75.8627844  81.5404987  14.6903169  75.6974459
  81.9341564  16.1469901  75.8162832  74.9840927  18.6836946  68.7653732
  74.0434694  18.5266733  68.8478279  75.0488615  19.4750440  68.2307673
  61.0012436  32.8337193  53.4314299  61.2586594  33.1594610  52.5689554
  60.3378057  33.4540558  53.7335300   8.3084007  78.8365034  -0.2277545
   7.6564022  79.4860271   0.0354120   9.0911099  79.0663270   0.2730295
  89.2525387   1.6641629  82.5024414  88.7796307   0.9183452  82.1331882
  88.9232540   1.7368166  83.3982849  52.8320265   3.3352584  44.7169971
  52.1417999   3.3169183  44.0540600  53.1958055   4.2187771  44.6596289
  67.8690386   9.1509372  53.2485676  68.2234049   9.1483217  54.1377544
  67.2014809   9.8368621  53.2587910  60.0230217  29.4107151  50.3964138
  60.5647182  29.7613215  49.6893930  60.0791836  30.0682378  51.0897684
  55.5209684   9.4730359  69.0851021  54.6080065   9.4644034  69.3726110
  55.5143404   9.9942791  68.2822990  79.4362497  26.1051559  39.4127941
  79.7246265  26.9927144  39.1999388  80.1293659  25.5398726  39.0718007
  82.7370167  14.9107480  58.9841175  82.1887493  15.6552160  58.7363338
  82.1339130  14.2992961  59.4067526  83.9464188   9.4135028  78.7932301
  83.5402489   8.6967862  79.2806435  84.5697880   9.7988665  79.4089794
  68.6336374   8.2903486  30.6818151  68.1353664   7.4816418  30.7999134
  68.4701347   8.7912786  31.4809179  75.9155703  15.2457690  57.6248455
  75.4977608  15.3449023  58.4803247  75.6900740  14.3571329  57.3496962
  91.4285564  28.4004641  43.9980602  90.5462360  28.2969975  44.3544912
  91.9847012  27.8844953  44.5817661  96.8274593  26.5226316  87.9675674
  97.3487473  27.2813058  88.2300568  95.9202290  26.8199921  88.0364227
  66.8364716   4.3196329  47.8014660  66.4137936   4.3691653  46.9440746
  66.5211010   5.0930512  48.2690096   0.7213012  37.1651697  39.6950889
   0.9730808  37.8656864  39.0933299   0.8178798  37.5510669  40.5657148
   7.0959660  73.2517723   0.1539251   6.7486855  74.1107015   0.3944894
   8.0111405  73.4181336  -0.0719336  66.7041497  74.0279011   9.4315740
  67.0986895  73.3006505   9.9128934  66.8246488  73.7986378   8.5100766
  79.5322657  15.1541841  52.8048944  78.7683296  15.1612556  53.3815908
  80.2624989  15.4027784  53.3716345  90.3423119   9.7170013  62.7401447
  89.4399929   9.4416934  62.5780964  90.8607197   9.2258340  62.1027756
  65.1538654  79.7006861  63.1166983  65.2564044  80.5894366  63.4570551
  64.4837375  79.3062726  63.6749077  60.1033497  16.5169024  71.2205648
  60.2230215  15.5736554  71.1101246  59.4725990  16.7593110  70.5426121
  86.3597870  15.3071451  79.2685556  85.5575371  14.8259592  79.0658760
  86.1906433  16.1965322  78.9577341  73.4998798  31.3267255  18.3620703
  73.6431885  30.4076004  18.1364465  74.1177464  31.4980292  19.0727949
  92.9490376  18.8646746  53.2312870  92.2998810  18.3028603  53.6545897
  93.0900669  18.4636211  52.3736715  29.0803862  25.6263757  57.2712088
  28.7596297  26.5134144  57.1083879  28.6054778  25.3393555  58.0511522
  99.3969631   1.0430025  60.9745550  99.9525642   0.2815841  61.1412477
  98.5670280   0.6727117  60.6740189  91.9243336   2.8134903  57.7434349
  92.5636482   2.5794533  57.0705748  92.4335670   3.2813561  58.4052658
  68.0999374  23.0308342  81.9487858  67.4430418  22.6659155  82.5417137
  68.5060215  23.7393665  82.4480915   5.8722583  40.3870583  85.2123165
   5.7318012  39.6789598  84.5837498   5.8931343  39.9506617  86.0639954
  49.2610164 101.6628516  58.7825632  48.9536758 102.5274381  59.0550756
  48.8455768 101.5179420  57.9324818  49.8457623  39.0293670  57.1013927
  49.9915981  38.6992741  57.9879618  49.7063446  38.2434225  56.5731049
  79.4853878  19.7842801  61.4726305  78.8836241  19.7804308  62.2170067
  80.3206158  19.4929349  61.8383408  67.1835375  20.5929494  77.7626419
  66.3263416  20.8145881  78.1264019  67.5053263  19.8856807  78.3216190
 101.9023614  99.7468499  12.3383447 101.9788461  99.5739392  11.4000055
 101.3017707  99.0734462  12.6578065  73.0644798  25.3942060  54.2758608
  72.5420761  24.8963356  54.9047089  73.1312895  24.8204899  53.5125685
  75.7636738  10.2781749  74.2701054  75.4529238   9.5543063  74.8138714
  75.6227160   9.9803156  73.3714151  94.8295975   3.3772337  71.4660835
  93.8981247   3.5636652  71.5836954  95.0285244   3.6966592  70.5859518
  56.5342045  22.1273541  79.3782330  57.0775986  22.9112220  79.4588900
  55.7625723  22.4197078  78.8931131  89.2623425  21.3019347  74.4910431
  89.9475098  21.9165277  74.7538185  89.1981316  21.4063883  73.5417271
  74.3107319  34.4916749  46.1601257  74.4421148  35.3641796  45.7890368
  75.1603174  34.0609121  46.0659218  89.3298340  36.5885758  68.2949114
  88.8702869  36.5850520  69.1345787  88.8069534  36.0163641  67.7333069
  45.9463453   4.5206466  68.6649656  46.5808582   4.6685559  69.3662167
  45.1649809   4.9977410  68.9444017  47.3296447  96.0087708  40.7649851
  47.9355235  96.1949775  40.0477219  47.7082343  95.2489117  41.2071514
  11.4647476  27.7119875  17.6557100  10.9281722  26.9376945  17.4860311
  11.5754882  28.1195736  16.7967319 111.0871124  39.7338009  50.0228882
 110.8111286  39.2788482  49.2272234 110.8490467  40.6483412  49.8706770
  21.6378637 101.0970068  75.3742599  20.9978862 101.7667181  75.1331329
  21.6619296 100.5065564  74.6212530  26.2141795  84.0376917  81.1442471
  25.6376596  84.1635791  80.3905773  27.0822234  83.9069978  80.7625961
  75.9317112   5.4630315  47.5306797  75.9555149   4.5112666  47.6297188
  75.0184393   5.6593347  47.3218060 100.7028294   5.8149368  66.2177896
 100.8954430   6.7091477  66.4997816 100.3606796   5.9124810  65.3291655
  24.1760726  66.1478988  72.1065474  23.6114831  65.4440776  71.7869997
  24.6210666  65.7718602  72.8660202 109.7414164  74.8499707   2.0515844
 110.1716475  74.0638188   1.7152807 109.3417840  74.5705394   2.8752633
  20.6996865  99.9904794  72.9181290  19.9821754  99.7755382  72.3221397
  20.9011645 100.9070629  72.7296782  49.0549517  18.5154009  60.9890413
  48.3796406  18.9635122  60.4797459  49.2902803  19.1391182  61.6759396
  53.5002184  20.0938725  71.2624454  54.2707968  20.0710249  71.8298292
  53.4188461  21.0124493  71.0058832 106.3513088  12.2365153  37.7086186
 106.0861492  11.9658124  38.5876203 107.0917130  11.6682696  37.4961472
 105.3325176   7.0434725  43.3556986 105.8103752   7.1472800  42.5328350
 105.3734779   6.1050195  43.5397100  69.8024845  16.5621495  66.9681835
  69.6871185  17.4538517  67.2964954  70.0921488  16.6758084  66.0629702
  96.8151188  29.1903806  78.6364889  96.7932224  29.8826361  79.2971945
  97.7467251  29.0508771  78.4665442  90.4190540  30.0980330  54.1037416
  90.0115967  29.7649312  53.3042097  89.8280716  30.7885671  54.4039679
  10.2865216  67.8186218  11.7229673  10.5704018  67.5951449  12.6093694
  10.0335594  66.9812886  11.3342305  94.2453384  26.0575557  86.1640549
  93.4228897  26.4060211  86.5081310  94.8565674  26.7924595  86.2144852
  36.6269775  89.6248356  77.5505066  35.6962819  89.4930831  77.7312899
  36.9185586  90.2348808  78.2280445  12.5809189  73.8653378   2.0243665
  11.8726250  74.4552330   2.2823926  12.1846768  73.2853726   1.3740846
  54.9844599  16.6204500  74.0878439  54.5704126  17.4221313  73.7683058
  54.2645168  16.1108088  74.4595671  12.1270609  12.2606313  66.8175316
  11.5386760  12.2245228  67.5716734  11.9306350  11.4654589  66.3222027
  90.0245571  33.5735416  45.6343222  90.0474644  34.5234156  45.5183554
  89.3158531  33.2794142  45.0620747  41.0262871  40.2370071  49.3349218
  41.4915943  40.3736830  48.5096693  40.5570316  39.4119024  49.2114973
  70.5893421  15.8235812  53.4488678  70.4353380  16.1187553  52.5514317
  70.7266092  14.8795414  53.3702707  69.2720461   9.0077239  40.7095003
  69.7117090   8.5575938  41.4308310  68.4038115   9.2189550  41.0526896
  52.7204275  28.6113644  74.0190649  52.5236845  28.2077217  73.1737280
  53.2772779  27.9733825  74.4652987  71.6482162  13.6271715  69.0425634
  72.3552704  13.6133718  68.3974934  70.8548546  13.7662470  68.5253954
 103.5535812  26.9614840  62.5382757 104.2369461  27.3872352  63.0559444
 103.9615059  26.1566234  62.2188568 105.2979469  23.1561661  38.8734722
 106.2534809  23.1796002  38.9247060 105.0960255  23.5046649  38.0051351
  89.5409107  33.7383986  52.8236675  89.3407059  33.3897042  51.9550133
  89.2180443  34.6392012  52.8004074  32.1676823  86.9592360  28.8815423
  31.2196251  87.0851473  28.9210817  32.4250504  87.3399595  28.0418702
  45.2212043 104.4081020  76.8585730  45.0886626 104.8417471  76.0155916
  44.9120898 105.0423610  77.5054121  43.1085777  39.8416328  72.7636671
  42.3569202  39.3863201  73.1430483  43.1081009  39.5789862  71.8432093
  10.7739540  82.4616341   9.0604898  10.2326866  82.9722551   8.4583780
  10.6333824  81.5523581   8.7965032  95.7423687   9.5533633  62.2869778
  96.6249084   9.2066514  62.4179316  95.8222008  10.1311755  61.5280342
  62.1337175  11.5381515  46.8602514  62.3855639  12.3811674  46.4832544
  61.2258005  11.4137852  46.5837574  50.1338720  36.1399055  65.5031538
  50.2214289  35.9480476  64.5694733  51.0134554  36.3988185  65.7779741
  47.3771758  99.7276560  46.1990929  47.9153056 100.5111936  46.0863161
  46.7681594  99.9544743  46.9018698  50.0280142  15.3126562  69.1981077
  49.5038557  15.8866394  69.7567034  49.3959522  14.6967340  68.8274765
 106.6124153   4.8281866  77.5111723 106.8912983   4.8069090  78.4265947
 106.8846130   5.6907237  77.1978521  39.9253249  11.0883510  82.3128414
  40.8259916  11.2957311  82.0637989  39.8660398  11.3453400  83.2329941
  56.2813234   4.6954918  50.1224852  56.5522766   4.1492990  50.8603811
  56.4292765   5.5926561  50.4215479  71.8932581  25.6716537  64.1898441
  71.1428690  25.3546143  64.6924686  72.3053122  24.8780560  63.8483095
  81.7791271   9.6864116  69.0554714  82.6898956   9.4484597  69.2290020
  81.4772129  10.0883591  69.8700380  73.7885757  90.5366460  76.3680172
  74.6546836  90.3538004  76.0037804  73.2296939  89.8436502  76.0163927
  85.0163937  15.5397868  60.8166456  84.4344997  15.4971659  60.0578213
  84.9106312  16.4308763  61.1498213   5.3306051  54.0383079   1.5583249
   5.8094116  53.3696625   1.0685369   5.7380863  54.0385219   2.4244615
 107.5712776   2.0074926  40.9362268 107.3290348   1.1112189  41.1691332
 108.0074310   2.3483345  41.7171431  71.1397648  18.3247054  80.3974724
  71.8574286  17.8803802  80.8488750  70.4138470  18.3016098  81.0209656
  27.4927517  98.4574536   2.1372625  26.7525288  98.9649085   2.4701139
  28.1008049  99.1146592   1.7987653  53.2757616   2.5037092  65.9379339
  53.2069540   3.1828213  66.6089821  53.8586760   1.8476254  66.3200283
  61.7743106  90.4672650  38.6812067  62.7056499  90.4385582  38.9003301
  61.4571376  91.2732652  39.0886307  93.8789463  10.3942192  84.7425079
  94.5236397  11.0727191  84.9430847  93.8891315  10.3289318  83.7875938
 101.0903358  49.7523832  84.9462605 100.2360725  50.1839828  84.9328613
 101.5122986  50.0311613  84.1335773  69.2901182   4.1869009  65.6403494
  69.7997808   4.7778207  65.0860167  69.8645115   4.0001068  66.3829184
  86.9651222   3.4998980  36.3369274  87.1300316   3.8008168  35.4433465
  86.0134220   3.5398936  36.4313245  71.2895679  28.2894754  46.0428381
  71.1468315  27.6579523  45.3378296  72.2141790  28.5258651  45.9690809
  11.5547367  53.9098930   4.8991987  10.8941933  53.4555427   4.3762418
  11.0803982  54.6341416   5.3074857   8.8206002  48.2068703   2.0389768
   8.9549156  47.7134863   1.2298032   7.8742882  48.1814767   2.1807023
  59.1041517  17.6288044  54.2471457  59.3099403  17.4415529  55.1630163
  59.1595745  16.7787635  53.8105822  52.2670841  35.7634926  61.8086672
  51.3339996  35.6525517  61.6262388  52.6179314  34.8729181  61.8124580
  90.2249908  14.3044150  86.2325764  91.0066795  14.2284942  85.6853676
  89.4949150  14.2544496  85.6155586  43.3823013  22.7045441  53.7447262
  42.8710794  23.4902573  53.5509872  42.8018904  21.9786501  53.5157490
  82.2487068  19.5715666  83.6246300  81.5301323  19.6553349  82.9978466
  82.2663403  20.4119635  84.0825081  71.7063379  12.5326991  84.5527935
  72.5511885  12.5300801  84.1028404  71.0627317  12.4124610  83.8545513
  65.1213503   9.4481784  86.1286449  65.7285547   9.6320975  85.4119015
  64.3727303   9.0270346  85.7062244  98.1322956   0.3259357  86.5442848
  97.4475861   0.9595743  86.7585373  98.6808681   0.2919354  87.3279572
  39.0532060  97.4953708  76.0676813  39.3865199  96.8751559  75.4192448
  39.7351833  98.1639180  76.1323452 103.0472946   4.3574548  89.7261143
 102.5745487   4.7379425  90.4663658 103.3763218   3.5214093  90.0562572
  68.3615780  17.4906552  44.1105461  67.6513529  16.8659198  43.9638424
  68.1662703  17.8794515  44.9631405  58.6294603  31.7972589  50.8657980
  57.8616858  32.3287177  50.6553078  58.6886215  31.8295121  51.8206215
  68.3696318  28.2684231  87.3410130  67.4863482  28.3449173  86.9801903
  68.9010811  28.8515878  86.7990685  58.5452414  18.2608485  82.1625328
  58.0141163  18.6705852  81.4797020  59.4127512  18.6516523  82.0580101
  24.7505752  23.5824966  72.7703381  24.0234748  24.1596603  72.5370073
  24.4010250  22.6987529  72.6561308  96.2916570  70.3758637  29.1268655
  96.8510585  70.1189057  29.8598501  96.7389636  71.1263434  28.7358018
  34.8740716  94.5981959  57.2080994  34.4670291  95.4359892  57.4286699
  34.8678250  94.1054646  58.0287170  41.2652588  10.0987923  59.1823626
  42.0442772   9.9147129  58.6575031  40.8215094  10.8050847  58.7128210
  70.1053524  29.9170494  85.9656715  69.6505022  29.9005342  85.1236057
  70.1642799  30.8462334  86.1878777  69.7886038   5.7213664  70.3120756
  69.9094868   6.4900017  69.7545624  69.1769791   5.1674402  69.8269844
  45.4264541  97.6205251  42.4817181  46.1736388  97.0759842  42.2338867
  45.5191703  97.7385065  43.4270811  53.0735302   8.7659800  65.7165432
  52.4167538   8.2278192  65.2746630  53.4118795   8.2056177  66.4149284
  42.6365944  67.3016027  27.2012731  42.6514431  68.0343787  27.8169366
  43.5256573  67.2673420  26.8482324  68.8185692  23.8233781  72.2363377
  68.0019474  23.3664942  72.4378872  69.4971275  23.1553316  72.3338175
  94.0166664  29.5070004  33.6510658  93.6325645  28.8730574  33.0454135
  94.8586369  29.7350192  33.2569551  38.1457944  92.8600172  66.1860418
  38.4174438  93.1708554  65.3224325  37.1896405  92.8994588  66.1649418
  68.9770599 103.0993088  67.7654982  69.7347827 103.1980209  68.3419895
  69.0634532 102.2166464  67.4053955  58.8744640   9.4283885  65.9331274
  59.5995808   8.8445079  65.7105923  58.4599590   9.0171826  66.6916275
  65.9656191  19.5623767  63.5425282  66.7698002  19.9261701  63.1721544
  65.2980089  20.2241373  63.3619690   8.7201496  99.4016198  13.1743070
   9.4677922  98.8626794  13.4327813   8.8731285  99.5957307  12.2495672
 106.3753700   0.5574866  70.6076288 105.9482288   0.8792873  69.8137569
 106.0478115   1.1271996  71.3035917  68.0537319  17.1826005  75.2431440
  68.2129478  16.8100727  76.1103821  68.3773518  16.5187466  74.6342134
  73.7061596   5.2063888  72.4179506  73.5823059   5.8684242  71.7378044
  74.2990208   4.5663705  72.0240927  60.5245590  34.8851657  90.0317478
  61.4154673  34.6545744  89.7684097  59.9629784  34.4006014  89.4267273
  60.5471320  95.7023934  65.7576418  61.3228984  96.1282650  66.1223841
  60.5771346  95.9093956  64.8235703 110.5578952  89.2476443  12.8621312
 110.7241301  88.3307723  12.6431772 111.0009007  89.7426013  12.1729299
 100.6236839   7.6906663  78.3354378 100.2086449   8.5526925  78.3651161
 101.3115978   7.7330577  78.9996767  80.4379325  55.5249310   0.8713838
  80.1254706  56.2930656   1.3494703  79.7879653  55.3914631   0.1814863
 100.3282356  39.1993856  64.8974371  99.5463943  38.6619711  65.0244284
 100.2149105  39.9335074  65.5011368 108.8831329  33.5463929  60.1916885
 108.1171513  32.9749990  60.2465677 109.3037510  33.4659767  61.0477495
   9.0888873  57.6370716  49.8089170   9.4164173  56.7527056  49.6450472
   9.0508930  58.0427361  48.9427662  94.3731880  33.6969590  54.7100973
  94.5973492  33.1762743  55.4813719  93.4472084  33.5099673  54.5557356
 104.4499969  18.8842499  66.0049057 103.5068035  18.9516842  65.8563042
 104.5512486  18.9861810  66.9512653  96.8783855  57.1023083  66.5616846
  96.7196941  56.4514923  67.2454166  96.3045025  56.8387938  65.8423519
   2.7940837  39.3632650  55.2727795   2.9680053  38.5771966  54.7550106
   2.5332824  39.0313482  56.1318731   5.7225028  30.5653620  65.4883385
   4.8546592  30.7511520  65.8469105   6.1072151  31.4279914  65.3331137
   7.7389804  10.2206278  86.7552471   8.0776493   9.3837345  86.4372063
   8.1590263  10.3409004  87.6069069  76.4842129  44.4899273  87.5840855
  75.5565834  44.4911575  87.8201580  76.4924860  44.2976809  86.6464233
  19.3309394  56.2650728  80.3686619  19.3084423  55.3192663  80.2231312
  19.5331088  56.6349030  79.5092535  91.2551785  37.1087337  86.5700531
  91.1427689  37.9308152  86.0927963  92.0841122  36.7556167  86.2469578
  77.9661798  34.8774624  89.5389271  78.2595110  35.7753778  89.6936417
  78.5328960  34.5579839  88.8367939  89.8977470  21.9219637  67.6401949
  89.8892021  21.0315490  67.2890282  88.9815998  22.1981335  67.6150990
  93.7809086  49.6836185  49.0145922  93.3361530  49.5849943  48.1727505
  94.6783066  49.9244738  48.7845993  97.9254055  31.7893314  69.0387392
  98.8456726  31.5422869  68.9475727  97.8854656  32.2617078  69.8703003
  17.0239826  56.3670734  19.6336957  17.9299828  56.5600476  19.3925496
  16.7028042  57.1784709  20.0270292 104.4349384  52.8417873  71.1126852
 103.5585308  53.0703020  70.8029795 104.7141457  52.1295881  70.5373192
  15.2531330  16.8731809  53.3272600  14.5223419  16.4628613  53.7896585
  16.0101787  16.7210186  53.8929033  94.0541172  37.2385359  64.9737120
  93.2829380  37.7991128  65.0590372  93.7619305  36.3807011  65.2819014
  86.5559196  35.4554391  64.1695118  86.1861897  35.6339717  63.3048439
  85.8006191  35.4548907  64.7575140 107.5626183  31.4779878  73.5023022
 108.4839821  31.6536903  73.3114100 107.3981667  31.9329238  74.3282700
  60.6059074  44.0679026  89.2616177  61.4121294  44.3219233  89.7107410
  60.6770372  44.4701529  88.3959579  78.0070972   3.7364969  77.6902008
  77.1457767   3.9543089  77.3339510  77.8252554   3.4000784  78.5676908
  69.7904348  12.0486498  50.1226044  69.9892521  12.8706861  49.6743202
  70.5204582  11.4712989  49.8990774  75.9084654  10.1106083  38.9257002
  76.8572998  10.2358782  38.9417577  75.7102680   9.6754032  39.7548842
 107.5499153  40.7481098  90.6795120 108.1635189  41.3239050  91.1357784
 107.5911999  41.0300589  89.7657108 104.3925624  68.9016549  10.7747003
 105.1039605  68.3232311  11.0496064 103.6190371  68.3381251  10.7567617
  92.2088242  27.2386336  25.6420159  92.8839302  27.2004414  26.3195157
  92.4364185  26.5326357  25.0370336  14.8838612  97.5618581  26.9652005
  14.0720936  98.0607013  26.8734094  15.1205345  97.3225335  26.0691282
  94.4704151  34.0820312  80.0037289  93.8344479  34.7539926  80.2491951
  94.1116905  33.2703114  80.3624249  24.9970814  91.4691738   6.1317941
  25.1327988  91.7745856   5.2348348  25.8243748  91.6551570   6.5759012
  75.6815672  53.9124489  83.5194397  76.0943413  53.1485081  83.1166458
  76.4111614  54.4939518  83.7334061  99.8225880  39.2829275  40.7987547
  99.8088646  39.1054511  41.7392588 100.7526207  39.3153548  40.5746841
  85.0030899   5.5385739  86.2976265  84.4585419   5.3882986  85.5248928
  84.3776608   5.6449908  87.0143795 106.6483307  54.7533131  51.8606567
 106.6320801  55.7099771  51.8882513 105.8619881  54.5144701  51.3698864
  88.8950729  26.9189310  62.1977854  89.5529366  26.9604802  62.8918409
  88.1742096  26.4189410  62.5806761  25.8912083  80.4718403   3.9920541
  25.5771443  80.0795082   4.8067209  25.3021904  80.1304869   3.3191701
  14.4398300  46.6525698  79.1396904  14.1100875  47.5368834  78.9800358
  14.2223922  46.4775419  80.0552845  20.5165955  68.7303487   8.1277105
  20.2063938  69.6258763   8.2620164  20.9268662  68.7461344   7.2630330
  12.9160019  93.6162929   7.2031041  12.3066231  94.0032033   6.5744706
  13.7511345  94.0485171   7.0242807   5.9857742  70.3635883  56.6152906
   6.0441963  71.1693573  57.1286631   5.9748546  70.6597424  55.7051229
  87.7737427  45.0380754  58.9517736  87.9610252  44.3506956  59.5910454
  88.0852222  45.8424282  59.3667746  91.8604660  17.3163104  58.9972782
  91.2364674  17.5842261  59.6718693  91.3807869  17.4143803  58.1747675
 105.2457237   9.5759338  53.6408997 104.7715282  10.1363289  53.0266237
 105.3511047  10.1151693  54.4247055  13.9493413  99.3069980  61.1480999
  14.8261495  98.9397184  61.0361052  13.7164970  99.0993962  62.0530367
  78.2786417  31.4598727  52.1718502  78.0613470  31.0358858  53.0020618
  78.9352512  32.1168590  52.4030828 107.1515083  27.4567199  82.1410275
 106.3904953  27.0488739  82.5542355 107.8198814  26.7715096  82.1408367
  74.7865768 103.7327257  81.3774681  75.2521033 103.0260224  80.9301567
  74.8324294 104.4714902  80.7705402 100.8445644  23.7733388  58.7900591
 100.2618408  24.4820166  59.0628958 101.3499069  24.1439223  58.0665016
  44.8061181  17.0547140   6.5599843  45.3736688  17.8251350   6.5839311
  44.9830056  16.6012037   7.3841688  91.0614586  30.1105642  86.7254543
  90.3969288  30.2374458  87.4026012  91.6596699  30.8496737  86.8354607
  84.0783978   5.3638947  77.0442867  84.5574379   6.1834615  76.9215822
  84.5122528   4.9415645  77.7856636  91.4683342  35.6064248  57.6862192
  91.4106655  34.6525455  57.6312876  90.6037712  35.8814692  57.9913568
   2.2489973  74.3639235   5.3904458   1.5966841  74.9199919   4.9644109
   2.5668617  73.7903074   4.6931955  35.8967873  95.3403167  39.6148225
  35.3270241  94.9731091  40.2906629  36.4630886  95.9519748  40.0853654
  99.5637321  26.5770149  52.9474926  99.8965549  25.8834863  53.5171223
  98.6322784  26.6352725  53.1601763   9.2341892   9.9460447  65.8228540
   9.8837654  10.0676346  65.1303959   8.5560218  10.5939007  65.6315231
  65.0649924  93.2222143  64.0903854  64.2375655  92.7434233  64.0419436
  65.0129123  93.8628236  63.3810616 110.4535198  58.6375570  75.8267593
 110.8704662  57.7759790  75.8349228 109.7637367  58.5761070  76.4875507
  77.7516365   2.0066014  63.3113527  76.8264103   1.8015671  63.1766224
  78.1974077   1.1629254  63.2356691  55.9513283  12.8122056  61.1530828
  55.5318785  13.3828974  61.7969799  55.8996344  13.2999325  60.3310823
  95.1044846  12.4109268  57.7664185  94.7208023  13.2736242  57.9237938
  95.7520485  12.5589097  57.0772171 101.3450623  12.3968709  67.6506948
 101.9394302  11.9112778  68.2226658 100.5140400  11.9260597  67.7137327
  12.3286148  84.4663481   3.2637712  12.7128693  84.3175057   2.3998090
  12.9536148  85.0389365   3.7084600   0.2940742  36.9287658  89.8159313
   0.8062736  36.5399981  89.1068840   0.8674613  36.8789601  90.5807686
  74.2161465  21.9211268  77.5541782  74.5003843  21.0815597  77.9155207
  73.3017445  22.0014334  77.8255796  89.5923901  15.7357502  62.7419043
  90.4846287  15.9716368  62.4879265  89.7016811  15.0027788  63.3477449
  13.6203758  50.5964422  72.6693201  12.6797668  50.7551098  72.5899458
  13.8661472  50.1922274  71.8371868  64.9289413 103.5303051  70.9130526
  65.8495612 103.3622039  71.1141300  64.7983070 104.4508481  71.1405754
  80.2137566  52.4719715  66.8245506  80.0304031  51.5694571  67.0854664
  79.3502474  52.8737640  66.7288971   0.7207290  71.0022259  46.5610075
   0.1215354  70.3319120  46.2325573   1.0258094  71.4563942  45.7755804
  89.4863224  34.6579957  59.9443626  88.9705944  35.4403114  59.7488165
  89.0719318  34.2864084  60.7230997 110.9904289   2.7451959  60.4682302
 111.0893059   1.8248975  60.2242947 111.6436386   2.8826496  61.1542749
  63.9131446  98.6173764  76.8608332  64.4030566  99.3520621  76.4914465
  64.2940040  98.4880642  77.7294302  61.4285517  66.1360455  85.2994251
  61.1882353  65.6073332  86.0603046  62.3590517  65.9552336  85.1663589
 103.4650803  40.0721121  79.6014261 103.9872742  40.6569004  79.0522766
 103.6504936  40.3552961  80.4967785  54.2433829  66.0640660  26.6405964
  55.0585075  65.6542483  26.3510299  54.2808242  66.0227672  27.5961733
  89.2652416  37.1366668  58.5449791  89.7388840  37.8934097  58.1996632
  88.8101292  37.4711919  59.3177605  88.7832642  49.9639702  80.5252647
  87.9697800  50.3175783  80.8850479  88.4985065  49.3094206  79.8875284
  89.4422436  73.2104397  54.0767765  89.2401409  72.7824831  54.9087858
  88.5878849  73.4441710  53.7139130  92.6979923  57.1842384  83.4891796
  93.3792305  57.6638746  83.9604568  92.4045372  57.7909374  82.8094482
  82.8050900  56.8347216  51.0267401  82.7866364  57.7847815  51.1419439
  82.3571301  56.4909840  51.7996597  93.3158207  18.3165860  65.7126713
  93.3350086  17.9014575  66.5749550  94.1273022  18.0324757  65.2919579
   0.2825633  63.1506205  33.5016465   0.9532920  63.8108253  33.3270788
   0.4086296  62.9185534  34.4216919  23.0900093  79.0793327   8.8138982
  22.2919365  79.5701293   8.6178705  23.7201973  79.7460369   9.0870305
  67.4174882  14.6791494  16.3985273  66.6121007  14.1731775  16.2908956
  67.2525788  15.4952085  15.9262105 102.9601955  43.1743574  36.6357613
 102.1900177  42.6628542  36.8836021 103.0962849  43.7733459  37.3698759
  85.9501076  50.5814266  82.9235649  85.1248741  50.1786470  82.6533985
  85.6982422  51.4420652  83.2583714  48.9702889 102.6969794   4.6678373
  49.7788807 102.7387551   5.1783964  48.7168213 101.7743711   4.6957132
 102.5717640  58.0294657  63.5987329 102.5757217  58.4356689  64.4654608
 102.9569244  58.6899900  63.0228949  98.6553383  25.5387783  58.8317204
  98.5664272  26.4917946  58.8225317  98.2402706  25.2673817  59.6504354
   0.9363123   5.2459725  82.1260166   1.6115328   4.9268254  81.5273094
   0.1116034   4.9709805  81.7254257  17.5916854   3.6484799  66.0980844
  17.5526611   4.5842350  66.2957478  18.0168144   3.2597327  66.8625212
  82.1822162  88.9088884  64.2834854  82.7914901  88.3555058  64.7721338
  81.5912719  89.2605225  64.9493504  85.9192849  10.9603680   2.2754880
  85.5699254  10.2332485   2.7907296  86.2241460  10.5542362   1.4641019
  92.9662228  48.9288235  51.7379665  93.3355522  49.0880442  50.8693600
  93.5534382  49.3908167  52.3362780  18.7668029   7.3778039  84.0695381
  18.1724063   6.8748170  83.5128212  19.6270648   6.9872808  83.9157009
  80.9063816  45.4189062  88.2062626  80.4968929  44.9023008  88.9002800
  80.1855183  45.9177971  87.8219509  99.1963534  87.8190402  19.0144273
  99.2450003  88.7422852  19.2623826  99.8063283  87.3794726  19.6068307
   6.7124072  52.8849983  54.9027348   7.0693199  53.5952044  55.4360676
   6.0512153  52.4754524  55.4607058 101.5750842  85.8289913   0.1616403
 102.5253300  85.8530239   0.2742883 101.3699441  84.9001268   0.0550481
 100.9393978  24.9695277  81.2046337 101.3317108  25.2459288  82.0328426
 101.2267971  24.0632010  81.0941601  95.4394531  34.1264272  27.1811581
  94.6397018  34.5872617  26.9276452  96.1058426  34.8118758  27.2292495
   8.1048862  24.4488120  49.7490978   8.9091674  24.9340177  49.9332952
   7.4069396  24.9972343  50.1073456  90.3900242  67.2544003  83.1042004
  89.5620060  67.7318859  83.0528355  91.0300636  67.9131460  83.3736992
  48.6849495  94.8239593   0.3895112  48.1883904  95.3886394  -0.2027682
  49.1781613  95.4307393   0.9415933  77.9237700  21.8427491  51.7574549
  77.8542805  21.8941569  52.7107430  77.0168543  21.8245935  51.4518309
 100.9257221  65.4824924  32.8557944 100.7567120  65.1820898  33.7487817
 101.1806679  64.6913195  32.3811603   9.0261356  63.8595581  53.9316940
   9.5194427  64.0412521  53.1317806   9.0646831  62.9077864  54.0258884
 109.6614839   7.8534687   7.0247670 108.9034177   7.4755466   6.5789625
 109.3419553   8.6834038   7.3787996  84.4524956  37.3342943  47.8853130
  84.7171688  37.2055435  46.9744873  84.7499180  38.2188034  48.0984163
 105.6113815  82.3964691  81.2671089 105.3312016  81.4891624  81.1465549
 105.5675411  82.5370216  82.2129154  11.4092628  58.1375647  61.0828876
  11.1323921  58.8806629  60.5468035  11.1016742  58.3501196  61.9640446
   0.8143608  43.4201145  79.1586113   0.4086677  42.7730608  78.5815763
   1.7197315  43.1237078  79.2517614  80.8254910  59.7075081  45.8493614
  81.2703609  59.8484564  45.0136232  79.8936701  59.7315359  45.6317139
 102.5646400  49.1789961  59.9264288 102.7398109  49.7158861  60.6992769
 103.3390713  48.6230135  59.8404980 102.9442501  57.6885748  86.0756779
 102.5861168  57.0464563  86.6885853 102.4138260  57.5870943  85.2853680
  89.7070217  48.8062239  51.9119835  90.0695515  47.9337883  51.7581892
  89.9883652  49.3194389  51.1545658  91.1355400  64.5774317  38.1753612
  91.1031818  64.0280533  38.9585376  91.7939663  65.2424908  38.3763504
   0.3145019  36.6240788  59.9377060  -0.2561864  37.3890805  60.0106049
  -0.0356873  36.1340404  59.1937542  74.6515179  48.1964445  74.2669821
  75.4167080  48.7639999  74.1742802  75.0116110  47.3505449  74.5334768
  99.4594479  59.4976950  80.3566456  99.1105843  59.5593405  81.2458801
  99.1684628  58.6410379  80.0440693  50.1834389  90.2101687  18.4428045
  50.7585427  90.1591519  19.2062684  50.6010910  90.8541898  17.8709337
  83.3539581  53.8027763  69.1325808  82.6097107  53.6478710  69.7142458
  83.9751244  53.1070709  69.3479395 100.6693840  29.3235755  73.5452938
 101.2593937  29.9862337  73.1861305  99.9631405  29.8263597  73.9510822
 103.8303089  21.0989928  35.4600811 103.8344765  20.6483364  34.6156144
 103.2401562  20.5793929  36.0059452 108.6049557  32.9502082  45.4770327
 109.3031979  32.3745131  45.1651621 107.8271580  32.3927593  45.4997778
  88.2864857  51.9505548  21.1564589  89.1921520  51.6783142  21.3044095
  87.9464054  51.3176250  20.5240154  58.5699178   8.5412205   7.4900647
  58.5212327   9.1513622   6.7541429  58.8172055   9.0862358   8.2370874
  93.6411095  51.8459368  84.6618271  93.1030941  51.7672062  83.8740635
  94.0213299  50.9755039  84.7801685 100.7009983  66.7563725  66.9462633
 100.3950596  66.6700411  66.0433912  99.9182606  66.6154623  67.4788952
  83.7587929  49.9616766  59.8533583  84.0618706  50.7487154  59.4006491
  83.6269379  49.3198061  59.1556120  88.3204556  42.3563290  57.4567270
  88.0974293  41.6071033  56.9043255  87.7501774  43.0601311  57.1474314
 102.4909019  30.4516840  90.0338078 103.3071995  30.5834079  89.5515823
 102.6712894  29.7105980  90.6121540  91.3342094  35.1586437  63.8017273
  90.5398464  34.7080755  64.0884447  92.0389080  34.5337677  63.9725256
   4.6510879  41.8362188  55.9818792   4.2038051  41.8786907  56.8270779
   4.2077342  41.1302567  55.5114746 101.8835258  50.9105206  41.2500143
 102.0826435  50.5204868  42.1011639 101.1204433  51.4648819  41.4132118
  35.7451240  25.8568907  65.0870609  35.2009765  25.7121372  65.8611345
  36.5930644  25.4761982  65.3157616 101.0379028  26.3940883  39.4445562
 100.6101322  26.3594842  40.3001499 101.4578629  25.5389309  39.3519855
   0.3031627  47.0291471  62.9902029  -0.2135190  47.4888754  62.3284435
   1.1900989  47.3727369  62.8828478  89.7557926   5.3207785  51.1497545
  88.8137341   5.1758599  51.2378597  89.8273182   6.1420387  50.6632948
  24.8397437  69.2912865  30.7050514  25.0686542  68.3878231  30.4869151
  24.6485607  69.7003841  29.8610592  83.1057644  26.6487265  43.0813742
  82.6967239  26.3705730  42.2618961  82.5791264  26.2341213  43.7647390
 104.7898865  86.3610458  45.1212883 104.9328518  87.2224903  45.5133438
 104.2543793  85.8924198  45.7614899   1.9175807  82.2407055  82.7132511
   1.1058513  82.3891544  82.2281837   2.5836746  82.1246243  82.0357037
 100.9583473  23.4207034  39.7078013 101.6610527  23.6556840  40.3137875
 101.2442875  22.5944066  39.3183064  97.6299667  49.9116278  59.1738224
  97.6075363  49.2865944  58.4492111  97.1593380  50.6772614  58.8443565
 105.2328014  36.1809325  70.1526499 104.7861099  36.7955709  70.7348156
 104.6590614  36.1138844  69.3894005 109.4455051  78.8485479  61.4810228
 108.9970493  78.1807423  60.9622145 109.9835300  79.3229485  60.8472204
 103.9899254  20.8596945  76.6161060 103.1812000  20.9941339  77.1101856
 103.7011242  20.7438326  75.7108974  90.0046539  18.4437227  70.0662613
  90.8908176  18.2789910  69.7440672  90.1270866  18.7143016  70.9762239
  44.9705979 101.9675092   0.1958295  44.5425602 101.4537410   0.8807107
  45.8885380 102.0068625   0.4643079  87.4877357  42.5201797  75.3053045
  87.2097301  42.4948931  74.3897152  86.6935253  42.3240280  75.8022738
  89.2356396  64.6636724  64.2740679  88.4948826  64.0898514  64.0785170
  89.1664028  64.8323584  65.2137423  81.0864639  79.0961313  63.4839678
  80.3875828  79.2228746  64.1256332  80.7685661  78.3913517  62.9196453
 101.0886574  83.7540054  60.2980042 100.5405998  84.5380211  60.3323650
 100.7110691  83.1688595  60.9547138  80.3764343  24.3552208  55.9690046
  79.8729801  24.2209125  55.1660538  81.2821198  24.1754627  55.7167244
  10.1066963  64.3749428  51.7148685  10.1716033  63.6963987  51.0428572
  10.1736537  65.1982355  51.2312031 107.4491215  15.6985676  46.9243288
 106.7840576  16.1316586  47.4594593 106.9793510  14.9886739  46.4866066
  23.4739105  39.0546727  80.5582428  23.2450382  39.7739148  79.9695683
  24.2101280  39.3893194  81.0703278   8.5175220  12.6803136  49.5236206
   8.8076297  13.4555101  50.0043869   7.5918189  12.8432667  49.3426085
  25.0929347  54.3005657  61.4302349  24.8850910  53.6886024  60.7241678
  25.3866474  55.0933361  60.9813690  88.8304234  64.3039370  34.0778327
  88.4755802  63.4824324  33.7380672  88.0939102  64.7133684  34.5318604
  85.2852727   1.1386145  10.5723115  85.6166745   1.5351236   9.7665902
  84.7350503   1.8167484  10.9642526  89.0832424  39.4367981  63.5272217
  89.7634411  38.7636781  63.5487509  88.2624817  38.9464974  63.4804249
 103.0531311  38.7161756  66.3312721 102.1293545  38.5258532  66.1680508
 103.4024525  37.9063010  66.7031717 107.2915173  26.6762567  32.4711156
 107.8221130  27.1005487  31.7968202 106.7177391  26.0829782  31.9863081
 110.6089878  20.8774924  68.1352806 109.8067379  20.4154968  67.8920221
 110.8104420  21.4239073  67.3756218  70.8815718  22.1831656  84.1818142
  71.1671305  21.6020894  83.4768105  70.9723425  21.6577935  84.9767876
  67.7306267  98.9843921   6.2498018  66.7956253  99.1672734   6.1572191
  68.1109139  99.8169211   6.5299913  26.6867634  63.5403983  20.2443906
  26.7519470  64.2179135  19.5713731  27.3455235  62.8918914  19.9960061
  99.0890312  42.1813440  52.9895258  99.2187214  41.2809467  53.2873535
  99.7541237  42.3079443  52.3128748  84.5041561   1.4791524  50.7300472
  84.0623474   0.9454774  51.3905239  84.6991444   2.3021087  51.1783314
  95.1296331   2.7659977   6.2933275  94.1781999   2.8292215   6.2096235
  95.4671384   3.1432379   5.4809114  76.2442636  69.4569921  55.3989935
  76.9394588  70.0653982  55.1484346  76.2202072  68.8153172  54.6891356
   4.0701286  92.5808716  35.3329682   4.3887702  93.4714031  35.4801369
   4.3909351  92.3528385  34.4604325  12.2120086  42.6723814  78.9794397
  12.0830718  42.0418262  79.6879625  11.6148654  43.3911514  79.1868687
  13.0613223  69.3878698  53.0207300  13.0960647  69.7541666  52.1370745
  12.4061767  69.9182463  53.4742785  89.0627003  43.2764626  66.3538027
  88.3683491  43.8635254  66.6529274  88.6789989  42.8107071  65.6107855
  99.5007420  84.6107388  83.3989525  98.5554123  84.5006466  83.2966995
  99.7599411  83.9108562  83.9982891  84.8739147  45.5757284  58.0604172
  84.4483662  45.1656580  57.3074341  85.5420685  44.9457121  58.3303833
   7.0317456  53.2650457  20.9830304   6.9918057  54.0277984  21.5599557
   6.1652180  52.8647916  21.0548326  97.8090195 103.0306128   1.4468023
  97.0255427 103.4731845   1.7731878  98.3392100 102.8747872   2.2283670
  56.2096974  96.5448169   0.6921312  55.6608196  96.3925342  -0.0771407
  55.7906719  96.0399131   1.3890668 102.0613194  54.0855980  70.5569744
 101.7857265  54.3588686  69.6819878 101.4313507  54.4997454  71.1467552
  83.8413811  67.9184961  52.1562719  84.2817593  68.6755180  51.7699909
  84.2364025  67.8283644  53.0234909 107.2193050  52.3761654  48.1151438
 107.4059963  51.9376135  47.2850513 107.9120445  53.0311155  48.2011080
  35.9816352  42.3133945  73.0895758  35.0289241  42.2209167  73.0858755
  36.2555972  42.0047045  72.2259283  86.3732433  23.3909130  48.5921574
  86.3525581  24.3452454  48.5210657  87.2934055  23.1826663  48.7538862
   6.3285343  90.7663727  50.1738310   6.7039195  91.5716648  49.8177052
   6.8554393  90.0659370  49.7891283   1.2549683  92.8701905   7.8844281
   1.2958761  91.9538001   7.6109525   0.4252049  92.9425649   8.3561059
 109.1865635  29.1755462  54.8150492 109.3798065  28.2842612  54.5243692
 109.6620178  29.2665505  55.6408119 100.7618427  54.9904633  63.2960987
 101.5515041  55.1456308  62.7778482 100.0574398  55.3879261  62.7841711
  89.1338444  71.7806053  65.0018692  89.0222073  71.1793613  65.7382584
  88.2413769  72.0035982  64.7373009  98.2002068  66.6640472  53.6800861
  98.6170292  66.4109135  54.5037508  98.2743168  65.8873701  53.1255484
   8.1299964  50.9168959  66.9759321   7.8324787  51.6932487  67.4502707
   7.3274032  50.5227947  66.6342306  95.3303146  45.8969498  24.3241239
  95.9396458  45.1590395  24.3449235  94.5772934  45.6002426  24.8351645
  20.0872985  81.6368771  50.8501005  20.1011077  81.1402035  51.6682434
  21.0007755  81.6535187  50.5645657 101.9976330  34.1997743  77.5129652
 102.1553898  34.9924588  78.0257988 102.5210762  33.5258317  77.9466057
 103.5724258  30.1804185  69.4938803 103.8937569  30.8058906  68.8444471
 104.3649864  29.8082733  69.8806334  86.2510967  62.0016193  53.3780670
  85.9462070  61.2401342  53.8714409  85.8594513  61.8976355  52.5108719
 105.4797173  46.1209059  50.6082392 105.1531696  47.0205259  50.5915165
 105.6151772  45.9324980  51.5368843 101.2745667  31.9050050  64.6452951
 101.7593670  31.6793275  63.8513994 101.6047001  31.2984300  65.3080988
  98.2228184  45.6716681  89.2977238  98.2830715  46.2328053  90.0708580
  99.0054989  45.8812284  88.7880993  22.0440384  93.4221343   4.0616914
  22.2597309  93.2242660   3.1503507  22.0862766  92.5758771   4.5069906
  92.6741505  63.9507771  83.2050991  92.0483017  64.4299412  82.6620102
  92.8846455  63.1688166  82.6947403  86.6346931  42.5330591  54.8665476
  87.2406006  43.2284069  54.6104193  85.9280968  42.9878855  55.3248978
  87.7718163  86.9022083  26.5955567  88.2081699  87.6571560  26.2007260
  88.4796524  86.2834549  26.7753839  22.5464240  69.7219992  12.2244906
  22.2828952  69.3451834  13.0640101  21.7942420  70.2469969  11.9509387
  71.9468880  73.3547163  42.7939510  71.4859629  72.5398922  42.9935408
  71.3284683  74.0447330  43.0341005  39.8437783  67.3863844   2.5717946
  39.5892044  68.1076614   3.1472894  39.9325749  66.6335515   3.1562539
  88.0986595  37.9421425  27.3920417  87.2735119  38.3791208  27.6027870
  88.7178135  38.6572862  27.2455740  84.3316460  85.6421852  61.7703724
  84.5512390  85.7115650  60.8412886  84.3602657  84.7031498  61.9537687
  83.0175591  70.4001904  66.8280840  83.1086349  71.2411261  66.3800192
  82.2773170  69.9763346  66.3937855  70.2079248  42.4130249  82.8512001
  70.5313873  42.8268766  83.6514091  70.9363461  41.8691158  82.5515556
  98.7207985  42.5388861  80.4039097  97.8428173  42.6504660  80.0393200
  98.8469124  41.5906715  80.4388428  98.9622211  25.8556890  79.8319101
  98.9899445  25.1462626  79.1899014  99.6976948  25.6772423  80.4179573
  97.3798752  44.0595627  70.1587534  97.3973179  43.7174511  71.0525560
  97.5581646  44.9948883  70.2567816 110.3496075  33.1884456  84.3948650
 109.9705124  34.0169907  84.1015530 109.6644592  32.5403404  84.2312622
 109.0227604  51.9495630  69.1326618 109.3030167  52.3637629  69.9488306
 109.0631866  51.0106421  69.3143749  28.0580894  52.4362135  63.0892420
  28.7989417  51.8397331  62.9816055  27.5049488  52.0148325  63.7470484
   3.5432955  93.2687024  19.9005529   4.4683167  93.0261926  19.9424478
   3.1816527  92.9793624  20.7382413  21.2956039  59.6688652  54.5891237
  22.1576206  59.2542553  54.5536566  21.4421836  60.5549049  54.2579365
  43.7110993  61.5243159  17.6365300  42.7553364  61.4764241  17.6149865
  43.9133354  61.8876658  18.4986802   3.1774036  44.4673300  55.9422827
   4.0616504  44.1901445  55.7024670   2.6047412  43.8110971  55.5452347
 105.7137012  44.8213720  67.3113489 106.1452103  44.2073250  67.9054642
 104.8453808  44.9528933  67.6920700   7.5896255  59.5404816  45.0242138
   7.7568141  60.0871658  44.2564774   7.0755569  60.0982428  45.6080532
 105.0008678  75.7013178  48.9241171 104.2376995  75.1436567  48.7730551
 105.0474358  76.2590504  48.1475925 101.0394287  51.6364336  59.0991831
 101.6714478  51.1022091  59.5802021 101.4482784  52.5002050  59.0446758
  96.9054890  69.9082041  77.9989624  96.3204384  69.1757345  78.1924391
  96.4285564  70.6816387  78.2999086  92.3971558  56.3699913  45.4870272
  92.6311493  56.7786741  44.6536875  91.4646530  56.5584278  45.5927134
  85.1868248  15.6068492  89.0673733  85.6365395  14.7619104  89.0589809
  85.7867146  16.2019312  88.6176491  79.2219114  64.6235275  86.0201645
  80.1633453  64.7894287  85.9710312  78.8693428  65.3807783  86.4875984
  90.5257511  31.9390559  74.9391508  89.8739433  31.9440317  74.2381859
  91.2950516  32.3585176  74.5538473  65.3592348  52.5402451  73.4171343
  65.4969883  51.7553663  72.8868294  65.1532364  52.2062922  74.2902136
  95.0739002  26.8543625  78.6793900  94.3394947  27.1784306  78.1579828
  95.8032131  27.4302006  78.4497452  21.9467632  20.1860976  68.8055515
  22.0490066  20.6351995  67.9664516  22.0926849  19.2622268  68.6020803
  83.7373735   8.4366119   9.3231126  84.1367532   7.5956428   9.5455858
  82.9271413   8.4591425   9.8322793  10.9200660  55.4070616  52.9526663
  10.2662174  56.0831642  52.7749062  11.4585296  55.7731771  53.6542654
  30.4177848  30.8106875  70.8654499  29.6878139  30.3389072  70.4644537
  31.1832992  30.2647972  70.6858969  63.6156082  58.2219791  90.4691887
  63.8308620  57.3491573  90.1404381  64.1472912  58.8155174  89.9388599
 110.6946659  26.7776203  74.6557236 109.8994255  26.2582469  74.7743416
 110.8924770  26.7029524  73.7221670 103.2596016  34.4665122  42.1611309
 102.9099083  33.7371993  42.6730394 102.5199223  34.7635365  41.6311502
  20.2408878  67.2200823  55.3533888  19.3499271  67.5669527  55.3075027
  20.7993118  67.9970455  55.3801489  90.3538036  61.3467264  75.8182144
  91.2405682  61.0648203  76.0427141  89.8360443  61.1537933  76.5998363
 107.1811676  22.8608823  78.8240671 107.9989529  22.8063512  79.3185282
 106.6651726  23.5212016  79.2866230  95.4242039  47.5783110  42.3402023
  95.4412365  47.5923824  41.3832569  94.7117901  48.1725883  42.5758362
  86.1899472  15.6406296  40.6233999  86.4013673  14.7252453  40.8067151
  86.0409070  16.0292805  41.4853498  92.4549866  19.9623716  73.8043928
  92.5733948  20.1609921  74.7332430  93.2327175  19.4576895  73.5663462
   0.4942504  23.5229445  81.8335819  -0.3193005  23.2383657  82.2499847
   1.0839263  23.7111497  82.5637150   6.2598792  30.1657462  60.4483223
   6.9116012  29.4762397  60.5750895   6.1386768  30.5438185  61.3192987
  96.6161156  63.1927872  46.0089254  95.7428169  63.0996323  46.3895845
  97.1697521  62.6164532  46.5357590 110.5492115  41.2428331  62.8661060
 110.1628780  41.9278526  63.4117508 110.8544254  41.7030525  62.0842695
  17.4862091  54.8066092  83.9301586  16.9659988  55.4127264  83.4026814
  17.9660026  55.3691864  84.5380497  57.7626034 101.9576816   4.9842855
  57.4970337 101.8655852   5.8992883  58.6223885 102.3763827   5.0254175
 104.8707962  38.8252211  86.7063236 104.1918659  38.7675667  86.0340309
 105.1848507  37.9266596  86.8072319   9.0171906  83.6693267  21.5265867
   8.6929699  84.4202498  21.0293695   9.8290535  83.4216050  21.0841676
  97.4845123  77.6990891  70.8282948  98.4298992  77.7870655  70.7068586
  97.2833157  76.8183947  70.5118704  83.3856869  35.6484699  80.0236511
  83.8245583  35.9085417  79.2137241  83.5559177  34.7094202  80.0974274
 102.8196049  24.7311330  56.8057203 103.6504936  24.7211742  56.3305712
 102.9397869  25.3952837  57.4844599  86.3869190  60.4892063  65.1593399
  86.3210773  59.7996378  64.4987392  85.9710598  61.2499714  64.7537088
  93.8422680  73.9501715  88.8183689  93.4565163  74.5806932  88.2101917
  93.6976910  74.3328285  89.6837521 110.4698467  14.4874251  67.3627806
 110.5159855  14.1354394  68.2517147 109.8456097  13.9187074  66.9120836
  93.0619717  40.8963203  78.8308573  92.3473167  40.3605413  78.4867096
  92.8413105  41.7890930  78.5653543 103.0977440  47.9893970  70.0032043
 103.5675907  48.5544682  69.3898678 103.3149815  48.3404255  70.8668137
  99.8149967  21.1215496  59.1202974 100.2195263  21.8210435  58.6071730
  98.9974499  21.5020728  59.4413042  25.3480998  34.6009517  43.3712673
  24.6223346  34.8473763  42.7978754  25.7107250  33.8100696  42.9722166
  31.7965313  67.8221981   4.7266313  31.1675450  68.5364429   4.6243116
  31.8503472  67.6840822   5.6722852  96.6582775  46.5728045  50.8640814
  96.0101604  46.6515303  51.5640736  97.2404099  45.8706617  51.1545134
  10.3150741  61.1724424  48.6920214   9.8926441  60.4644203  48.2057190
  10.1549331  60.9602165  49.6115541  98.5660267  28.6992335  71.8430185
  99.4005013  28.4474421  72.2385979  98.0724144  29.0989208  72.5591373
  99.2848970   9.2594803   1.6813585  99.5604516  10.1591146   1.5054151
  98.3456899   9.3260181   1.8536779  75.6657125   3.7548483  14.0059873
  75.3513909   3.0236709  13.4741803  74.9365903   4.3749512  14.0154382
   1.0165111  35.9688091  82.8698730   0.4799739  36.5377474  82.3179054
   1.1171237  35.1654148  82.3593235   5.0638286  50.5137253  74.4838905
   4.6488754  51.3623190  74.3291664   5.3766338  50.5612326  75.3872871
  32.1096798  79.5779232   3.7699910  32.9007527  79.3166880   3.2986184
  32.2103020  80.5205039   3.9028474  80.1175690  55.5178928  66.3908958
  79.2915392  55.0425339  66.4799690  80.6842232  54.9233818  65.8992672
  94.6717644  35.8918595  18.5811353  94.1398335  36.6789317  18.4636748
  94.8679161  35.8729291  19.5178330 102.6774597  57.8610325  41.8133402
 101.8004417  57.9429388  42.1879816 103.0523968  57.0943308  42.2467184
  14.4551746  54.4494152  63.5776997  14.6608726  54.0699196  64.4320440
  15.1854030  55.0411224  63.3963776  95.2075005  65.9547138  58.5474110
  95.0057030  65.1490355  59.0232134  96.1159229  66.1483479  58.7787390
  58.9470005  93.6100483  83.3397675  58.6472845  92.7139187  83.4925365
  59.1159821  93.6488914  82.3984051  91.2593555  38.6534190  49.1832495
  90.6183624  37.9490709  49.0871096  91.7919350  38.3917260  49.9343204
   4.4580738  74.1426992  78.1473112   5.1243011  74.2752504  78.8217068
   3.8182155  74.8373890  78.3029318  92.4391460  61.8711615  50.3963614
  92.7339458  62.5105762  49.7479200  92.6158428  62.2869396  51.2402439
  23.7506000  53.9751244  73.5550690  24.0500919  54.8474741  73.8110685
  24.3915073  53.6824131  72.9071569  97.5812812 100.2872080  28.7570095
  96.7795177  99.8692969  28.4427547  97.2898288 101.1257163  29.1150475
  93.7037659  47.0248222  74.9355602  93.8350201  47.2700405  75.8514595
  92.8605080  46.5719557  74.9273396 107.2194767  88.9645481  66.0822773
 106.6815662  88.6022091  66.7862558 106.9316959  88.4988976  65.2970505
  76.3364458  59.5162582  79.3656301  76.0641384  60.4238987  79.2304802
  77.1545315  59.4360828  78.8751793 105.2348709  34.0648413  79.1215944
 105.8973789  34.7551608  79.1494036 105.1527977  33.8489294  78.1926823
  13.7095062  84.7051334  82.4622440  14.3749324  84.1964436  81.9989014
  13.1133834  84.0483093  82.8220367   8.3428565  95.2935123  52.8504848
   8.9164726  95.2188969  53.6131287   8.6733238  94.6371746  52.2371006
  25.3713027  57.8995705  68.0642366  25.4784671  56.9791555  68.3042049
  25.6841079  58.3842278  68.8281012  82.6978302  91.4458275  57.6021290
  82.2883987  90.7733536  58.1465292  82.9684734  90.9809875  56.8103552
  70.0724649  67.3069525  31.1543918  69.6452761  66.6091061  30.6576562
  69.5220566  68.0763435  31.0083747  59.8212147  82.3968792  57.4502325
  60.2781057  81.6848850  57.0024109  60.1761580  83.1940651  57.0568562
  82.0602989  81.5220261  82.7832031  82.2913361  82.3226261  82.3121357
  82.5452805  81.5800667  83.6063957  83.3697414  46.3733101  86.9560719
  83.2355976  47.2831392  86.6906452  82.5779915  46.1469603  87.4440670
  73.5542440  40.0811529  35.0309825  73.0136108  40.3726244  35.7651424
  73.0341959  40.2867413  34.2541218  85.0149346  59.6238888  12.3914262
  85.7056905  59.0130890  12.1344968  84.3078805  59.4623936  11.7667505
  88.4828472  50.8637094  59.0266991  88.2965374  51.6919804  59.4688416
  88.6400414  50.2426338  59.7378874  19.0851871  57.2890949  36.2745380
  18.5230342  58.0336332  36.4887261  18.6453620  56.8602657  35.5404472
   4.7892467  47.9163408  71.7081881   5.4348937  47.9768944  71.0041189
   4.8177139  48.7733269  72.1336222  81.6867256  69.5610809  60.7434130
  81.7071819  69.9769402  59.8815107  81.6028500  68.6261034  60.5563021
  83.1049633  70.6560946  62.7699614  82.5730038  70.0862360  62.2145224
  82.4825287  71.2870455  63.1315041  72.9652882  58.4433460  34.7726965
  73.4136534  57.7962732  35.3172135  72.3062134  57.9393196  34.2954016
  87.1099758  68.3664131  76.9525099  87.6989079  67.8872108  77.5353956
  86.8848133  69.1595745  77.4387503  74.3930578  99.0640640  73.9655876
  73.9562225  99.4116306  73.1880236  75.3059196  98.9553070  73.6989737
  90.0269413  44.0864658  40.9481525  89.6975231  44.6105003  41.6782904
  89.5896149  43.2404232  41.0440683  99.1949654  43.3673429  77.4332237
  99.4493294  42.9964018  76.5882778  99.7767448  42.9449177  78.0651426
  97.3660564  70.3287268  69.9435043  97.5100422  69.4935226  69.4986057
  97.9302311  70.9475040  69.4797611   4.6732990  64.4864702  70.0754690
   4.4764511  65.1819754  69.4479704   5.0853530  63.8000727  69.5507717
  82.0209123  27.5841606   6.8105432  81.3541509  27.3852194   6.1532136
  82.7431012  26.9899500   6.6065999  11.4199439  87.0268726  76.5171432
  10.4908363  87.2424126  76.4362144  11.8743602  87.7810955  76.1418009
  89.3219185  35.7347155  84.7481823  89.3533421  36.5158367  85.3005409
  88.6283016  35.9173346  84.1143227   4.2837325  50.3329849  39.7288609
   3.7680618  49.7002506  40.2288246   5.1099197  49.8828363  39.5527601
   5.4431716  41.6525459  50.3034496   5.5036537  41.5461302  51.2527895
   5.2966491  40.7666063  49.9719810  95.9178925  35.5749846  69.9510670
  95.8577538  35.8098459  69.0250778  95.0643158  35.8113956  70.3140497
  23.7838642  36.9487286  58.6399555  23.0859367  37.1742797  59.2549801
  24.0971366  37.7921939  58.3133745  89.3766499  78.2764721  69.5430946
  89.1224861  77.7453470  70.2977705  89.3134785  77.6792622  68.7977219
   9.2397587  46.4490307  20.5283281   9.8083775  46.6663063  19.7896215
   9.1692822  45.4947460  20.5037423   3.5377780  69.0890694  56.8665171
   3.6846725  68.1468964  56.7830658   4.4165031  69.4684982  56.8767309
  86.5080547  74.8186207  69.9403191  86.1783218  74.4114065  70.7413673
  86.0587120  75.6627464  69.8982668  91.2813473  64.8966789  68.1486082
  91.5898895  65.4431438  68.8713884  91.7490673  64.0686941  68.2577610
  40.9288498   3.6538609  82.5464535  41.1587712   4.1973599  81.7928123
  41.7488285   3.2252416  82.7917194  69.9703408  31.1137474   4.0246984
  70.3292371  31.7472351   3.4033223  69.2788888  31.5922153   4.4820806
 109.8719789   1.1381376   2.2476217 110.6688882   1.1198271   2.7775594
 109.5353509   2.0280970   2.3519632  59.3517400   0.2438438  26.6296216
  58.5152818   0.4980839  27.0194169  59.2939855  -0.7071888  26.5378305
 108.6556721  81.8480492  58.3095598 108.6712742  81.8249226  59.2663527
 108.7845039  82.7708149  58.0901480  42.2298709  71.4693213  67.0371056
  42.0663349  70.5851603  66.7088556  41.8307392  71.4794636  67.9070616
  93.8583374  56.6100454  59.0585566  93.0971241  57.1519327  59.2662525
  93.8513756  55.9220934  59.7240639  18.7667552  50.9739447  88.1974506
  19.3159381  51.3529301  88.8837433  18.3288089  51.7258549  87.7986240
  80.0360489  71.3094473  63.6711693  79.4920826  72.0693302  63.8783026
  79.5674467  70.8648348  62.9647970  10.2563850  42.3687935  88.6280632
   9.5450584  41.8392134  88.2678032  10.9461681  41.7370033  88.8311958
  81.7188263  83.3875847  71.3165331  81.8638134  82.4755001  71.5681505
  82.3637486  83.8812256  71.8231201  85.0402832  69.2090130  58.4444857
  84.3377972  69.2307091  59.0943146  84.6521473  68.7715960  57.6866961
  18.8349620  41.8900871  81.1071301  18.7719432  41.3630056  81.9036484
  18.1233112  41.5712690  80.5520248 102.0862579  69.2453575  72.0768166
 102.9570961  69.2089796  72.4724770 101.6405201  69.9523354  72.5434351
 108.9209843  76.1207151  74.2499208 108.7651348  77.0650816  74.2394447
 109.4894791  75.9634018  73.4960699  95.1311779  43.5591078  50.9597492
  94.5772266  44.3007231  50.7160807  96.0156059  43.9231825  50.9980583
  84.1386986  70.9069538  50.0864267  83.3093262  70.6414747  49.6890640
  84.5020771  71.5486765  49.4762039  80.9748077  51.3611460  41.4773417
  80.3239727  50.7034063  41.7223167  81.1218643  51.8628311  42.2791624
 107.4151039  91.9815922  82.7392578 107.6760674  92.8754807  82.9608345
 106.5841579  91.8542385  83.1970310 110.1300621  32.0631599  72.8509665
 109.8923397  32.9821587  72.7278280 110.5736732  32.0420599  73.6989021
  15.2775947  39.0665865  62.0703506  15.8057777  39.4788384  62.7539444
  14.7915355  38.3788323  62.5252962  92.7186298  46.4312410  78.5569286
  93.4555912  46.7982292  78.0686283  92.1588898  47.1839952  78.7474060
  96.5520382  77.0663595  33.6629462  97.4226379  77.4586725  33.7291265
  95.9571362  77.7502584  33.9705229  71.6984841  83.0757812  12.4162122
  71.0761830  82.6606206  13.0133935  71.2762448  83.0272202  11.5585538
   4.9665061  89.6482086  54.1127110   4.2046634  89.1364193  53.8408661
   5.7182113  89.1252899  53.8338947 107.0587826  55.2020454  76.5811014
 107.2248173  54.2598867  76.6126347 106.1458969  55.2936411  76.8540239
  21.1527053   1.4945111  62.7935171  20.7245151   2.2439665  63.2072878
  20.8709327   0.7411379  63.3124256   4.7957698  43.6628723  71.2030935
   4.9075977  43.6811399  72.1535635   4.4950096  42.7739620  71.0143566
  90.6913185  57.4464226  75.0048828  90.8429909  57.7793121  74.1203451
  89.7465134  57.2986126  75.0464392 104.7068024  68.0775356  64.7009850
 105.4101849  68.2576036  65.3247261 105.1119900  68.1969309  63.8420343
  31.2910367   3.2464636   7.7155706  30.3444291   3.1096208   7.7535650
  31.4504720   3.5730207   6.8300363  62.1457387   1.1397303  24.6947023
  62.1331693   1.8514431  25.3346654  62.1406556   0.3419388  25.2236005
   6.3878528  76.3354397  69.3598700   5.6303016  76.4085340  69.9403906
   6.9231121  75.6446362  69.7504044   0.4659072  18.3627927  44.0216160
   1.2457172  18.8891280  44.1979313   0.6830684  17.4930477  44.3571949
  14.6325675  91.0709286  77.7716398  14.9969570  91.9247055  77.5381374
  15.2915470  90.6776142  78.3437300  11.5074531  83.9928532  70.8324385
  10.7332984  84.0493488  71.3925457  11.3950435  84.6993637  70.1964855
  21.3884059  72.5217438  76.1510515  21.8145553  72.8047514  76.9600821
  21.6050426  71.5921879  76.0787296  17.0717422  59.4647217  36.6253090
  16.6160289  59.3396568  37.4577260  17.2081558  60.4103327  36.5666461
  80.0225258  48.2477283  43.0393457  80.6687164  48.2206917  43.7449932
  79.2804480  48.7236452  43.4122419 110.0419903  78.9088392  41.8973970
 109.4374275  79.2792940  42.5404310 110.9117699  79.1084051  42.2436523
   3.8395969  51.5444231  78.6525202   4.5728485  51.1866283  78.1519699
   3.1216041  51.5963602  78.0216312  37.0846173  25.9733113  38.4021878
  37.1317669  25.6904515  37.4889517  37.7184292  26.6878804  38.4646392
  83.0850888  27.9310978   3.3567735  82.3790742  28.5329903   3.5923883
  82.9742814  27.7881611   2.4168226 102.3115826  47.7504730  49.1769409
 102.9573822  47.0484257  49.2563629 102.7772141  48.5373926  49.4600916
  91.8391705  48.8518286  71.7454672  91.3179398  49.4518280  71.2120438
  91.5261650  48.9922523  72.6390743  11.3045112  64.7621107  79.9827909
  11.8499175  64.0472889  79.6544695  11.9220058  65.3614092  80.4020500
  19.6804229  74.5044041  67.5404692  19.9219505  75.3384542  67.1376514
  19.7456447  73.8671350  66.8292284 100.5589294  70.8119726  41.4310598
 100.8761406  71.3450050  40.7020330 101.2221527  70.9196186  42.1128178
 109.6860695  10.6929207  53.5832214 108.8538933  10.2280676  53.4959173
 109.9549103  10.8739901  52.6825714  28.0171386  42.7988720  72.5435591
  28.1046001  42.1702671  71.8270111  27.2249214  43.2931900  72.3331642
  93.0081272  71.3630009  90.4467010  92.9183769  72.1610308  90.9675884
  92.7138996  70.6625652  91.0289860  25.7051841 101.8927860  65.3421497
  25.2533809 102.6122379  64.9011469  25.8275978 101.2327480  64.6598053
 105.0360775  47.5434303  59.5369244 105.1233673  47.3805666  60.4761171
 104.7997093  46.6927195  59.1672659 101.1684132  78.5017776  61.2375069
 100.3666973  78.1225061  60.8774662 101.4470482  79.1403580  60.5811405
   8.9227954  53.3670187  44.7376871   9.5949928  52.6975441  44.6104479
   9.2612163  54.1363287  44.2795801  78.9671803  83.8286877  44.0951443
  79.1790056  83.3115387  43.3180189  78.2897282  83.3218288  44.5427895
  93.5520267  75.6112719  47.1815968  93.6337185  74.6969175  47.4527311
  93.7464333  76.1139488  47.9726458  50.7955648   6.2841165   6.3595220
  50.5226613   6.6347111   5.5116769  51.0729505   5.3878057   6.1700078
 102.9012108  45.6542921  53.4680128 103.8202000  45.8954239  53.5843706
 102.4170876  46.4588308  53.6539698  83.8141060  49.5830059  26.4201641
  84.2798615  48.7530994  26.5229034  83.7659264  49.7150040  25.4733348
 106.6002560 100.6853580  71.9064617 106.6228294 100.1305771  72.6861668
 106.0581589 101.4324951  72.1597385  44.5022289  82.0451450  69.8550272
  44.0137283  81.6237736  70.5621624  45.1242153  81.3786125  69.5633125
  89.3480206  50.0782537  56.4981174  89.1179752  50.3840399  57.3755026
  90.2386761  50.3998232  56.3582706  18.8056652  45.3680897  74.9025869
  19.7249690  45.5537748  75.0939798  18.3724586  46.2197638  74.9592543
  15.0585739  53.7397337  66.2161446  14.3703453  53.3429623  66.7501307
  15.6874172  53.0326319  66.0718918  27.9672519  50.8955908  84.5718002
  28.0634872  49.9872875  84.8580742  28.4180919  51.4074230  85.2433777
  68.4336281  72.1805239  57.1088076  68.8962412  71.3576031  56.9506216
  68.7031507  72.4413443  57.9894686 107.8532887  34.4851637  48.1186676
 108.4238815  34.1047931  47.4508572 107.3110580  35.1129723  47.6410866
  82.6372433  67.5819063  49.2753649  83.4070873  67.0555782  49.0595961
  82.8489971  68.4586287  48.9548159   0.2331726  63.1811047  69.6435547
   0.7361499  63.4109688  70.4248333  -0.2745923  63.9679813  69.4454956
  83.7584972  66.5405130  57.6701736  83.3349228  65.8079481  57.2227716
  84.2951298  66.1293316  58.3478069 108.0471516  46.8701839  35.2329278
 107.1768284  46.5632820  35.4870534 107.9925156  47.8237820  35.2953076
  21.7860595  53.4843826  87.7892876  21.3563816  52.9490232  88.4563732
  21.8496314  52.9103994  87.0259094  50.9197904  46.0602367  12.2455713
  51.7617990  45.6622017  12.0246145  50.5123902  45.4392231  12.8493902
   7.5700370  53.9466524  35.1039362   7.6528160  54.8998690  35.0763083
   6.6351978  53.7836885  34.9783897  74.0552378  79.6877813  89.7619152
  73.7818289  79.7356081  88.8458443  73.2959032  79.9984074  90.2550220
  85.2879715  44.6977615  77.6548958  85.9985924  44.9765873  77.0774031
  85.4462433  43.7643337  77.7959681  87.5805664  68.3072567  70.4646492
  88.0350590  68.1109190  71.2838650  87.4022198  69.2466545  70.5088806
  83.9532089  76.4157486  82.1570206  83.5843658  76.0486317  82.9603958
  84.8502827  76.0828257  82.1313858  40.5676834  73.1162596  71.8511868
  40.2300064  72.3011065  71.4800644  40.7239620  73.6782837  71.0922766
  90.4891778   5.7677877  11.8676301  90.7180501   6.3553751  12.5877591
  89.9118901   5.1156938  12.2648069  76.4816999  70.6707239  44.0622187
  76.7262936  70.4353809  43.1672192  75.5245209  70.6714964  44.0565920
  21.5657894  42.6229095  84.6754837  21.7296306  42.4731350  83.7443829
  22.1044341  41.9694138  85.1216221  31.7387859  51.1644506  57.2712755
  31.2563888  51.3740873  56.4715433  31.1140911  51.3284302  57.9777479
 110.2763748 101.6386890  42.6158571 110.2386093 102.5025558  42.2053194
 109.3982124 101.5042686  42.9722214  55.4517175  36.3514793   6.1496183
  55.4842855  37.1123970   5.5698034  55.4108239  36.7233169   7.0306894
  99.8820973   3.9756525  10.2628728 100.4985429   4.5586956  10.7059213
  99.1808702   4.5531214   9.9611493  13.3823673  58.0363035  65.2667284
  12.6426975  58.5511112  65.5893660  13.1088630  57.1261930  65.3813028
   0.4498664  69.4224977  70.5111885  -0.0912388  69.8256159  71.1901140
   1.3050643  69.3051004  70.9248018  75.8357811  48.9831066  70.8388519
  74.9213362  49.0943670  70.5787659  75.8231688  49.0506649  71.7935801
 104.3709564  56.1921692  70.8845043 104.8303318  55.6762695  70.2218914
 103.9072800  55.5434942  71.4140844 105.0027943  58.7864828  70.7583666
 105.9340954  58.6401653  70.5924892 104.6357346  57.9077339  70.8547735
   7.4664775  92.5543785  87.1939373   7.0012371  93.3791828  87.0543098
   8.0700580  92.7387142  87.9136181  15.3873054  43.5299349  81.5244389
  16.2740795  43.8488054  81.6923046  15.3937427  43.2793379  80.6006527
  33.8921348  99.6816444  37.5981236  33.4460346  99.0929031  36.9893408
  34.1146556  99.1282845  38.3467960  89.2591859  23.8063229  17.7775880
  89.5264340  23.8718355  18.6943837  88.8741876  24.6598280  17.5787565
  16.2997524  63.0047607  59.1078901  15.8117858  63.8170624  59.2431355
  16.7533866  63.1337214  58.2749367  99.9521732  64.2833757  85.7112980
 100.8687592  64.4599104  85.9232807  99.6086216  65.1257753  85.4136944
  58.6476136  12.5444734   5.9550592  58.3770848  12.0355928   5.1908132
  59.5112420  12.1982801   6.1798497  74.0137577  90.9507942  79.3069124
  74.0905046  90.9671211  78.3529377  74.5899439  90.2374268  79.5813847
  78.2414675  88.4628963  60.5058670  77.6167679  88.8576984  61.1142302
  79.0963840  88.7700081  60.8075905  77.3840047  15.7970179   9.5545408
  76.5254212  15.4447830   9.7890493  77.4995233  15.5546272   8.6357709
 100.7911396  39.4213724  78.2279730 101.7082500  39.4333220  78.5018396
 100.4281044  38.6377501  78.6407375  85.1243497  36.7106045  28.1663724
  85.5771161  37.5493896  28.2540532  85.8220864  36.0565174  28.2059308
  98.2796192  47.6570415  63.9296293  98.4029961  48.3020449  63.2332230
  99.1448307  47.5674772  64.3291616  13.1933013  54.6547985  84.2412758
  13.4089939  53.8611174  84.7309494  13.8813583  55.2767038  84.4780159
   3.2800952  30.0772548  66.7372990   2.4750987  30.5734777  66.5890694
   3.0388061  29.1691899  66.5544748  99.9032594  33.8388527  11.4608690
  99.8734284  33.6132133  12.3906156 100.8109952  34.1006649  11.3069459
  31.6238872  68.0433369  58.4537220  32.2523300  68.1470060  59.1682434
  31.3359157  67.1327639  58.5182476 102.7209759  72.8901291  60.4319859
 102.6609230  73.7323046  59.9810266 102.4374294  73.0769062  61.3269424
 105.1615238  63.9532661  52.5881624 105.5034828  63.1178474  52.9065609
 104.2817783  63.7471819  52.2722435  44.6772195  62.5704182  20.3347131
  44.6232225  63.1116951  21.1223337  44.8559857  61.6887749  20.6617948
  99.9938488  94.2390347  72.9623556 100.6595612  94.0735149  73.6299372
  99.1654587  94.0266037  73.3923340   5.7976810  62.2451448  89.3996525
   5.8381835  63.1150007  89.7970772   5.6813041  61.6490030  90.1394558
   2.9748145  97.4061584  79.9358797   3.7733451  97.9303741  79.9972916
   2.7477542  97.4236202  79.0061617  93.3799362  52.3460531  81.2845325
  94.0830612  52.1826220  81.9131279  92.7648163  52.9092407  81.7542934
   5.3420535  88.6760616  58.5904789   4.8127452  89.4735241  58.5797453
   5.1291934  88.2585239  59.4251013  74.4183446  48.6426819   1.9607755
  73.5184575  48.9428223   2.0885679  74.3308259  47.8251064   1.4707204
 110.4335403  87.9892254  84.9005985 111.1508465  87.9165173  84.2709923
 109.6546745  87.7322960  84.4070530  17.0929519  41.0756350  73.6206818
  17.4404231  41.7040586  74.2535925  17.8666107  40.7362747  73.1706572
  79.7243877  98.6046145  45.1511240  79.3935771  97.8362576  45.6163311
  78.9394946  99.1025129  44.9225092  33.2849212  76.7010227  24.8647380
  32.9697461  77.6034013  24.8136473  33.9743037  76.6502539  24.2026114
  47.6113601  74.0744177  31.3726234  48.1276698  73.7454311  30.6368089
  47.5123878  73.3192340  31.9523907  66.4448261  29.5148277  43.0510426
  67.1087313  29.3165708  43.7114668  65.6111431  29.3896866  43.5044146
  74.6656084   7.5359124  53.7581778  74.4742107   8.3789736  54.1690922
  74.0628052   7.4888057  53.0161238  91.4188667  91.6057817  67.4538136
  90.5119701  91.5235034  67.7487612  91.8716903  90.8684925  67.8631878
  67.7099514  31.4851379  53.0325317  68.0377245  31.3294101  52.1467876
  68.4575129  31.2992048  53.6006927  61.4805651  23.1079674  46.9940948
  62.2320747  23.6566448  46.7695570  61.4969063  23.0588937  47.9499006
  46.8501759  12.5694704  41.4399862  46.6106749  13.4955585  41.4048958
  46.4245319  12.1828389  40.6747580  26.8169637  68.6398593  57.3120165
  26.7165132  69.5549098  57.5743628  27.7321763  68.5674444  57.0411396
  26.8058438  99.7807298  38.1054735  27.7160163 100.0665829  38.0273509
  26.2937684 100.5189059  37.7751565  32.0732255  78.3373657  80.9958839
  33.0045791  78.4567967  81.1817455  31.6957946  78.0613032  81.8310833
  59.2596817  15.8056605  78.8628054  58.9268017  16.6243172  78.4950733
  59.6619368  15.3555107  78.1199789   7.4616285  92.9476372  62.2254658
   8.2093568  92.4324838  61.9225645   7.4043412  92.7587954  63.1621027
   6.6860477   4.2846265  77.8494883   6.5669338   4.7818318  77.0402718
   7.6336948   4.2685053  77.9834127   6.5434308  97.7547363  44.8279810
   7.4043412  97.6718662  44.4178581   6.3609786  98.6942843  44.8141432
  41.3714976  93.7084929  57.9432869  42.0438142  94.1300515  58.4785509
  41.8590970  93.2809583  57.2392321  91.3078403  34.5013261  42.1376133
  91.5557384  34.2265844  41.2548351  90.4603481  34.0830922  42.2894907
  70.0706244   8.4710532  43.8287401  70.3294802   8.6586636  44.7309732
  70.8438015   8.6878115  43.3077335  91.0758114  46.1577845  28.5184622
  91.6648388  45.4472828  28.7723446  90.7117939  45.8784962  27.6783872
  93.8866806   7.9750437  86.0161591  94.1398239   8.6306292  85.3662682
  92.9705811   8.1724095  86.2111855  80.0303650  34.3899584  49.0421200
  79.7383261  33.7443185  48.3986139  80.8778191  34.6896410  48.7131214
   1.3104144  41.6108179  35.1899529   1.2501327  40.8512211  35.7692695
   0.4105274  41.7645979  34.9022126  65.6799126  10.4854155  26.3523865
  66.0953569   9.6359348  26.2039971  66.2544775  11.1129081  25.9137964
 109.6527151  50.8031407  21.4874673 109.2474750  51.4294568  20.8876824
 109.3562797  51.0766069  22.3555541  56.2598987 104.2154053  69.3427896
  56.0241981 103.7238667  70.1295996  57.1748634 104.4613241  69.4791269
  53.1328535   1.0794732  46.3645554  52.9842663   1.9323003  45.9560919
  53.8147640   1.2416657  47.0164156  70.5337524  13.4024012  71.6379452
  71.1918545  13.5533416  72.3164368  70.9512281  13.6987853  70.8291817
  79.6760464  13.9755976  41.7442083  79.5290136  14.4344962  40.9171534
  80.5658054  13.6302161  41.6715956  16.1712785  82.7109877  59.3345785
  15.5315871  82.2082511  59.8388433  16.9988723  82.5774041  59.7966099
  19.0641014  11.0374689  50.0317669  19.5224277  11.1427522  49.1980505
  18.1371585  11.0136867  49.7941780  52.3490997  89.8676005  62.3954487
  53.1774612  89.6132401  62.8020716  52.2454734  89.2603127  61.6628551
  70.7074976  22.8715348  49.5562696  71.6483021  22.7186203  49.4682932
  70.3113699  22.0104384  49.4227552  50.6092735  95.2043954  77.6198196
  50.1440711  95.1886574  76.7834091  51.5150733  94.9927131  77.3941135
  20.7469364  50.9950950  12.7637216  20.9463879  50.4761022  13.5428830
  19.8383328  51.2705003  12.8855058 107.9676056  38.4638667  59.5979309
 108.7525940  38.3927131  60.1410294 107.2516823  38.5695672  60.2244425
  13.5656253  31.1382842  42.4355650  12.9557697  31.5743613  43.0306673
  14.2197982  30.7419944  43.0110979   6.7763611  45.7567600   2.6953908
   6.2096306  45.0162987   2.9116365   6.1741730  46.4894090   2.5657007
  51.8842025 100.8711881  29.1547084  52.6672263 100.3835690  29.4103241
  52.2103019 101.7377988  28.9120579  40.9379144  93.8358346  12.9443669
  41.6709085  94.2228488  13.4230840  40.4207702  94.5859388  12.6508760
  37.9037519  99.6105138  45.0191212  37.8575082  98.6562375  45.0778675
  37.0005460  99.9021671  45.1431799  59.8799419  26.9982219  26.2702537
  60.1205158  27.5324082  27.0272231  59.4452238  27.6086640  25.6747603
  69.3058729  24.8884583  62.0037460  70.2290487  24.6920872  62.1631575
  68.8299894  24.2455626  62.5295353  82.7073860  15.2936935  64.2929411
  83.5174942  14.8082972  64.1369152  82.4414921  15.6008542  63.4262276
  76.6955090  25.0558567  41.5046406  77.5114441  25.4038477  41.8643427
  76.4336634  24.3728328  42.1220112  74.8092651  28.3201933  20.4557824
  74.1204166  28.8240504  20.8891988  75.0175810  28.8257790  19.6701503
  95.2587418  77.4437694   6.9365617  95.4976897  77.8035192   6.0823270
  94.4153266  77.8483991   7.1394273  64.2914963   8.6647820  50.0130367
  64.6856499   9.0395290  49.2253542  63.4216928   9.0618628  50.0577593
  49.3856430  11.6973293  61.7322779  50.2719164  12.0570612  61.6956329
  49.5122433  10.7485485  61.7366266  52.3615360  24.4398713  73.3649969
  51.6274977  24.4040155  73.9782906  53.0261421  24.9596882  73.8170242
  51.1193748 101.0317165  76.1563730  51.7486091 100.3322921  76.3327503
  50.6701560 100.7540518  75.3580427  19.5817653  10.0742614  52.4864149
  19.4134513  10.3250885  51.5781260  20.2753345   9.4170868  52.4288177
  93.1720543  20.4978371  67.8752518  92.6123810  19.7282338  67.7717638
  92.7214718  21.0358787  68.5261869 101.8552303  20.9252810  78.7638950
 101.2000561  21.0887599  78.0854750 101.7562199  19.9966121  78.9736652
 103.5887909  22.7283835  87.8910637 103.6460972  23.6360884  88.1894302
 104.4886875  22.4049664  87.9337502  72.6894474  32.6934004  41.5402412
  73.4412670  32.1944690  41.8597174  71.9508839  32.0894194  41.6174269
  61.9540882   4.7368786  63.7833738  61.6554737   4.5201665  62.9001427
  62.0150900   5.6921220  63.7879372  77.5365920  97.6153347  37.3266912
  78.0434985  96.9649885  37.8128219  78.1913562  98.2283399  36.9924140
 103.6084652  27.9255557  39.6200275 103.5445595  28.7698126  39.1735125
 102.7458191  27.5273228  39.5039701 110.5897713   6.4982098  55.7981443
 110.6572819   6.1649042  56.6928959 109.7018719   6.8510711  55.7403469
 109.0320778   0.7615028  29.3338394 108.7661362   0.2088235  28.5989571
 109.1288948   1.6347678  28.9540172  39.2843151  10.0410259  55.5862999
  40.1283979   9.5915729  55.5445099  39.3181872  10.6808460  54.8751640
  87.9427052   3.4486505  54.3620682  88.3676338   3.0378559  55.1150036
  87.1425343   3.8338158  54.7192955  86.7291160  99.4320915  36.1863756
  87.6643748  99.3503896  35.9996676  86.3103671  98.8143066  35.5870247
  89.5269489  37.4562287  37.8551674  89.3974781  36.8485093  38.5832763
  88.6428261  37.6450133  37.5406504  75.7553148   1.9125783   8.9205402
  76.1294508   1.0765175   9.1984850  75.1606655   1.6832639   8.2063687
  65.2347136  12.9425776  42.4518061  64.4332266  12.6835525  41.9971037
  65.9310913  12.4658978  42.0000696  39.4734235 101.2269503  54.1786242
  39.8749490 100.6351826  54.8148823  38.6751504 100.7763714  53.9029932
  10.4475299   0.8634099  53.6893368  10.5418865   1.3630304  52.8783417
   9.5531646   1.0435931  53.9789677  72.6134253  28.9772606  41.6463995
  73.4242630  29.4767070  41.5498447  72.8702068  28.1960726  42.1363449
  82.7976704  41.1163473  39.7403002  83.2828522  41.2699890  40.5509901
  82.4528217  40.2281666  39.8322201  36.3841911  97.3243097  58.9650440
  36.5485187  98.1474987  58.5050535  35.4908891  97.4101875  59.2980051
  70.6451464  13.1163597  52.7407503  71.0891104  12.2964382  52.9572105
  70.2897358  12.9720092  51.8637800  92.0987797  17.0408213  62.6561546
  93.0179310  17.2905517  62.5611448  91.6174603  17.8644741  62.5776815
  87.5203896  30.4218340  65.1033401  87.7546692  30.7712030  65.9631586
  87.3532295  29.4924355  65.2598906  87.0099926  25.2347684  52.8058672
  87.8005028  25.5868769  53.2149458  87.2166634  24.3154693  52.6373243
  81.3714409   4.3282989  29.1735840  80.4500961   4.5516148  29.3058133
  81.4056587   3.3780050  29.2831373  47.1211433  19.9130905  53.6124325
  46.6682339  19.8687613  52.7703285  46.9600010  20.8035374  53.9244747
  73.8141060   0.5650607  59.5394802  73.6036110  -0.1115365  58.8959408
  74.7424936   0.7500121  59.3976068  93.3402443  34.9744129  66.3474178
  92.7081394  34.8620796  67.0573854  93.2457256  34.1843557  65.8153391
  30.0607581  88.4104613  66.9528770  29.3042751  87.8567854  67.1462917
  29.9795337  89.1471211  67.5586557  19.9866096  37.9959583  65.0296450
  19.7707073  37.5038147  64.2375469  20.9392826  38.0852938  65.0039101
  97.3945904  51.6469431  73.7283945  97.5992393  50.8375168  74.1965580
  96.4383507  51.6897297  73.7306833   5.4369823  23.1442809  52.1370697
   4.7373477  22.4966359  52.0515585   5.3242580  23.5038686  53.0169678
  95.4861450   0.5958810  79.3724918  96.2745667   0.7632560  79.8888302
  95.7448673   0.7879258  78.4711552  46.4566326  35.9433651  47.4014616
  45.5782938  35.5825758  47.2806740  46.4452982  36.3104606  48.2853985
  90.9113026  47.7258825  25.5952001  90.8378792  47.9638100  24.6709538
  91.4031601  48.4461355  25.9895921  75.9666348  17.6500106  56.4390326
  76.1188126  16.7607987  56.7589998  75.0163364  17.7585769  56.4761972
  11.2335057  90.6875602  76.7565870  10.8354516  90.2665070  77.5184917
  11.4492603  89.9638370  76.1684513 109.1147995  11.4491785  73.2226467
 110.0137901  11.7591405  73.1131983 108.7176228  12.0752549  73.8280487
  48.3734031 102.1402470  41.9556665  49.0424152 102.8114188  41.8208075
  47.7532001 102.5394571  42.5657511  97.7916050  20.0671577  36.1053443
  98.0700779  20.1279283  37.0191240  98.2792377  20.7599235  35.6597781
  66.0188103   5.3751898  74.9238205  66.0484838   5.5686641  73.9868450
  66.3591528   4.4833872  74.9951363  25.5370660  93.4779349  63.5424137
  25.5466552  94.3862680  63.2406330  25.6631799  92.9600564  62.7473497
  72.7380896  15.0258708  60.8181334  72.6655197  14.1653788  60.4051924
  73.6737776  15.2259445  60.7919741  91.7914391  21.7884016  51.8847322
  91.8488598  22.6102495  52.3720741  92.2327328  21.1478353  52.4425554
 106.3555102  67.6494578  12.0297166 106.3465409  66.6970889  12.1253320
 105.8255200  67.9685155  12.7601548 107.0804882  15.9284794  35.9349418
 107.0401192  15.5884850  35.0410700 106.9946003  16.8765330  35.8346987
  83.4592533  14.1100001  50.5860424  83.6858082  14.9492884  50.1854181
  84.1028214  13.4950805  50.2340174  83.7877460  86.9221965  17.8997123
  83.5631461  86.5522042  17.0459604  82.9609389  86.9310239  18.3819330
  22.6057243  23.9223123  53.5998297  21.7289519  23.5860157  53.7853098
  22.9286647  23.3695817  52.8881884 110.6603622  18.2968891  46.9175529
 111.3929462  17.7966797  47.2771931 110.8722019  19.2088139  47.1169186
  58.2855601  79.3949929  35.2538347  57.5602241  79.2908088  35.8696818
  58.7218185  80.2004329  35.5316448  88.3316989  95.9915290  85.5985451
  87.5797839  95.9253553  86.1871719  87.9762836  96.3787625  84.7985744
  85.3300190  18.6972749  20.8846593  85.0716782  19.2558241  21.6178155
  84.5806217  18.7212622  20.2896237  91.1962318  11.3171494  49.6555376
  90.5292130  10.8527887  49.1498852  91.3605404  12.1176302  49.1570759
 109.3483734   2.1308450  73.1261826 109.1792965   1.8857178  72.2164822
 108.5514164   1.8807946  73.5936975  64.3695402  28.7702894  62.2785187
  64.5220709  29.4150257  61.5876627  63.7916231  29.2154741  62.8982401
  83.2373524   2.6488209  39.3552876  82.8004360   2.5460699  40.2007341
  82.8898525   1.9369191  38.8180089  17.5337167 102.2814650  70.3913069
  18.0255647 102.0934016  69.5919609  16.6419597 102.4534487  70.0889397
  85.0602818  25.6264138  45.5816174  84.2282009  25.3576088  45.9709930
  85.5326366  26.0528708  46.2966347  63.2467604   2.9822078  36.7331386
  63.2041550   2.0424232  36.9098353  63.0013561   3.3931395  37.5620794
   7.8817550   9.7183919  41.4116907   7.4207012   9.0904993  41.9679356
   8.1238262  10.4303885  42.0038843  82.2332187 102.7917113  46.6656685
  82.8121371 102.0440910  46.8144941  82.3069472 102.9687778  45.7278824
  25.1154033  81.0650158  58.6008739  25.4525272  81.2870693  59.4687843
  25.2706043  80.1242065  58.5171366  82.2134018   6.3904977  74.9751043
  82.8819180   6.0166538  75.5491781  81.4381218   5.8499169  75.1265430
  26.9095607  98.1455318  30.6843996  27.4738069  97.4571887  31.0365963
  27.4172254  98.9498392  30.7920980  58.2934761  22.4032903  57.5181580
  58.7737703  22.4184537  58.3459997  57.7142572  21.6447353  57.5911665
  96.0785675  26.0553002  71.4622831  96.7756557  26.1220193  72.1148539
  96.4932346  25.6304097  70.7114506  87.7300262  13.9308071  44.6536541
  88.1211090  14.5009673  43.9916801  88.2029533  14.1396284  45.4592371
   5.6690208   4.9926504  71.1415005   5.2592842   4.6421516  70.3506136
   5.1567546   4.6229362  71.8606186 101.7371273  24.2814660  17.0898914
 102.6377010  24.6054530  17.0750022 101.8171597  23.3434343  16.9168961
  38.2033963  95.6854031  34.7579718  37.8251453  96.4245788  35.2341843
  37.8375907  95.7560984  33.8762569  96.2903118  41.5632486  47.5963306
  97.0578671  41.1153984  47.9520226  96.2033653  41.2198830  46.7070770
  83.1789966  88.7974576  53.1304550  83.1498809  88.0068222  52.5916767
  83.4618087  89.4866220  52.5293732  92.8697205  28.8685250  55.3368044
  92.4088001  29.3498564  54.6497011  92.2632599  28.1724691  55.5896807
   6.4521209   3.2976454  67.4245453   7.1375362   3.8446480  67.8082418
   6.5282051   3.4445128  66.4817476  84.9523450  14.9311579  16.0597440
  84.7154904  14.2801893  15.3991529  85.7410813  14.5783747  16.4716455
  62.0195193  97.5103537  68.0615044  62.2360034  98.2870570  68.5773516
  62.8186889  97.3182509  67.5709391  66.9032335  22.4306202  28.4951735
  66.2210369  22.7085638  27.8839564  67.5943565  23.0855083  28.3966827
  26.3428540  89.7175530  78.6451674  26.0310168  90.6137935  78.5197020
  26.8822761  89.5415155  77.8742838 105.7593536  27.0785809  44.6698523
 106.5904617  27.1865916  45.1322603 105.0990772  27.0699048  45.3628159
  85.1820183  24.3879151  43.1675768  84.7184086  25.0766683  42.6912165
  85.3850269  24.7793102  44.0171814  53.9856906  90.7572237  69.7731066
  53.0702491  90.9446517  69.9806356  54.2183109  91.4058319  69.1087055
  90.2525806  20.8445120  55.9652376  90.0656128  19.9344432  55.7349110
  91.1709404  20.8394694  56.2350750  93.4786701  17.4151170  51.0202503
  93.6346340  16.4714229  51.0569668  92.9473114  17.5396442  50.2338743
  64.8952103   5.7831669  59.5400238  64.1622543   6.3987046  59.5288563
  65.0057793   5.5257660  58.6247349  66.6649342  27.2705102  61.3225842
  65.7912064  27.6065969  61.5222788  67.1170855  27.2625399  62.1662283
 102.5797558  20.3561020  49.6180630 101.7023277  20.6738114  49.4049597
 103.1511879  21.1080122  49.4620800  94.9496555  14.9087477  50.6851530
  95.2602863  14.5182705  49.8682880  95.7393837  15.2551866  51.1005259
  41.5080018 104.3918161  34.3441439  41.8158193 103.5560455  33.9934754
  40.5716510 104.4044619  34.1458583  80.0874329   0.5770032  53.1942558
  80.7930374  -0.0587440  53.0751753  80.4989910   1.4253107  53.0292702
  14.8537437  45.5055332  72.9847479  13.9399234  45.7151651  73.1776571
  14.8138706  44.9626160  72.1974182  89.6972752   6.6855621  47.7116823
  89.5175552   6.7268521  46.7724133  88.9278412   6.2548250  48.0840588
  75.6081390  22.7621174  58.7353516  75.4595089  23.6962032  58.8824177
  76.5414715  22.6380420  58.9077616 100.6523609  41.8328571  50.5431652
 101.3331223  42.4922705  50.6772232 100.7238865  41.5995073  49.6176004
 101.5485764  18.5726905  47.3390675 102.0306587  18.9124680  48.0929756
 101.5424728  17.6240218  47.4664259  73.0906248  17.3410642  39.6018028
  73.2081890  17.3228896  40.5515814  73.1814671  18.2645226  39.3668485
   9.5481674  20.2811003  34.9483132   9.7110645  19.4261098  34.5499539
   9.4331638  20.8735132  34.2053103  55.8180237  28.1809187  47.3927212
  55.8743954  28.7409806  46.6185188  56.4949894  28.5160899  47.9806042
  61.8079519   5.4336643  85.7656097  62.2064877   4.6773237  86.1961365
  62.1902752   5.4387450  84.8880959  79.7520065  57.5372553  78.3528662
  79.2846727  57.3512316  77.5384760  79.9011374  56.6770267  78.7452936
  71.6546631  31.7805791  48.9338064  71.1666012  31.0176420  48.6240387
  72.3591757  31.4135647  49.4678354  71.0785098  86.6099516  33.5564756
  71.0701080  85.6598106  33.4407520  70.7901855  86.7438260  34.4593501
  66.9203424  24.3253279  32.1031475  67.4446535  24.1155434  32.8760123
  67.4223232  23.9702082  31.3695717   3.5308257  45.1470375  31.4811850
   4.3079082  44.9651480  30.9527016   3.4732429  44.4066620  32.0851350
 101.5826130   8.5910356  56.7655325 100.9385204   7.9004604  56.6090679
 101.4100838   9.2387557  56.0822153 105.7597828  52.1148682  22.1662712
 106.2248898  51.6106462  21.4986873 105.0288296  52.5168276  21.6968346
  95.9986973  35.1614237  62.2284985  96.3797569  35.6681871  62.9455805
  95.9068489  35.7905674  61.5129709  97.9628468  36.0445309  14.4509816
  98.5851192  35.3691173  14.7208345  97.6159859  36.3925958  15.2724254
  92.9726791  45.4849052  50.7636547  93.1265545  45.6656647  49.8363590
  92.0269108  45.5836487  50.8731985  86.6505432   9.7562575  38.1484509
  86.1360836  10.4791260  37.7892518  87.5591850   9.9940735  37.9639077
  77.9868126  12.6009250  58.8274813  77.2581005  12.3806262  58.2472372
  78.1881523  11.7821550  59.2805958  75.1549101  25.2208424  58.7388802
  75.8482170  25.8439517  58.5214138  74.6192884  25.6757069  59.3888330
 105.4230118  41.1664248  45.9462690 104.9733448  41.3636160  46.7679358
 104.7995663  41.4192677  45.2653742  74.1323519  17.3026049  42.3363209
  73.8772774  16.7397594  43.0673313  74.8651791  16.8440342  41.9253302
  99.5919895  36.7178822  85.5172634  99.4190884  37.6506233  85.3894806
  99.6292019  36.6091800  86.4675426 100.8793640  16.4813912  50.1131678
 100.3194714  15.7053971  50.1374388 101.4240074  16.3595414  49.3355131
 107.2548771  25.0652003  58.3889580 106.8010044  24.2224503  58.3907890
 107.9806519  24.9450350  57.7765465  82.3641777  36.9769335  86.0458374
  82.1243954  36.5927219  85.2025604  81.7722416  36.5636182  86.6743374
  57.2880174  11.5072525   3.3898279  57.4808312  11.4598263   2.4534437
  56.7260648  12.2768724   3.4799691  96.3766766   7.3367816  86.7294502
  95.4504585   7.5578332  86.6320419  96.4727497   7.1098065  87.6543713
  83.3469958  97.4792490  45.4601288  83.2589717  98.4226463  45.3241730
  84.2590614  97.3594735  45.7247591 109.8046589  57.1074152  46.6867781
 109.0127182  57.4277020  46.2549543 110.5231857  57.4649763  46.1651421
 101.2117386   8.7130737  30.9837747 101.9079018   8.7650782  30.3288817
 100.7751465   7.8805017  30.8036375  64.4639011 103.5386777  27.7420712
  63.9442821 103.5539028  28.5458088  65.2360625 104.0663100  27.9460382
  85.2726646 105.0670711   8.5545856  84.9938579 104.1527564   8.5043037
  86.2273688 105.0237393   8.6083400  85.3305244  25.8891916  57.7642584
  86.0102177  25.3257775  57.3943806  84.7496128  25.2886748  58.2313299
  98.5072899  43.3681297  55.4073334  98.8352203  43.0018377  54.5860386
  98.9989567  44.1816425  55.5199766  67.4849982  79.1763774  73.5507727
  67.6971431  78.6425153  74.3164158  66.6857906  79.6418825  73.7973690
   0.8398525  16.4037371  29.0222144   1.1843387  17.2960901  29.0578127
   1.3978759  15.9567952  28.3857441  90.2725410  29.4481206  84.3142319
  90.6294918  29.6941161  85.1676369  89.7803879  28.6446714  84.4830418
  60.7874198  92.6982454  59.1183710  59.8599620  92.7107397  59.3548012
  61.1367126  93.5146633  59.4757128   5.9235469  29.6246243  36.4480090
   5.4983131  30.4800010  36.5091467   6.8595401  29.8235989  36.4244080
 102.2651859  72.8800241  38.8326383 102.6371474  73.0101696  39.7049570
 102.7579780  73.4778443  38.2704997 100.0323200  21.2054038  54.7489882
  99.8444080  20.2784276  54.6019077 100.2488041  21.5465236  53.8812304
  83.0489159   9.8681629  34.5640230  82.9390812   8.9651263  34.2662072
  82.4010372  10.3654635  34.0648460 104.9173641  52.8967571  57.7026987
 105.7011604  52.6335382  57.2204065 104.2371178  52.2946072  57.4011803
 109.7061443  25.8632445  51.6391182 109.9472237  26.1592293  52.5169039
 110.5294037  25.5651069  51.2523603  81.7540741  21.7917824  45.7283640
  82.3060513  22.3868203  45.2209330  81.2860298  21.2788343  45.0695324
  99.1907883  16.6791439  83.6981297  99.7625351  16.0700202  83.2308960
  99.6947861  17.4914682  83.7465286  69.2926594  96.7380456   6.0588094
  68.7585350  97.5191812   6.2029191  68.8166424  96.2419108   5.3928586
  87.0697308  19.1785276  67.4861765  87.0300770  19.3952489  68.4176731
  87.9501057  19.4402933  67.2166395  78.2846975  46.6692781  77.0941782
  78.9296150  45.9846306  77.2718382  77.9158974  46.8793678  77.9521322
  10.0775234  26.4761496  35.2888823  10.2285758  27.2754860  34.7844243
   9.6358673  26.7745543  36.0839438  92.5355625  46.1842108  33.2413340
  92.7167797  46.0754919  32.3077536  91.8015766  45.5943060  33.4131265
 111.3049321  52.5897330   0.9545442 110.6487470  52.0638875   1.4118596
 111.6110520  52.0259215   0.2441617  71.1354208  32.9481387  45.9442568
  71.5628767  32.3730183  46.5788794  70.2478695  32.5987530  45.8641911
 109.7438622  68.9551449  25.4577971 110.5437851  69.2531395  25.0247145
 109.0347958  69.3313360  24.9363303  44.2269989  66.8187646   1.3290330
  44.8714348  67.5107674   1.4775583  44.2376419  66.6808514   0.3818818
  90.4661369  51.7469406  62.3841715  90.3112698  51.7852783  63.3279848
  90.6555557  52.6516819  62.1355963 108.5834408  10.4059851  63.8955927
 109.4679737  10.2970600  63.5463428 108.0394077  10.5656624  63.1243849
  17.6695243  17.6394355  64.4539976  18.0912963  17.1959782  63.7180042
  16.9676582  17.0458364  64.7209454  99.8693180  21.4666367  68.5169363
  99.7042942  22.4074340  68.5793877  99.0097046  21.0838056  68.3416080
  73.4918833  27.7490449  48.8437033  72.6393127  27.3139048  48.8470984
  74.0937233  27.0995712  49.2072964  78.2841778  14.0337873  48.9897776
  78.1425476  14.6760309  49.6852589  79.1000319  14.3093383  48.5718203
  92.9693127  45.7886410  58.1758833  92.5996399  45.1501560  58.7857246
  92.8389359  46.6338539  58.6058283  86.3258362  34.9719357  42.4585009
  86.4804173  35.7274795  41.8914986  85.7222843  34.4193339  41.9619274
  98.5833931  18.8398862  45.4203367  99.3786240  18.6026871  45.8973932
  98.5874462  18.2713127  44.6503067   1.7750350  59.6004248  36.3919067
   1.3915817  59.7976160  37.2464919   1.0611812  59.1997957  35.8957767
 107.6050663  21.0022211  67.3110437 106.9345856  20.3770900  67.5865173
 107.4735165  21.7607284  67.8798962  97.5716114  61.7342663  25.7785773
  98.2162380  61.4000607  26.4022756  97.0115185  60.9820986  25.5868411
   6.9492904  33.9920521  42.9152584   6.9492999  33.0443764  43.0499458
   6.4043323  34.3346548  43.6236858 102.0090485  24.4874763  68.7788343
 101.7040253  25.0014973  68.0311871 101.7596436  25.0060487  69.5437574
  61.8729869  12.1646285  86.0410404  61.7067424  11.2957394  86.4065933
  62.2426311  11.9933522  85.1748657  89.3716526  28.1263041  74.4983673
  88.9626789  27.3210835  74.8155212  88.7040043  28.5324025  73.9455938
  23.4659187  17.0644987  28.0252361  23.3733455  16.3674223  27.3758149
  23.2614128  17.8672862  27.5457120 104.2271137  33.2590437  27.3693609
 104.1919708  32.9257154  26.4727640 103.3417797  33.5802603  27.5403476
  94.4235802  15.3779721  57.6145601  95.2509785  15.7399452  57.9317617
  94.4215393  15.5708599  56.6769981  82.0921230  54.1270447  34.1117740
  82.2127628  53.2264042  34.4126534  82.5599575  54.1655779  33.2775831
   1.8376819  34.2526436  72.0998573   1.5548793  33.5705805  71.4907217
   1.0241023  34.5973349  72.4679804  97.2511387  31.5887547  65.3603172
  98.0363750  31.1280346  65.6559038  97.5428963  32.4881864  65.2115536
  94.8028851   3.3165699  39.5307660  94.5463753   2.4187279  39.7412801
  95.7554722   3.2795566  39.4445634  99.0355110   9.9271131  48.8336611
  99.2880440   9.4363952  48.0515766  99.7917080  10.4828370  49.0222883
  89.6250820  21.3261485  45.1712513  89.1565418  20.6029177  44.7545481
  89.7150707  21.9827700  44.4806147 107.4678993   1.2866010  82.3648548
 106.5165997   1.3805981  82.4140358 107.6106834   0.6670119  81.6493416
 103.2044220  18.3421838  72.1206236 103.0070782  18.7000072  71.2550306
 103.5764027  17.4781871  71.9435120  52.4520583 100.9848738  67.5636864
  52.9416175 101.8012038  67.6645231  53.0605979 100.3938526  67.1202898
  74.1467094  20.4998541  59.1603136  73.5535002  20.7564211  59.8663664
  74.6884060  21.2744379  59.0092564 104.3939400  34.2261648  63.0080557
 105.2344131  34.1326237  62.5596333 104.5541859  34.8868990  63.6818409
  20.5287448   7.8939551  46.4684296  21.0573379   8.4182173  47.0700741
  19.9546710   8.5282260  46.0390472  90.5617905  20.6346369  49.7821712
  91.0995483  20.8703232  50.5381489  90.5914879  21.4066696  49.2170906
  76.6635752  14.9613464  54.1493654  76.3781643  15.8670247  54.2698574
  77.2681665  14.8023021  54.8742104   8.1186382   1.1980969  50.0237703
   8.1475250   0.4923791  50.6698084   7.4868099   1.8228897  50.3796625
  17.5074474  38.7113714  54.4839382  18.3199111  38.4276152  54.0648699
  16.9133560  38.8935590  53.7558651  95.4933167  21.0257125  66.9380522
  95.2291203  21.0694051  66.0190725  94.6743202  20.8987069  67.4169445
 107.6667595  23.2861423  53.1871223 107.1482754  22.6514339  53.6816454
 107.2002506  24.1146159  53.2977438  98.8347721  15.6336439  28.2618856
  98.4097481  14.8185146  28.5286283  98.3893394  15.8820891  27.4518847
   3.6399642  43.3450603  60.2322817   2.7339164  43.3459520  59.9235678
   4.1325370  43.7706518  59.5305109  71.9281435  19.4802582  47.1786547
  71.7372084  18.9840484  46.3826990  71.7358017  20.3887343  46.9464731
  24.1571132  47.9076195  67.7189875  24.0979663  48.3169603  68.5822201
  25.0911037  47.7360725  67.5987482   2.7894016  35.0479177   2.2974702
   3.0097862  35.5143444   3.1037637   3.6217877  34.6836654   1.9963285
   6.0308925  55.5774641  74.1636944   5.3697483  55.5389261  73.4725809
   6.4109794  56.4522552  74.0830326 110.0043488  42.2531700  49.8010349
 110.4709530  43.0462980  49.5374870 109.3915653  42.5484037  50.4745102
  29.8024746  85.8956603   0.9032556  29.4737049  85.7617263   0.0143167
  29.0183064  86.0634426   1.4258977  89.8408508  42.4655294  26.3468385
  89.2222309  43.1737900  26.1681938  89.4780636  41.7088270  25.8863783
  73.7028308  86.9761518  78.8296890  72.8881831  86.5809325  79.1401529
  73.5421748  87.1603790  77.9042244 106.6855864  81.0651759  11.6236421
 105.8563809  81.0330919  11.1465570 107.0332389  80.1756314  11.5597650
 100.6579113  21.6162372  73.8010693 101.1126232  21.4104939  72.9842806
  99.7500038  21.7673969  73.5382414 109.8642445  19.9769676  81.0373116
 109.1772461  19.6094429  80.4812622 109.5177650  20.8240247  81.3178158
 111.1478615  48.6775398  66.0634708 110.6108665  49.1615868  65.4361200
 110.6257057  48.6642361  66.8655968  93.8735294  17.3306739  73.5821962
  94.2024803  17.7710032  74.3658590  93.7818909  16.4142668  73.8430262
 105.9510517  88.5927677  47.3920870 106.5757465  88.2804775  48.0466557
 106.4869976  89.0677261  46.7569399  94.0389152 102.1773929  61.7416811
  94.4013400 102.7126840  61.0357428  94.8014350 101.9085274  62.2540379
  46.2183948  98.7314770  67.9058027  46.4674564  98.1913743  67.1558142
  46.7605777  99.5163057  67.8263521  88.5022926  26.7412567  56.4276695
  87.7210712  26.2921262  56.1048555  88.3982182  26.7488527  57.3791647
  83.3664608  27.9330993   0.6778368  82.5801468  28.2347417   0.2229086
  83.4786701  27.0278811   0.3876278  16.8342396  76.6804818   1.5785238
  16.5293213  75.8652238   1.9767877  16.1702057  77.3269943   1.8179056
  80.2045918  34.4764853  44.8840380  79.3898630  34.5139623  44.3829966
  80.0144100  33.8775039  45.6060410  15.0044242  29.8632669  44.4657087
  14.9880115  29.9365640  45.4199553  14.9260894  28.9244556  44.2962170
  32.6585388   4.7555795  66.1327553  33.3234167   5.3778315  65.8378458
  32.9102492   4.5442629  67.0317650  24.7883026   2.2365358  43.0869579
  25.7361595   2.2947159  43.2069826  24.5504562   1.3901305  43.4654570
  97.5724125  21.9465160  60.3741741  96.8289471  21.9208789  59.7718048
  97.2572517  21.5045238  61.1625576 100.2439976  50.8601809  64.9495459
 100.8955669  50.5323315  64.3297100 100.7494164  51.0895395  65.7294035
  93.7408347  89.2327145  76.6323423  94.5065303  89.4241932  76.0907888
  93.9196773  88.3684949  77.0029783 100.4318333  42.4433231  88.0862904
 101.1241722  42.9332590  87.6426029 100.8532429  41.6291380  88.3615303
  82.7384663  12.6610577  35.0842953  82.2668076  13.2524073  35.6708741
  82.0734119  12.3542249  34.4680238  19.6825591  10.7495737  55.3240585
  19.4322196  10.8625937  54.4071102  19.9683658   9.8379874  55.3836966
 111.2389278   5.5928683  75.6897926 111.3565159   5.1470363  74.8509598
 110.9066868   6.4595509  75.4558897  15.7035438   8.5151762  38.8516784
  15.6025974   7.6219535  38.5227489  16.5365020   8.5040838  39.3231487
  88.8355255  46.3995123  71.5711164  89.6829796  46.1791420  71.9577503
  88.8260078  45.9349823  70.7342434 100.2482605  28.3688426  51.1636639
 100.0543308  29.2634702  51.4434242 100.1223850  27.8391099  51.9509220
  73.3022070  23.7168360  36.2516904  73.8742352  23.2436919  35.6474161
  73.4304237  24.6392012  36.0302591  80.0505924   6.2295347  47.7612114
  79.6786690   6.0714012  48.6289072  79.5522881   6.9715381  47.4186325
  34.1459838   5.0547326  49.3494558  34.1765777   6.0113841  49.3387461
  34.2405692   4.8223981  50.2731991  83.2139015  37.3794484  17.0170581
  83.2576942  37.5653267  16.0791016  84.0599918  36.9815922  17.2221482
  86.0951710  55.4233074  74.3158531  85.7722569  55.2593184  75.2018929
  85.3584957  55.1993752  73.7471771  89.5915604  47.1522379  59.6596050
  90.4245567  47.4375153  59.2841578  89.5171833  47.6429510  60.4780865
  85.2464867  28.2430029  16.3273287  86.0676289  28.7346053  16.3440394
  85.0040150  28.2131171  15.4018307  23.1694455 104.5392267  56.1886024
  22.7567620 105.4019316  56.1478424  22.5883479 103.9715818  55.6823063
  12.1058074   2.5626719  18.8247824  12.4542514   3.0898073  19.5437753
  11.2267677   2.3162872  19.1125584  95.0116730  10.9483993  48.3554411
  94.3800926  10.5379272  48.9460754  94.4772625  11.3173044  47.6522017
 102.4696350  23.8060546  42.3058796 102.8832722  24.3667173  41.6495323
 103.0710030  23.0677748  42.4035168  16.4738361  61.2163973  21.3347387
  16.8874351  62.0069170  21.6815090  16.1982433  61.4584160  20.4505944
  96.6640759  26.6556883  83.1196594  97.4279785  26.8425465  82.5739765
  97.0221996  26.2150335  83.8902378   2.8885452  20.1805186  24.2976522
   3.4816257  19.4475675  24.1325116   2.0613376  19.7679687  24.5461798
  87.8751659  12.2274077  54.0075159  88.7649822  12.5769305  53.9597273
  87.3354626  12.8855717  53.5695887  78.3946133   9.7363734  19.3116665
  77.8613520  10.1178288  18.6142743  77.8608751   9.0208304  19.6571445
  26.6688057  67.6791100  12.0064279  26.9889160  68.5045222  11.6424772
  26.5870663  67.8469995  12.9452344 110.7851124   9.6648359  62.5670290
 110.2767467   8.9212930  62.2430849 111.3412666   9.9144489  61.8290424
  95.8516884  17.2393155  65.0438976  96.4284992  16.5516472  64.7112846
  95.7672024  17.8542709  64.3152523   4.9567882  58.0006504  67.2428036
   5.3197757  58.7019682  67.7837515   5.0766364  58.3054638  66.3433838
 106.6138268  33.2613897  64.6328306 106.9137096  33.3054972  65.5407715
 106.0028648  33.9931774  64.5465708  84.8665047  22.8581071  72.8254986
  85.6747437  22.7512813  72.3239470  85.1315594  23.3445024  73.6061382
  67.0445152  99.3049512  48.7794542  66.8016048  98.3839331  48.6848450
  67.8101249  99.2929444  49.3538570  60.1572509  97.7305225  51.3600016
  60.1249881  97.6259384  50.4090786  61.0768886  97.5900785  51.5853405
  96.7474270  32.6095486  41.9369411  96.1828804  33.2886314  41.5676641
  96.2039089  32.1789145  42.5967741  81.5384674  36.8883371  45.9839487
  81.4213371  35.9390378  45.9473038  81.7566586  37.1375847  45.0858927
  80.6746674  12.4631572  57.0196724  80.7825661  12.4657166  57.9707670
  81.4781189  12.8626847  56.6863966  66.0740943 101.6884757  90.6294727
  65.9428783 100.7865617  90.3369522  65.6577010 101.7239479  91.4906216
  18.5338680   2.6862213  59.5600319  19.3408004   2.5429881  59.0654898
  18.4880725   3.6355147  59.6739483  94.2882729  85.1107311  57.4314308
  93.4515285  85.3723240  57.8156900  94.9370098  85.3242779  58.1020784
   1.5924159  52.4435520  48.3176231   1.7261783  51.6161299  48.7799120
   1.4967910  52.1919537  47.3990440  28.4875671  56.2853479  66.4768457
  28.2710163  55.3529930  66.4844131  28.0655757  56.6228390  65.6867456
 103.2558060  14.6507025  86.6995716 103.4750652  15.0525987  85.8589554
 103.9877796  14.8792350  87.2724819 108.8284874  13.3270800  78.4336948
 108.0898762  12.7308130  78.3106470 108.5753059  13.8713455  79.1792822
 106.2082100  51.3692570  80.6399345 105.5274105  50.8284235  80.2396202
 106.3555813  50.9722567  81.4983654  73.9903259  17.1091723  81.3813114
  73.5323429  16.9405186  82.2047520  74.5374298  16.3350260  81.2486267
  40.0129219  84.8646287  13.5201570  40.2519032  85.0529222  12.6126024
  40.6934544  85.2915911  14.0405484   5.2194449  75.6400875  13.7614175
   5.6317183  75.4043821  12.9303285   4.3406674  75.9317044  13.5186311
 102.2592831  58.2818365  79.5381784 101.7967319  57.9145765  78.7849236
 101.6368389  58.8980150  79.9243355  53.7533469 103.1603319  63.4446907
  54.4190688 103.6807348  63.8943911  54.1579814 102.3003349  63.3310843
  11.7321102  64.4905090  45.3124237  11.3325206  65.3302193  45.0855970
  11.1797229  64.1439009  46.0131121  92.3221779   9.8704153  38.4190845
  91.4931107   9.4110703  38.2853723  92.6390362   9.5516199  39.2641902
   5.8166400  47.9177475  86.6499329   5.5153839  48.3824205  87.4306774
   6.7298213  48.1862736  86.5488338  84.2504978  59.6528578  55.5994987
  84.0736103  58.7216663  55.7329702  83.7069893  59.8948288  54.8496437
   4.0174858  27.7713799  56.5985537   4.2966739  28.6823535  56.6902924
   4.6507636  27.2735620  57.1156263  80.4893970  31.4912009  40.5991411
  79.6420383  31.6801953  40.1960278  80.3824520  30.6217957  40.9850550
   9.7459213  41.8922520  63.8758183   9.6512119  41.0749674  64.3650103
   9.8089401  41.6178703  62.9609537  47.0237780  23.1369233  19.6550810
  47.3142767  22.7553034  18.8267052  47.7138948  22.9100466  20.2783751
   3.2296173  36.5678477  67.7059555   3.4328643  36.5602803  68.6412954
   2.2733203  36.5496421  67.6685047  30.8252999  83.4118799   1.3265439
  30.8122631  84.3590096   1.4643976  30.1500126  83.0748323   1.9152852
  30.1918454 100.2681900  26.9811153  30.3599591 101.2100599  26.9519591
  29.4918866 100.1696960  27.6265526 101.1801910  21.9277191  52.2529030
 100.9233761  22.8023052  51.9607115 101.0201645  21.3653874  51.4950085
 104.2224693  54.5432234  50.5751228 103.4692669  54.6880531  51.1477900
 103.8870811  53.9827108  49.8754263  30.5381385  45.2184296  55.8830023
  29.9473087  45.5705452  55.2172947  30.0221626  44.5479107  56.3306665
 110.6893539  21.7031765  60.0802088 110.8753109  21.4046478  59.1899681
 111.5259457  22.0419955  60.3988695  21.4933101  41.0416937  35.6009459
  21.2627307  40.1582146  35.8882380  20.6756107  41.4035177  35.2593541
  15.1050850  80.2863149   4.5499059  14.9407288  79.8207716   3.7298509
  15.9907242  80.6363682   4.4532415   0.9378997   1.5016803  87.4864483
   1.0345451   1.4752270  88.4383869   0.4887859   2.3292401  87.3142052
  54.6809292  29.1060209  57.8133583  55.5423212  29.4443107  58.0578947
  54.2791796  28.8509512  58.6438799  50.4965205 100.2086479  42.7482367
  49.6705337 100.6911171  42.7135181  50.3354640  99.4204089  42.2296143
  86.5377331   7.4488354  39.2349887  86.5135860   8.2680362  38.7404609
  85.9451866   7.5964755  39.9720931  68.9951468  21.7598152   8.5947096
  68.4604025  22.4880838   8.9107782  69.8912668  22.0013428   8.8289565
 103.0161476  26.2592435  58.9719057 103.1585026  25.6381583  59.6862030
 103.7441063  26.8767285  59.0427685  46.7386718  98.3491871  32.8843212
  46.9388766  99.2140285  33.2423687  46.3638492  98.5279182  32.0218825
  57.1711822  98.4583822  48.6063910  57.2139259  99.2162797  48.0233002
  57.5519176  98.7669847  49.4286013 101.1819267  42.1673346  39.7213793
 100.7516575  42.0622015  40.5699348 101.3425541  43.1082010  39.6492171
  78.5573721   8.7889075  24.8764706  79.2567110   9.4286799  24.7428608
  78.1511831   8.6946291  24.0148711  90.4139900  23.6933565  43.5674286
  89.7426891  24.1404653  44.0828800  90.5215645  24.2396903  42.7888584
  25.2842804  60.1036409   9.1593858  24.4674870  60.1095329   8.6603566
  25.8346077  59.4618825   8.7104722  30.8671422 100.4589445  32.3774457
  31.5576692 100.6273932  31.7363262  31.1337514 100.9537983  33.1522155
  94.6760464  59.4493866  38.5385156  94.7409630  58.5208321  38.7616777
  93.7454033  59.6533966  38.6307502  85.5432606  10.4447746  33.1859469
  86.2961102  10.4227650  33.7766695  84.7908688  10.2661991  33.7500858
  78.2500076  14.4869399  56.3568687  78.5800123  13.7305474  56.8418407
  77.4489450  14.7360790  56.8177986 103.6036110   1.8120497  54.9193907
 103.3115292   1.0178446  54.4720030 103.9650822   2.3601489  54.2228556
  45.7138630  86.6679434   8.0913564  46.4583298  86.1207894   8.3416005
  45.4993530  87.1581010   8.8850614  28.7773410  43.0199242  56.3887548
  28.4775440  42.3998880  55.7239962  28.5863677  42.5888824  57.2217989
   9.4967357  22.2121906  61.0321236  10.3113357  22.0312595  61.5010881
   8.9539901  21.4392662  61.1878252 106.9393158  37.9632640  34.9799109
 107.4439144  37.8188014  34.1794467 106.9178772  38.9148617  35.0810671
  88.0743408  16.4934385  68.3690739  88.1214809  17.3634052  67.9726315
  87.5654411  15.9738815  67.7467251  10.4419509  27.1232247  61.3597012
  10.6137363  26.2697053  60.9619188  11.1428634  27.6861286  61.0309219
   9.5218173  35.0755572  34.5416784   8.9088527  35.4267001  35.1875854
   9.2179672  35.4296160  33.7058902   4.5180313  10.6548655  74.1029644
   4.2118446  11.5074062  74.4122458   3.9820472  10.4735303  73.3309126
 101.3818073  28.8447547  47.7209282 101.8196964  28.7145472  46.8797827
 101.0243034  29.7312307  47.6701498  28.7919418  55.5507994  79.9634457
  28.1435863  56.1891842  80.2606583  28.3294002  55.0261593  79.3099642
  13.5456554  44.4978571  60.0342369  13.4817974  45.3695869  59.6440601
  13.7246219  44.6623564  60.9600544  15.8217136  21.6475773  61.9806957
  16.7387096  21.9109368  62.0580769  15.7247726  20.9304738  62.6072693
  80.5425835  48.3507824  20.2795243  81.0728931  48.8579082  19.6648526
  80.3431034  48.9643431  20.9866190  25.5464641  48.5542631  84.2972183
  25.0041858  48.0829000  84.9296665  26.3360206  48.7874794  84.7855282
  80.7517338  35.5406547  87.7209473  80.6226635  35.9919524  88.5551548
  80.4415989  34.6492338  87.8803825  37.8616325   9.8908502  71.5906382
  38.1457511  10.3237832  70.7856035  37.0260326   9.4839388  71.3616896
  87.3760223  35.7316113  82.8525925  86.8204021  36.4768434  82.6242352
  86.8318462  35.1948023  83.4287357  92.2141361  65.0901651  12.6723564
  91.4853954  65.3388977  13.2409537  92.9141903  65.7025576  12.8984857
 105.7497883  45.7376289  17.0487273 105.1185513  45.1607323  17.4787891
 105.2153397  46.4301443  16.6601241  84.4050789  44.6471882  83.9557266
  84.3343163  44.6514893  84.9102974  85.2216244  44.1803217  83.7781906
  76.1134434  34.2668891  40.4794168  75.7343912  33.9479184  39.6603870
  75.5671835  35.0149202  40.7208252   1.6594879  53.6681414   4.7854066
   1.6993514  52.7363157   4.5701319   1.6270820  53.6918449   5.7417643
  96.5511417  71.8326187  59.1463995  97.1279621  72.4042320  59.6531248
  96.9231987  71.8379116  58.2644796  41.8084041  34.8372483  84.2098522
  41.9645969  34.6790934  85.1408863  42.5391570  34.4051909  83.7676239
  11.3671390  17.8048587  52.4978590  11.7315093  17.3903406  51.7157841
  10.5166522  18.1418216  52.2161579  12.3535148  11.8164384  45.9689713
  12.5126640  12.7539027  45.8591461  12.9263202  11.5592790  46.6914654
 103.7614059  35.7146072  50.9335804 104.5899868  35.9483194  51.3519859
 103.1877899  35.4682493  51.6591883  35.7796661  22.8633428  62.3074341
  36.6774265  22.5405550  62.3853540  35.7191364  23.1883907  61.4091492
  79.4999075  61.7184353  30.3542471  79.1934919  61.3474083  29.5267940
  79.2250633  62.6347685  30.3222132  88.8873196  32.2943544  57.9217911
  89.7434139  32.7221251  57.9031229  89.0113735  31.4882803  57.4207020
  87.0056534  36.8558455  20.3891897  86.8942738  36.5423203  21.2867022
  86.4458179  37.6303530  20.3348303  28.1883327  18.2962334  69.6811676
  28.4250919  18.6413693  68.8203239  27.2336856  18.3596861  69.7103691
 107.7545929  42.6556635  46.0066938 106.9668674  42.2499466  45.6445885
 108.0953503  42.0082474  46.6239214 103.9646339  26.3879728  78.8686657
 103.7748718  27.2040343  79.3315554 104.3975735  26.6656232  78.0613804
  95.1983929  36.8484521  87.8866673  95.7731628  36.7878389  88.6496830
  95.7931995  36.8324924  87.1368790  30.2333976   3.0826033   1.7268297
  30.3973962   2.4575651   1.0206624  29.6310569   2.6269663   2.3148938
  86.2696362  14.8877692  56.3809967  86.1892986  14.2860126  57.1210432
  85.9475803  15.7243872  56.7165232  32.1217819  91.2106351   8.4902974
  32.1575733  90.2654318   8.6370488  31.4933583  91.5299348   9.1378709
  80.7799530  31.5422225  28.7609720  80.7961750  30.5858350  28.7249827
  80.7322788  31.7459822  29.6950173   3.0448142  36.6457486  42.2678661
   3.9660636  36.8930244  42.3477364   2.5776664  37.4789333  42.2061348
 106.8751621  24.8971605  10.6634319 106.5324974  24.5835900  11.5003824
 106.2019825  25.4946542  10.3377521  35.1288597  14.1829050  22.8261590
  35.8833019  14.5212281  22.3438835  34.3700019  14.5416331  22.3660755
  92.2747040  19.8470330  29.8030019  91.5726948  20.3664041  29.4110012
  92.3900700  20.2208924  30.6765890  65.7035637  37.7832150  23.4562802
  65.4757786  38.1859756  24.2942119  65.6807184  38.5059428  22.8290820
  80.3150272  29.5751190  55.4262447  80.8913326  30.1503134  54.9230051
  80.8701992  29.2335939  56.1272287   3.2737438  50.0699282  51.1879158
   2.8182498  49.9541283  50.3540421   2.8338806  50.8136177  51.5998411
 100.2816868  32.4054718  49.4089890 100.3705311  32.3542285  50.3606796
 101.1425114  32.1542406  49.0742016  18.1373688  56.5666188   8.0957815
  18.2115551  55.8595757   8.7367364  17.4898049  56.2513799   7.4653074
   9.2287342  27.6275635  69.8858452   8.2762519  27.6123595  69.9795771
   9.4064704  27.0407271  69.1508198  86.4635086  55.6908321  40.0996065
  86.5627956  54.7566843  39.9159098  85.5853081  55.7696581  40.4721403
  91.7667198   8.4571576  89.4114780  91.1733437   7.7333832  89.6121979
  91.1880112   9.1904759  89.2027473  20.3342716  55.5062675  50.0359058
  20.9336273  55.6631184  49.3062496  20.7048694  56.0075331  50.7622814
   6.1122886  29.0907931  88.3807182   6.8182556  29.4026136  88.9469433
   5.6517974  28.4388041  88.9090061 103.8718033  41.4725542  71.0189438
 103.4449959  41.3712120  70.1681852 103.1568146  41.4210463  71.6532612
   1.5084454  93.9805488   0.1500150   1.5544125  93.7191466   1.0696813
   1.9453331  93.2719735  -0.3225115  82.0841503  66.6904593  68.0640078
  81.6370201  67.1746778  67.3698568  81.6869736  67.0110512  68.8737583
  63.7441111  13.2173753  19.9543643  64.5431089  13.2012820  19.4275105
  63.1845522  12.5475359  19.5613766  90.5944633  96.4656258  40.1749420
  90.3102303  95.6590366  40.6048918  90.1963234  96.4266300  39.3053436
  40.7809249   7.9840785  38.6817575  40.7332031   7.0280808  38.6864877
  40.2211753   8.2482237  37.9515934 105.3015900  17.8048325  58.9051962
 105.3487492  17.5831139  57.9752254 105.8458519  17.1459889  59.3364000
  22.2927085  28.5951638  48.0075502  21.3563434  28.7936401  48.0142641
  22.4840442  28.3735824  47.0962191  14.4141189  46.7284155  36.9035482
  13.4669010  46.7106390  36.7668033  14.5186511  46.9638491  37.8254366
  94.2651558  41.9348431  57.6494265  94.5095348  42.8491402  57.5059986
  93.3614445  41.9747353  57.9623747  65.6410690 102.1589935  49.1442394
  65.6630893 101.2050108  49.2194986  66.2369247 102.4669399  49.8271418
 106.8926716  32.3000598  58.6690283 106.7053032  32.9358411  57.9784441
 106.3797092  31.5282011  58.4295797  97.1215916  12.4663591  18.4624219
  98.0504799  12.6864433  18.3920181  96.6922474  13.0312347  17.8199184
  44.4964500  95.4080877  54.9643087  43.7818427  95.9502128  55.2984715
  44.1636272  94.5123259  55.0197124  25.3459541  39.4961190  57.7768707
  25.6764499  39.7383356  58.6419344  24.6816818  40.1567793  57.5806475
  88.9054203  32.2139716  55.0124598  87.9600430  32.0656967  55.0348616
  89.0503120  32.7150941  54.2098904  84.3583488  24.4371462  34.8396444
  84.1796684  24.4659114  33.8997102  83.5163498  24.2145920  35.2368045
  99.9300194  56.0065889  59.3149805  98.9843082  55.8825207  59.3954182
 100.0933552  56.8640614  59.7077942  65.4467154  12.2566998  48.8254738
  64.8046732  11.5746284  48.6285162  65.3157330  12.4479437  49.7541809
   4.8970691  30.3589439  56.1572123   4.5818511  31.1219954  55.6728363
   5.2978126  29.8009396  55.4906797  91.0799217  32.9435205  48.2011938
  90.5630970  32.7996516  47.4084616  91.0101223  33.8839722  48.3652258
  89.6161842   5.1612800  66.7224407  88.8063145   4.7978991  67.0806217
  89.3991470   6.0697979  66.5133429  23.3080474  29.4266582  83.1221390
  23.6144916  30.3291917  83.0340672  23.5912410  29.1618872  83.9973068
  97.3092079  69.4727945  85.7355499  97.6770878  69.5412350  84.8545265
  97.9646206  68.9820004  86.2313175   1.7540542  52.8557539  51.0447693
   1.6318218  53.8051128  51.0473728   0.8891860  52.5023365  51.2529421
  99.9240971  39.2268372  43.3953381  99.4032860  38.8853884  44.1222477
 100.4468822  39.9282002  43.7839556  90.7849884  25.2423978  89.9372005
  90.7679749  24.7133875  90.7347584  91.2154865  26.0563231  90.1988029
  99.4957542  25.9548903  44.7273064  99.2155933  25.6851959  45.6019545
  99.0190220  26.7685819  44.5633888 109.5606709  35.3725004  80.4485226
 109.9913692  36.0870337  80.9177494 110.1360703  35.1931477  79.7048998
 103.9407921  21.2141538  69.9452162 104.3439102  21.6703343  70.6838799
 104.0639210  21.8053460  69.2025423  86.2065029  55.4812860  22.4049973
  86.6892433  55.8738852  21.6776276  86.6166592  55.8459568  23.1892276
  82.1079350  33.5869431  40.6703424  81.4455605  34.0907407  41.1432791
  81.7068005  32.7278423  40.5389261   2.1276561  15.4081285  63.5592842
   2.2022048  15.2861834  64.5057535   2.5023643  16.2742567  63.3991385
   6.3938133  73.0018520  66.9996881   5.5485431  73.3560181  67.2759485
   6.6136066  72.3556376  67.6707554  71.3914008  95.6484226  61.6389322
  72.3326202  95.4768441  61.6089153  71.1869140  95.6995425  62.5726366
   1.4886753  26.7098308  42.1125364   1.4553443  27.6449037  42.3144293
   0.8888809  26.6026711  41.3742971  26.1450282  27.3573613  86.3218784
  26.3674346  26.7507648  85.6156158  26.9696227  27.7975273  86.5281105
  77.5553465  59.3923664  66.0218430  77.2417784  59.5523453  65.1317215
  78.1157827  58.6203766  65.9432268  87.8059287  96.1302516  71.3349867
  87.4848647  95.8017454  70.4952049  88.5521121  96.6843161  71.1059618
   0.9354393   3.9654243   0.2718946   0.2203934   3.7850082  -0.3383425
   0.5839055   4.6316135   0.8625337 111.0952854  68.7843657  62.5938702
 110.5536461  68.8189173  61.8054152 110.7557964  68.0362415  63.0850792
  91.0076427  37.6058054  42.8749037  91.3013649  36.7807531  42.4885798
  91.7868042  38.1618071  42.8733301 103.4626389  48.3580971  41.8009281
 104.2963886  48.4032345  41.3328886 102.8128719  48.1940174  41.1174726
   1.0045139  39.2418385  63.7722254   0.5268089  40.0521040  63.5947418
   1.8831245  39.4013906  63.4275293   4.0282813  33.1121874  51.4012527
   4.4811717  32.2765064  51.5142202   3.1810085  32.8762889  51.0234880
  25.6675712  61.1330366  58.3637428  25.1507274  61.8810606  58.0644751
  26.3763038  61.0604858  57.7244663  87.2870636   9.3025893  52.4454927
  87.3138142   8.7035269  51.6994047  88.1372356   9.7421557  52.4303055
  99.6447182  61.9976950  61.4831161  99.7212887  62.9218531  61.7203999
  99.9006844  61.9650793  60.5613518 100.2771187  16.9083512  55.0499344
 100.0777149  17.4065173  54.2572784  99.4225216  16.7323482  55.4435396
  85.9372520  10.4946613  54.4246197  86.1679935  10.1212871  53.5739851
  86.5796471  11.1906838  54.5628881  82.2917557  60.0561523  43.2394361
  83.1219482  60.1345778  43.7093830  82.5409412  60.0310135  42.3155832
   0.1166526  34.0153193  69.5309782   0.6953041  34.1779590  68.7860298
  -0.6168469  34.6162295  69.4001627 110.8208084  12.6232886  69.6961641
 111.3458061  12.9539561  70.4250479 111.3802719  11.9709849  69.2745876
   7.2289459  66.2151575  75.1977873   6.6398231  65.9117174  75.8885050
   7.6775447  65.4234934  74.9007082  20.8040325  46.3189554  79.9840975
  21.6627971  46.6692448  79.7473669  20.4000846  46.0892344  79.1472673
  85.6722736  39.5530629  48.6781502  85.5061245  40.4535961  48.9568424
  86.6263199  39.4755530  48.6747503  87.4134727  76.7166296  86.2106705
  87.5356860  75.8116094  85.9239101  87.2057719  76.6466681  87.1424389
 106.3616371  28.4688711  48.4319115 106.5462685  27.9364681  49.2056656
 105.9296322  29.2504549  48.7764931  10.8429901   8.3256006  62.7132034
  10.3847114   8.4301955  61.8793726  10.6935970   7.4117374  62.9556227
   2.7388469  66.1564064  45.6491375   3.3887473  66.2307739  46.3479424
   2.7325717  67.0193863  45.2350569 111.0476589  30.7771063  62.9978180
 110.5321026  30.7848430  62.1913624 110.8592701  29.9265242  63.3943748
   8.7965576  30.3256464   9.9040794   9.2983142  29.5966768   9.5392960
   8.0858699  30.4642582   9.2780179  11.7932693  50.7528830  40.6379938
  12.2558109  51.2962389  39.9999905  12.4747268  50.4629421  41.2444448
  16.9946281   7.6097381  72.9462194  17.3614494   8.0254543  73.7265110
  16.1140243   7.9772246  72.8705978  61.0431719  27.9547310  54.4440937
  61.5179491  27.3870444  53.8370132  61.2923479  27.6383567  55.3124523
  81.0429096  22.8258729  87.3568821  80.7708263  21.9946098  87.7457237
  81.3605595  23.3437157  88.0965900  96.1736488  38.3301330  60.7615852
  95.3478146  38.4710622  61.2245798  96.7464447  39.0300345  61.0750675
  91.3650990  55.0848579  57.6764584  91.9387531  54.6262884  57.0625639
  91.1291790  55.8949041  57.2243547  72.7260733  53.1068659  85.6230164
  72.1162701  53.6884022  86.0770988  73.0661154  53.6338329  84.8998928
  93.7712574  36.0480165  55.7382679  94.1231441  35.3308392  55.2109480
  93.3588505  35.6155443  56.4860106  92.7816486   5.1407081  84.3413830
  91.9938850   4.9253881  83.8420963  93.1688595   5.8790970  83.8711929
   3.1647675   8.2226932   1.0562059   3.8973992   8.7711847   1.3366433
   2.6051991   8.1565273   1.8299791  86.0835171  64.4912195  43.1882954
  85.5518246  64.9480534  43.8400888  85.6204128  63.6674356  43.0361652
 109.7686958  40.4464102  36.4067030 108.8880253  40.2204752  36.7060280
 109.6274948  41.0821295  35.7051682  93.0461407  42.6335239  30.0947213
  93.6156559  43.1825304  30.6336856  93.3758068  41.7445993  30.2264810
  26.9774333  47.9154062  50.3852749  26.3350002  48.5795927  50.1355505
  26.6011611  47.0906973  50.0778484  87.9714966  36.1268497  88.9517498
  88.0963421  35.9252095  88.0243969  88.2519245  35.3341150  89.4090939
   3.2493106  66.5353823  61.3408327   3.3635513  67.4555397  61.5785122
   3.4744731  66.4983988  60.4112244  11.1479656  26.4217782  57.2897530
  10.6471244  26.4079714  56.4741564  10.4913894  26.5638256  57.9716349
  37.0130435   5.5222696  35.8973193  37.8996269   5.1934993  36.0459924
  37.0611659   5.9665847  35.0508547   9.0281574  58.0986452  56.1564445
   8.5065643  57.4861622  55.6377554   9.6748439  57.5482225  56.5981102
 100.6549072  15.0052559  43.6483240 101.2723064  14.3123233  43.4140348
 101.1800194  15.8055449  43.6437273   8.8542167  48.0006266  29.4156432
   9.4051639  48.0507565  30.1967859   8.6764137  48.9134455  29.1889715
  27.9255287  64.2754030  42.6372766  27.5579730  64.3494463  41.7565632
  27.2108356  63.9206409  43.1660366  86.6309548  11.1217106   5.8732435
  86.4704419  11.3291872   4.9526902  86.9502069  10.2193773   5.8632490
   5.7590095  18.9578724  56.0529566   5.5602256  19.8941565  56.0625076
   5.4913799  18.6473668  56.9179392  75.5873103 102.6356104  66.4953089
  76.3602729 103.1906675  66.3919735  74.9117084 103.0658201  65.9711838
 107.0016384  44.8480988  48.3899355 106.4421368  45.3952789  48.9411116
 106.6378880  43.9672232  48.4792376  85.8600998   9.0065676  43.9209747
  85.1404953   8.9354366  44.5481396  86.4059353   9.7150505  44.2620754
  25.7861320  25.9475255  20.0823808  25.6168834  26.4699292  20.8663964
  24.9683277  25.4744697  19.9286282  57.6280018  65.3439871  21.8924924
  57.5413605  64.4452433  22.2102758  58.5688969  65.5178253  21.9192144
   6.0237781  15.5498600  54.6298075   5.3535453  14.9146545  54.8818731
   5.7872955  15.8066249  53.7385273  97.3523712  21.9798660  90.0435257
  96.4301586  21.9977283  89.7877026  97.5177288  22.8508615  90.4044247
  35.7339283  86.9430713   3.7287256  36.6370388  86.7465500   3.9777013
  35.7863804  87.1765665   2.8019258  11.8407051  54.4158125  78.2105207
  11.8333236  54.8968601  77.3830128  11.3476077  54.9708986  78.8146496
 108.8495827  82.3677826  61.1448002 109.4517612  81.8357086  61.6648960
 108.6762619  83.1353092  61.6898775  81.3330078  48.8580799  65.8754063
  80.9807301  48.1512499  65.3345442  80.7965755  48.8432741  66.6680288
 103.5809135  34.9866104  32.0020485 103.9215565  35.1933455  32.8723693
 104.3247890  34.6012688  31.5390158  53.1344310  35.0384045  57.7669287
  53.5773937  34.3078446  57.3353004  52.5625698  35.4041934  57.0920944
 106.3364887  13.7114167  72.0966053 105.3970909  13.7049472  71.9129848
 106.4686203  12.9761624  72.6950788  80.8975597 102.9339435  49.9897289
  80.7763763 103.6773981  49.3991184  81.1142726 103.3310304  50.8332872
  64.6188593  75.8148575  49.1286135  65.2016497  76.0845089  49.8384523
  65.0809574  75.0945187  48.6998844   4.2362682  24.3877029  33.1193256
   3.5635272  24.2932820  33.7936711   3.8029949  24.1183996  32.3093987
   2.4752036  64.9065971  25.5540061   3.0693427  64.8291016  24.8075342
   2.1224967  64.0246010  25.6719685 106.2964249  16.1620796  76.7793751
 107.0887280  16.6969085  76.7298508 106.5334892  15.4356158  77.3558187
  95.3300190  28.6647820  86.2129688  94.8705673  28.9425611  87.0054150
  95.1499176  29.3568134  85.5766582   2.2504894  53.6601543  40.3064108
   3.1350032  53.7210846  39.9456334   1.6809265  53.6176109  39.5382857
  92.7761936  20.6614423  76.4794302  93.6808205  20.7166982  76.1714983
  92.8187943  20.0906801  77.2466660  11.5365402  45.5091000  82.6951790
  11.0409633  45.1912069  83.4498882  11.2286750  46.4063597  82.5671959
  79.7955699  97.8322188  19.5917118  80.3691955  98.2218746  18.9319015
  79.2963309  98.5704115  19.9410927  59.3845606  78.2483101  41.3283157
  59.2781448  77.3678112  40.9682703  60.2514935  78.5252047  41.0316944
 103.0740070  50.8909416  56.8708229 103.2916737  49.9592686  56.8417740
 102.2802830  50.9349489  57.4040079  94.6956730  69.9641275  66.3659573
  93.7872410  69.6871710  66.2465239  95.0647926  69.3204260  66.9706345
  76.5010500  43.2423973  35.6891227  76.5183020  44.1873407  35.8408260
  75.7325840  43.1026411  35.1358056  96.9596482  32.0185936  15.3944703
  96.5569020  32.5316513  16.0950300  96.2315084  31.7878807  14.8175737
  96.9352150  34.2060876  36.8149114  96.5954399  33.3124757  36.8622208
  96.1625957  34.7479272  36.6545939  94.1645622  26.3121557  59.8858118
  93.5441494  26.8409038  60.3875589  94.4665527  26.8944311  59.1886806
  16.0200492  44.3930674  67.8255796  16.9613544  44.5090961  67.9548216
  15.8748905  43.4552670  67.9508591  21.7770620  92.7865246  26.4352250
  22.5396247  92.2441510  26.2338281  21.3978906  92.3856822  27.2173929
  69.9430895  21.7679429  12.4604154  70.7388163  21.3663363  12.8093600
  70.2256298  22.1967435  11.6526210  65.5765533  18.6590588  41.8072081
  64.9092817  18.9575160  42.4251938  65.1657200  17.9279959  41.3456964
   3.2069484  26.4594960  70.0728226   3.1231872  26.8147039  70.9577227
   2.8569309  25.5709243  70.1372910  81.9582462  23.6172342  17.1072471
  81.7290020  23.0718756  17.8597498  82.4367046  23.0295873  16.5224576
  71.0005617  27.0288944  48.4696341  70.5362988  26.1924791  48.4363890
  71.0079575  27.3349357  47.5627041  44.4692226  90.8206955  65.2355289
  43.8636012  91.4799837  64.8967171  44.8281093  91.2119380  66.0319948
  86.8315315  30.4009891  59.3963528  87.5404549  30.1810718  60.0007534
  87.2010040  31.0786724  58.8302517 106.6349506   0.5296044  61.0289335
 107.5411510   0.5355972  60.7207298 106.1400127   0.1368304  60.3099060
 103.1395912   7.0421350  19.6068537 103.1509781   6.1903113  19.1703928
 103.6513519   7.6121825  19.0329468 102.5346661   5.7769895  63.2782269
 102.3562908   6.7155331  63.2186508 103.0394173   5.5785817  62.4895000
 109.8094082  14.5634508  39.4484210 110.3698444  15.3093493  39.2344642
 109.1861057  14.5164728  38.7234926  38.8957381   4.7688183  20.9707904
  39.6649098   4.2100793  20.8593678  38.3102107   4.2610610  21.5325475
  57.0165153  94.3501941  22.1148944  56.4530559  93.9637378  22.7852678
  56.4321799  94.9116418  21.6054273 107.6089854  91.7223171  32.5703788
 108.3109565  92.3585800  32.4338555 107.4313636  91.3707701  31.6979694
   0.4841987   6.2913507  51.8921614   0.3184024   5.6345630  51.2158680
  -0.1787385   6.9647664  51.7396879   8.9616004  39.1871357  37.2514248
   8.7385837  40.1030254  37.0851588   8.9122764  39.0975833  38.2031488
  82.2711372  29.2554045  12.2521102  82.7042961  29.0989995  11.4129770
  82.9878426  29.3193650  12.8833604  11.3975135  16.3578892   3.6560351
  11.5120975  16.4754558   2.7130187  11.1097614  15.4499149   3.7509871
  38.1821485  90.1568738  39.0693879  38.1351371  89.5038680  38.3711004
  37.6374049  89.7980670  39.7699189  25.5558483  25.3541136  67.2651243
  25.3509132  24.7175884  66.5802336  26.4472476  25.6408906  67.0666170
   8.5516445  30.1405406  40.1703691   7.8698722  29.6374893  39.7250009
   8.4163467  31.0409808  39.8751855  79.8559184  94.6487382  32.8771687
  80.2414890  95.2929095  33.4709764  78.9247794  94.8695997  32.8560996
   5.9229461  50.4571486  36.6054893   5.8592502  49.9001884  37.3813581
   6.8032829  50.8302927  36.6501284  28.7364379  30.5147004  63.9130926
  28.8271800  31.1386967  64.6332455  27.8257457  30.2239442  63.9614248
   3.9722244  15.4717112  19.8625624   3.4846298  15.1113105  19.1218936
   3.8762084  16.4199471  19.7739053  30.4032794   3.8815945  61.8652773
  31.3458053   3.9903739  61.7386484  30.0396625   3.8940105  60.9799194
  73.6857939  13.5059083  67.2552633  74.3414497  14.0935791  66.8797779
  73.6018562  12.7999294  66.6143417  63.9451118  92.0231978  15.4811537
  63.0550761  91.6947309  15.6083047  64.3562503  91.9402007  16.3415682
   4.4826309  13.8852155  63.4273148   3.5715476  14.1344190  63.2721901
   4.8505298  13.7652802  62.5518179   3.5652248  43.4769678  42.6599884
   3.1368247  42.7032518  42.2938347   3.8538925  43.9752769  41.8954039
  97.7847004  -0.0286230  34.9545240  96.8572903  -0.2573293  35.0164771
  97.8375053   0.8569933  35.3138661  14.9383537   4.6618396  55.9127235
  14.6876995   4.9424601  55.0325775  14.1160861   4.6465266  56.4024878
  82.4987598  98.1999216  37.9991746  83.1494422  98.7785349  38.3967400
  82.5074477  97.4162880  38.5487866  70.9581275  99.0024022  40.1294041
  70.5990310  98.2032958  40.5150318  71.5916438  99.3160591  40.7747793
  82.0139885  11.9211435  67.2401953  82.0481491  11.1913788  67.8586674
  82.7661991  11.7827415  66.6646481 108.7159824  49.1585207  40.5605555
 108.3776760  49.9340343  41.0081673 109.4608688  48.8802767  41.0934305
  66.8624015 101.6364685  30.3112841  66.4166160 102.4750786  30.4306340
  67.5971694 101.6664598  30.9240270 110.2037811  21.5393257  62.9686451
 110.7367897  22.2449112  62.6021957 109.3070412  21.8719268  62.9303646
   7.3203174  14.7683728  20.6650496   7.5537673  15.0026321  21.5632987
   6.8380920  15.5274475  20.3371859  99.3076992  22.1443987  35.1968360
  98.8477612  22.7079773  34.5746851  99.6877861  22.7501631  35.8330870
  90.6009007  45.4087162  55.9405184  91.3455963  45.2179670  55.3701830
  90.9769344  45.4495621  56.8198156  11.5984050  10.1636577  40.6127119
  11.2056533   9.9827474  41.4666700  11.4465610   9.3662310  40.1054764
  87.0343204 101.7252890  71.9892550  86.1018558 101.8337292  71.8022060
  87.1466251 102.0906094  72.8668451  53.6129279  98.6626855  60.8156538
  52.9287620  99.0777222  60.2904034  54.1621013  99.3890265  61.1107445
  80.8498096   8.1375468  44.8079967  79.9891281   7.9468024  45.1809263
  80.6707478   8.3623946  43.8949776  11.1629669  18.9884079  74.1588879
  10.2517883  18.7391520  74.3133354  11.4905826  19.2447269  75.0209761
  80.0444408 100.6174401  42.5203991  80.2300353  99.9379030  41.8723154
  80.6908126 100.4723931  43.2113409  29.2392435  93.5164177  78.8936523
  29.9552622  93.1257641  79.3945829  29.5498648  93.5116541  77.9882673
  91.0365963   3.5981062  15.6895185  91.4044476   2.7144343  15.6832862
  91.7997742   4.1754031  15.6667471  84.1866965  89.4411257  35.6262589
  83.7909694  90.2601782  35.9242320  84.8230930  89.2211822  36.3065934
  10.9458724  16.3809586  49.7894812  10.0689594  16.0352528  49.9560356
  11.4905635  15.6034398  49.6669388  95.3992081  47.1327400  18.5408962
  95.1164150  46.9836521  17.6386595  96.2231636  47.6127052  18.4574282
 101.0877514  15.3690922  33.7563729 101.5638542  14.9178457  34.4534612
 100.6230736  14.6718884  33.2935357  71.3727565 103.0802490  52.1182299
  72.1687408 103.5792469  51.9348145  71.4919372 102.2567657  51.6450453
  99.2671580 103.5751871   3.9029124  99.5796485 104.4625082   3.7261504
  99.2080207 103.5277242   4.8571038  77.0750523   3.7453014  38.8285446
  77.6506805   3.3880955  39.5047760  77.2967815   3.2507774  38.0395508
  16.6626827  23.8059282  23.7189698  16.0890476  23.0781555  23.9587951
  17.2061435  23.9479923  24.4940186  69.1572714  12.7837288  39.6203470
  68.7533569  13.6439300  39.7349882  70.0349426  12.9735088  39.2888260
  77.4641128  97.9547468  80.3736401  77.7349181  97.0572707  80.1801586
  77.9739566  98.4943107  79.7693586  53.7962580  21.2719154  43.3695173
  53.3970737  20.4115129  43.2407188  54.2934608  21.1859298  44.1829205
  86.5690608  99.5672325  43.7052250  87.4833293  99.3184045  43.5695171
  86.5670963 100.0220126  44.5474863  14.3676559  43.5065269  19.1504097
  14.1355125  42.9044533  19.8574090  14.2424957  42.9961157  18.3503807
  14.6006862  22.3042607  52.8681374  13.8913337  22.0276713  53.4482718
  15.3987399  22.0170927  53.3118486 110.2657795  38.5904408  47.7798653
 110.0498104  37.8771091  48.3804893 110.5945492  38.1516552  46.9952583
  93.7612724  32.4847460  51.0979223  93.3053684  33.2768989  51.3823128
  94.6502113  32.5846434  51.4385796 101.4566040  45.0455999  45.0461960
 101.3863373  45.8711100  44.5667934 100.8801174  45.1577616  45.8020496
  88.0859756  30.6023765  10.8543360  88.6489201  31.3736582  10.7876039
  88.6798763  29.8613024  10.7346666   9.5627967  29.5601487  46.8162870
  10.0759784  30.3648329  46.8894529   8.6559287  29.8595023  46.7513275
  20.7334701  16.2229598  38.2732439  21.5201751  16.0639179  37.7516818
  20.1074497  16.5983856  37.6540613  74.9632831 100.5856544  34.7124362
  75.7767482 100.9858790  34.4053125  74.2979427 101.2600431  34.5754790
  74.3210268  10.6434000  65.8318520  74.4185352   9.7937381  66.2617350
  75.2157879  10.9075749  65.6177282  68.6411810  24.7678590  34.3142056
  69.3964767  25.2055883  34.7068310  68.0189848  24.6710539  35.0351310
  13.3728110  99.6266965  48.1009674  13.4360968 100.5496279  48.3467770
  14.2608534  99.2875293  48.2130623  98.6961269  10.7287955  36.1085224
  98.4408474  10.6591868  35.1886201  98.2608318  11.5229595  36.4184475
   4.7317211  23.2631016  10.7791626   5.2186195  22.5586557  11.2068474
   5.1177493  23.3249116   9.9054396   1.1803047  21.4630556  33.3063483
   1.6617671  22.2152972  33.6506653   1.6166965  20.7029080  33.6910129
   3.0091754  36.6477585  61.8296671   3.9031116  36.4527273  62.1108627
   2.7654354  37.4268103  62.3295641   0.5322544  51.5988111  46.1172247
   0.2864829  50.7450724  45.7609177  -0.2461537  52.1423435  45.9952450
  78.0269432  34.3342900   0.4195847  77.9448843  35.2634764   0.2048515
  77.2352982  34.1329622   0.9185818   3.6455718   3.2558638  44.0748596
   3.5450641   2.4470618  44.5768261   4.5874683   3.3257946  43.9194059
 100.3769016  17.9810071  64.4160461  99.7762966  17.3704422  64.8434877
 101.0373592  17.4211085  64.0079498   8.0995456  28.2353449  61.0771847
   9.0123645  28.0007744  61.2444162   7.5942508  27.5148582  61.4537621
  20.8281127  15.9597611  12.9941106  21.6004077  15.4978418  13.3203363
  20.2256385  15.9740126  13.7377894  84.7694202  74.3080536  26.4795232
  85.2130313  74.8676601  25.8421159  85.1269145  74.5783654  27.3253131
   1.3219253  76.2159729  34.2337728   2.0890800  76.4820862  34.7406125
   1.3127414  76.8101549  33.4833741  90.5462642  83.1095544  51.6651869
  90.4626365  82.7033440  50.8024979  90.7731624  82.3861853  52.2495508
 107.5542164  22.7257776  29.4793081 107.9423141  21.8879128  29.2271328
 106.6113281  22.5914097  29.3837643   7.1598998  41.8278837  57.0304537
   6.2089721  41.8708038  56.9298410   7.3026935  41.8668318  57.9761457
  77.8127718  47.4980402   7.5657666  78.7376165  47.3447847   7.3723519
  77.4220562  46.6242647   7.5751781 100.9712887  11.9239712  39.0647960
 100.4140472  12.5352764  38.5831189 101.6857815  12.4650633  39.4008851
  66.2118721  26.5155578  41.8149424  65.9331226  26.7216992  42.7071524
  65.6258297  25.8113813  41.5375900  59.5478435 103.9767581  24.9063492
  58.8844009 103.4046577  24.5206237  59.3491454 104.8447323  24.5551062
  60.0965595   7.7193332  46.1545229  59.9748659   6.9206285  45.6412077
  59.4595909   7.6466167  46.8653059  70.5444999 104.3161426  26.0397220
  70.2569862 103.8961241  26.8503690  69.7438140 104.4164011  25.5248690
  71.5774536  17.0716453  12.8361225  72.4458694  17.4045336  13.0625474
  71.7488766  16.3335466  12.2512674   4.1530601  18.2685411  46.9981241
   4.4678584  18.4379208  46.1101818   4.9493114  18.1872439  47.5231028
  96.8345165  17.1720731  22.4436688  96.4790249  17.0443380  21.5641570
  96.0685539  17.3572433  22.9870367 102.8669739   4.7097757  46.5748549
 102.6807499   5.1448268  45.7428169 103.7205315   5.0531977  46.8389177
   2.1884624  23.4543777  27.2930241   3.1263725  23.2799816  27.2146440
   2.1283142  24.4055343  27.3819947  55.7018752  93.8742438  12.9360414
  56.5958209  93.9844707  12.6120901  55.1661296  94.4039730  12.3456156
   9.1123573  23.6136365  57.9137230   8.4542934  22.9371738  58.0736637
   9.2423431  23.6019039  56.9654655  90.3901577  27.8760839  35.1552987
  91.0923386  27.3184085  34.8203874  90.5348396  28.7228918  34.7331452
  80.2966022   4.6885526  38.0742216  80.2713776   4.0815157  37.3345590
  80.2112770   5.5548477  37.6761222  33.8252064  66.3262729   1.0548421
  33.1860157  66.0571686   1.7145749  33.4807869  65.9790591   0.2320119
  83.9667034  34.8844504  51.2956238  83.2063961  35.0314355  50.7329845
  83.6005688  34.8011851  52.1761036 108.9547729  23.8817406  45.4033756
 108.9356041  23.0475450  44.9343538 109.0634251  24.5399904  44.7169828
  77.7582932  30.0937843  42.9523849  77.5377750  29.3487692  42.3933172
  78.7099457  30.1709390  42.8842783   8.0193035   0.6886324  30.4997826
   7.9271881  -0.1415074  30.9673452   8.7892620   1.1003271  30.8920884
  75.8807135  34.3784523  26.8121648  75.7548094  34.6743608  27.7137280
  74.9953699  34.2106104  26.4893222  82.0374298  13.0796909  41.2819958
  82.6079845  13.8433063  41.3691521  82.1141911  12.8271246  40.3619146
 109.1659546  21.8977022  35.9693050 109.2279243  22.4250031  35.1728463
 109.0476131  21.0014939  35.6546044  98.8433743  50.7172012  45.8968353
  98.3790016  50.4122782  45.1173401  98.6160851  50.0812197  46.5751410
   5.9885780  65.7490063  20.2120256   6.6313831  65.8425617  19.5089793
   5.5369560  64.9281311  20.0159621  12.4784652  24.6404648  63.5765219
  13.2607261  24.4646239  64.0993834  12.7848045  25.2109385  62.8715801
  20.6805793  51.8339300  15.7195270  20.9408275  52.3861647  16.4567792
  20.0408737  51.2257862  16.0898960 105.6219101  33.2628059  41.5658951
 104.8829460  33.8073015  41.8373442 105.3523064  32.8955388  40.7240772
   9.2782489  46.9745302  41.3693810   9.3496791  46.0204649  41.3992500
   8.6141197  47.1856451  42.0255852   2.2081653  47.7114820  31.8818569
   2.7351371  47.8938293  32.6598525   2.1374408  46.7571783  31.8587494
 100.2838326  34.0333080  58.0491066  99.5530319  34.1460872  57.4412870
 100.0440598  33.2687306  58.5727119  91.8941212  74.7245312  79.1455412
  91.7794132  74.5882034  78.2050705  92.7529621  74.3487835  79.3390226
  33.0859081  81.5816689  80.3831577  33.0018035  80.9754372  79.6471977
  33.7043659  82.2451973  80.0774288   9.8012821  17.9734063  68.7224007
   9.2954055  18.5924280  68.1959629  10.3641025  17.5257540  68.0906820
  28.1081382  29.1705179  24.1641426  28.7657920  29.0506363  23.4790492
  27.7059642  30.0159407  23.9647746  29.2988006  10.9542322  66.2478924
  29.4932834  10.0310481  66.4095736  28.5310928  11.1357844  66.7900181
  81.7866421  35.9618902  32.6877069  82.3614788  36.2705588  33.3880806
  82.3458576  35.9397292  31.9111609  80.2462096  94.2975823  35.6434560
  80.4224487  93.6366943  34.9738312  79.2914767  94.3591872  35.6737566
  62.2238092  85.3000740  21.3165876  61.6736107  84.5725755  21.6068574
  62.5330071  85.7047466  22.1270582   3.2146073   8.1917990  43.1677934
   2.9068757   8.8417042  42.5359937   2.5163270   8.1431044  43.8206788
  35.0155190  94.2359952   1.7606660  35.3078179  93.8325433   2.5779935
  35.0379375  95.1766423   1.9364759  82.7885810  18.3056057  19.4283696
  82.4945554  18.4756267  18.5334512  82.7176479  17.3561943  19.5274755
 108.2648730  43.2204437  85.8347988 107.5931331  43.2631302  85.1542282
 109.0335701  42.8627539  85.3905010  81.5774115  56.0754156  62.7188396
  81.5898117  55.4347897  63.4299469  82.2302993  56.7277288  62.9727125
  17.3497403  62.7186918  85.0202751  17.6708436  61.9079828  84.6254635
  17.6950443  63.4120941  84.4579697  39.7667909  39.5974112  83.1818104
  39.3527031  39.4521260  82.3311234  40.1162863  40.4869747  83.1292629
  29.6438360  40.7234907  80.1481056  29.1501999  41.4086151  79.6973801
  29.9891758  40.1745367  79.4441032  84.9081950  82.6037578  12.5569650
  85.4480653  81.8402938  12.3522874  85.3925423  83.0625228  13.2433912
  15.3544581  18.8777494  86.4134121  15.9008110  19.5808852  86.7645931
  15.9640181  18.1567502  86.2558460  24.2367363  46.8993139  85.8589840
  24.4210553  46.8215752  86.7950439  23.4268546  46.4050245  85.7324886
  14.2048769  71.7851261  13.4135648  15.0348978  71.4312092  13.7330076
  14.3093734  71.8197600  12.4627229  92.5546154  47.4944210  83.8923740
  92.3276146  47.5905275  84.8172855  91.9228240  48.0468416  83.4320450
 100.8902343  22.0971489  88.5405636 100.1943787  22.5932097  88.1093502
 101.6418817  22.6898193  88.5410786  38.5589680  86.3742403   9.2450258
  39.1606158  87.1173004   9.1990205  38.1765749  86.3210968   8.3691427
  64.8307376 100.4043321  16.5673562  64.9451451 100.8714847  17.3949453
  64.9085359 101.0827760  15.8966085  26.8363572  26.0387743  10.6281682
  27.5199987  25.3941381  10.8106824  26.5375329  25.8271158   9.7437879
  82.4772296  20.9960115   2.3035737  82.1913937  20.4192293   3.0119821
  83.3976582  21.1743629   2.4965307  25.7895947  70.2316189  71.9264698
  24.9527192  70.1752901  71.4652777  25.5504680  70.4138470  72.8352308
   1.5204979  12.9583204  32.0874330   1.0188414  13.7728584  32.1206113
   0.9521915  12.3458803  31.6203328   4.3879327  81.5560341  89.3822289
   3.9553034  82.3262501  89.0136814   4.8340574  81.1526585  88.6375809
 104.0825977  59.7567034  58.0602455 103.5743209  58.9684725  58.2514954
 104.7575792  59.4637680  57.4480200  55.3508811 103.3187608  26.9801351
  54.8329370 103.1063441  26.2037011  55.6551604 104.2134122  26.8276712
  14.1510642  80.1859283  81.8281937  13.6781967  79.5111132  81.3411045
  14.9030232  79.7277975  82.2035599  84.5947859  23.1613815  12.9409715
  84.3669340  23.6430490  12.1457883  85.3471622  22.6258266  12.6892873
 103.3215000  58.7634230  88.6975670 102.6344188  59.3496037  88.3804893
 103.8791569  58.6130619  87.9342556  51.4065652  97.7524690  32.5754663
  50.7212715  98.1735925  32.0565625  52.1221058  98.3881358  32.5881788
  27.5779174  98.2389573  26.7936822  28.3683400  97.7906398  27.0944711
  27.7194403  99.1564254  27.0270463  40.1352267  74.6425013   6.3110181
  39.9279355  75.0826792   7.1353360  40.4788174  73.7890033   6.5750619
 103.9072587  48.2204676  56.5349960 104.5723566  48.7171221  56.0583305
 104.3593260  47.4259424  56.8188953   6.3462211   2.3298443  31.9582387
   6.9361688   2.1243656  32.6834794   6.6803409   1.8142355  31.2242528
  34.5761777   2.1627939  26.5868017  34.9523116   1.4285410  27.0722123
  33.6458875   2.1471107  26.8116304   1.4884163  15.0941790   7.9931470
   2.0084621  15.6876266   8.5350057   0.7673765  14.8215807   8.5606214
  97.0474132  82.0390892  62.9803896  97.2851070  81.6433620  63.8189173
  97.5065263  81.5107155  62.3274899  49.7726350  74.9702124   3.6486646
  49.2737465  75.7604388   3.8557454  49.1259603  74.2649750   3.6748239
   6.6720074  69.5426989  86.4965820   7.1648765  70.2869034  86.1509418
   5.7742274  69.8654175  86.5745258 100.3350052  20.6535280   1.2290212
 100.0930223  21.0127008   2.0826455  99.7160468  19.9374664   1.0862752
  61.8243647  55.4569101  87.9926491  61.7953825  56.2570429  87.4680710
  61.3166094  54.8213005  87.4882603  44.9340592  94.0096549  31.2774774
  45.5499940  94.5933227  30.8345434  44.4029467  93.6414794  30.5713579
  58.0542927  88.6122707  27.5605890  58.7808614  88.1373362  27.9640313
  57.6307826  89.0660647  28.2892438  23.7795545  24.6092546  18.5967275
  24.1013671  24.8753250  17.7354070  23.2419540  25.3451765  18.8893720
  33.8487482  36.1674547  87.2127151  34.2413473  36.7718673  87.8426266
  34.5288277  35.5131412  87.0527267  23.3076573   6.8087042  15.8665963
  22.8028966   6.6979874  15.0608751  23.8716079   6.0361803  15.9039899
  41.6624737  54.1412592  91.1379051  41.0718441  54.3856335  90.4253960
  42.5389242  54.2291260  90.7632732  89.6430545  96.2356881  16.4303609
  89.1227774  97.0102147  16.6440221  89.1198640  95.5002765  16.7492315
  98.8334665   5.7788599  24.9903985  98.0276665   5.2876366  24.8303434
  99.5339498   5.1409090  24.8540994  94.5503578  35.2463615  34.0990945
  94.3385658  34.3536270  33.8263341  93.7617287  35.5536735  34.5461484
  18.2620669  27.9217899  13.6593934  17.4046136  28.2955540  13.8626214
  18.8875295  28.5866344  13.9475175  29.6297933  16.9316376  29.4959661
  29.0193606  17.6450146  29.3097040  30.3663493  17.3555410  29.9364492
  46.5757942  83.7319660  74.4564056  46.2024975  83.6136150  73.5829782
  47.3128748  84.3279362  74.3231106  74.5707603  12.0457161   0.2837106
  75.2503800  11.4676845  -0.0630263  74.9315140  12.9266441   0.1834413
  99.0121112  12.6517380  10.8885022  99.7006235  12.6230371  10.2241632
  98.9814791  13.5684479  11.1622449  98.3944974  23.1299961  15.3297063
  98.6538610  22.9510439  16.2335512  99.1343841  23.6109865  14.9589654
  75.0986509  81.2962345  37.9567739  75.7509212  81.8187837  37.4901697
  75.2166037  80.4084853  37.6188012 106.0453901  36.4672745  18.5081598
 105.8694229  37.3838985  18.7204572 106.6305861  36.1683071  19.2041513
  25.2655364  29.2501629   3.9778158  25.5905915  28.4454143   4.3814775
  25.2707721  29.0659988   3.0385133  43.2440996  62.6025772  88.4147167
  44.0243959  62.8943634  88.8861275  43.3897543  62.8857279  87.5120354
  82.2139308  99.1598562  70.4303503  81.4639757  98.6668173  70.0976133
  82.9588590  98.8315615  69.9268246  25.3121591  87.3155117  88.7485695
  24.9885011  86.5874958  89.2790985  26.2650967  87.2324753  88.7838364
  54.1358762  82.9901890  19.3350431  53.4478824  83.2723550  18.7323114
  54.9436455  83.3357696  18.9551469  39.7771978  67.1778965  75.7234716
  38.9100742  67.1057940  76.1223888  40.2969456  67.6610374  76.3658667
  45.7464169  85.0638799  63.2659551  45.5451970  85.9188489  63.6464425
  45.7838468  85.2241734  62.3230192  14.9089147   6.7680157  35.5508729
  15.1647616   6.4506376  36.4169236  15.3774453   7.5967682  35.4514524
  24.9054862   5.5717361  11.4482137  24.9654342   6.4483202  11.8279954
  25.5901052   5.0711239  11.8919679  93.6237702  20.8531702   8.1425973
  93.7364909  21.5469110   8.7924024  94.3898544  20.2908457   8.2572385
  49.9378090  69.1178087  18.0631753  50.5781870  69.2628912  18.7596628
  49.6848290  69.9975435  17.7833577  91.8283372 100.5809239   9.2998906
  90.9023290 100.5188922   9.0656110  91.9250731  99.9956016  10.0510713
  28.0369139  68.8087177  53.0108070  27.7858281  68.1426573  53.6507702
  28.6366296  69.3836451  53.4862328  55.2831647  13.9881647  75.9932157
  55.2615616  14.1814888  76.9304296  54.3959543  14.1789854  75.6887838
  96.7941484   8.3842600  27.7507516  96.5196905   9.1850412  28.1975766
  95.9843669   7.8888214  27.6281663  34.1993070  86.7152786  60.7159424
  35.1198697  86.4717388  60.8133316  34.1109252  86.9535160  59.7930861
  87.3912499  17.2125423   6.9137117  87.6440498  17.1606863   5.9919568
  86.9490800  16.3816584   7.0879098  10.3309023  76.6274357  55.0678444
   9.5411992  77.0928717  55.3434706  10.4441965  76.8711376  54.1491461
  35.6971526  16.8182039  80.4631042  35.8664250  16.4678597  79.5885515
  35.2237368  16.1189032  80.9137535  97.1180304  35.7599115  89.8113728
  96.9675943  35.5436778  90.7316208  97.2487506  34.9131274  89.3846416
  81.4673254  38.6525238  39.3836423  80.6364247  39.0538299  39.1290971
  81.3700173  37.7300156  39.1475602  36.1117078  18.1825197  28.5967561
  36.2360908  18.6160124  27.7524492  36.8702651  17.6052225  28.6836358
  88.8587770  12.4590290  20.8893224  89.6790740  12.7197588  21.3080808
  88.2223615  12.4343241  21.6038820  77.1045785 100.4569701  30.3613683
  76.5401940  99.7843198  30.7424661  77.2701840 100.1531962  29.4688817
  25.2116847  55.8895779  89.6286869  24.3690348  56.0604477  89.2080021
  25.8557892  56.2949514  89.0481377   4.1197395  52.2850895  42.4877071
   4.4848648  52.2822142  41.6028833   4.8586601  52.5151968  43.0509806
 106.2939653  15.4444254  22.6055642 105.9927210  15.4591501  23.5140058
 107.0490513  14.8561943  22.6131173  99.0300259  15.4546249  36.0892412
  99.6165428  15.5123365  35.3349801  99.0154347  16.3412464  36.4496824
  10.3970675  82.3048119  49.6172448  10.5439715  81.5561775  49.0391465
  10.8973555  83.0169491  49.2187425  82.3764614   8.5930622  50.1599523
  81.4721117   8.9034212  50.2053281  82.3878995   7.8077019  50.7070466
  23.8385320  62.3106527  73.9680910  24.4480348  62.9639101  74.3115902
  23.9564037  62.3488140  73.0189419  73.7478604  13.9236153  12.6156541
  72.9325617  13.4630335  12.8141137  74.4070478  13.2316053  12.5624772
  36.2995481  45.4998207  81.1511040  36.5103912  44.8543787  80.4764366
  36.8225789  46.2674522  80.9200001  17.9271996  44.4427490  81.7860889
  18.6644006  44.8807955  82.2113895  18.2575750  43.5699177  81.5733719
  88.4172055  10.3007257  34.0779992  88.6329183  10.3779257  33.1486245
  88.8947281   9.5246303  34.3710538 108.7053284   1.1239136   8.8418504
 109.2430434   0.8313692   9.5777341 109.0657410   1.9789684   8.6068746
  26.6967766  72.3228411  39.7412034  26.8545048  71.8595067  40.5638048
  27.5619750  72.3973516  39.3385717  25.7800460  33.4717751  81.3460350
  25.9075785  34.4200516  81.3732147  25.9688067  33.1790662  82.2376156
  39.4823027  64.6021223  87.6541138  40.2801800  64.3241978  88.1039810
  39.4515133  65.5498838  87.7846241  80.4594807  92.8250007  11.0742685
  81.0280375  92.1163134  10.7730409  81.0565762  93.5513476  11.2535020
  60.0869417  59.0523243  87.9162979  60.9596539  58.7621021  87.6510239
  60.0588655  59.9782324  87.6751900  76.6783314  90.9210161  41.2349244
  77.1167044  90.7871036  42.0752355  76.8826680  90.1338772  40.7300588
  69.1426018  24.7854698  48.5790941  69.5633707  24.1496742  49.1578409
  69.2662448  24.4276178  47.6999494  74.1741233  79.5285753  34.2326089
  73.9177971  79.1282801  35.0634500  75.1311641  79.5219068  34.2487165
   3.6942197   7.7072513  10.9891530   4.2960931   7.0836532  11.3954755
   3.1043340   7.1646107  10.4658910  94.9488506   5.7062185  13.4467527
  95.6809578   6.3105238  13.3240243  94.4364080   5.7842338  12.6420423
 106.3345084   5.8169687  16.2004205 106.3106069   5.9353865  15.2508756
 106.0729966   4.9060524  16.3348409   9.6051197  85.6167439  13.5958597
   9.7440891  85.4036478  12.6730844   8.7139373  85.9644107  13.6298009
  87.6031909  11.2926519  18.7616941  87.9769907  11.6976583  19.5442983
  87.3097953  10.4301107  19.0552541  31.9276820 102.8177003   2.6416227
  31.3645981 102.5991038   3.3841726  32.8086104 102.8607587   3.0135652
 100.4498629  93.5565738  45.2068826 100.1410298  92.6511697  45.1737710
  99.7112756  94.0734891  44.8851320  79.9482827 100.3694467  15.7979413
  79.8921494 101.2648276  15.4642030  79.9717336  99.8222665  15.0129052
  69.4698481  57.6660828   1.6302892  69.5568805  56.7428888   1.3928624
  70.1575498  57.8121946   2.2798654 102.4971757  35.0801170   6.7976972
 102.8539238  34.2119015   6.9852086 102.6230297  35.5712307   7.6096078
  26.7460823  59.8637962  89.6188641  26.8160200  58.9585733  89.3157005
  26.7211223  59.7954941  90.5733013  23.7311555  10.8477486  12.4770089
  23.5719300  11.5046156  11.7992231  23.7178660  10.0127685  12.0091840
  34.7932625  34.8247361  90.3840828  35.0325656  34.5307040  91.2630081
  35.0882649  34.1201568  89.8072147   3.9418676  52.8273582  73.7657356
   4.0368992  53.6204624  73.2383013   3.0126861  52.8015471  73.9941835
  26.6969776 102.5996876  89.8288441  26.7611122 103.5116768  90.1123810
  27.2438049 102.5536823  89.0445614  16.2664461  94.0368080  66.3577271
  16.6506696  94.2127228  65.4988575  15.6580806  94.7617912  66.5009928
  10.9695017  60.4887438  71.2920856  11.3732922  61.0307693  70.6143045
  10.8429611  59.6370840  70.8738756  11.9476950  75.6949568  79.3931818
  11.0623729  75.5750465  79.0495872  12.4691212  75.0252724  78.9506102
  62.0853207  23.9552343   1.3467332  61.2831649  23.8507259   1.8584558
  62.6258621  24.5493448   1.8673822   2.2886468  17.3077095  22.3693391
   1.6118766  16.7138279  22.6941701   2.2012545  17.2723186  21.4167901
  23.1909371  12.2772634  30.6413099  24.0787412  12.3396290  30.9936448
  23.2870437  11.7635715  29.8393651 103.7632372  69.8297596  89.5894051
 104.4149109  69.6226406  90.2592182 103.9846566  69.2574835  88.8547516
 109.3297515  20.7928312  39.4748994 108.8975176  20.6054676  40.3081533
 109.0909609  20.0575006  38.9105436  77.3544589   3.1423033  50.8324643
  77.2577536   2.2796953  51.2359258  76.7183098   3.1448687  50.1172468
  49.8306959 100.4805736   9.7885534  49.0854995 100.6818036  10.3546068
  49.6152799 100.8945111   8.9528009   1.7209782  54.9471951  73.4994698
   1.7331500  55.2082253  72.5786304   2.3756517  55.5076933  73.9159775
  89.8061022   2.7126635   1.7808553  90.4018232   2.1043957   1.3434049
  90.3805647   3.2930506   2.2802278   7.6986075  23.1690061  36.3850709
   6.9984914  22.5518740  36.1724302   7.9839421  23.5090101  35.5370065
  11.6099645  10.4969013  20.5424520  11.5434123  11.4466751  20.4437753
  11.4720870  10.1541222  19.6594259 106.0525164   6.2245739  31.1451169
 106.0802755   7.0238293  30.6191369 105.4972276   5.6272543  30.6440278
  78.6948622   3.8143099  33.3627626  78.0919856   3.5445011  34.0555593
  78.8303447   4.7497213  33.5140344  63.2572203  80.9523610  36.3843938
  62.9826884  80.3185348  35.7217237  62.6120286  80.8605293  37.0854780
 104.2387709  21.5576113  42.2116395 104.6004257  21.1662710  43.0068036
 104.9987063  21.9193781  41.7557260  73.5875206  98.5321740  38.6551782
  73.2347684  98.3913974  37.7765580  72.9268102  98.1621627  39.2406579
  10.3147460  58.7483967   6.7648240  11.2352134  58.5298050   6.6192743
   9.8403216  57.9471767   6.5429994  67.0370147   5.1059664  33.3483335
  66.3581124   4.6262014  33.8228341  66.5544394   5.7261742  32.8018018
  48.2391071  21.2068152  88.2243824  47.4319077  20.9227347  88.6532879
  48.2749987  20.6933761  87.4173355  74.0859287  14.1154230   6.3267728
  73.8038936  14.8016298   5.7219526  75.0046368  13.9635408   6.1051008
  73.6992888  74.5734242  74.6814748  73.3162598  74.9837069  75.4568502
  74.5210819  74.1938452  74.9926206  94.2332348   6.5531290  30.4568883
  94.9117241   7.0970047  30.8569833  93.4303162   6.7928780  30.9195634
  76.1080055 103.6306075  -0.2141551  75.9687691 104.4906596   0.1822778
  75.5406885 103.0424432   0.2842828  51.7398660  72.5380925  10.4982396
  51.2583344  72.8589872   9.7357580  51.5731172  71.5955750  10.5075570
  92.7455387   3.2641876  25.9883519  91.8610880   3.1815088  25.6317827
  92.7683077   2.6454151  26.7183133  90.7209847  40.1784504  27.7553483
  90.5236742  40.7088364  28.5273572  89.9825630  40.3301132  27.1654626
  47.5299058   5.8628357  23.4391328  47.4515733   6.7430485  23.8069936
  48.1211385   5.9665859  22.6935407  50.7642035  87.1503953  48.2110330
  50.7207160  86.8199424  47.3137399  50.6105535  88.0914740  48.1274053
  46.8614070  96.2694005   3.2477018  47.0459621  95.7638482   4.0392801
  47.7087717  96.6354445   2.9942914  94.0737114  33.2453812  10.0622770
  94.7494039  32.6766289   9.6932336  94.2105398  33.1971157  11.0084173
  52.7495146  40.1446533  79.9061251  52.8021049  39.2492485  79.5718813
  53.4391832  40.1941109  80.5680466  40.0304814  97.0403317  10.0539228
  40.7643525  97.6134948  10.2756139  39.7227772  97.3620633   9.2065545
  31.5783310  63.5086012  73.3974266  32.0841742  64.2600584  73.0881262
  30.6652689  63.7827492  73.3114576  91.4976129  12.9347885  19.0739080
  92.2982630  13.0306900  18.5581609  90.8837387  12.4971950  18.4840795
   3.6558056  26.5860200  86.7922783   3.3751011  25.7335663  86.4594746
   4.5796144  26.4650679  87.0117760  17.6451647  64.0654755  68.4532642
  18.4535301  63.7698364  68.8720417  17.9388070  64.5602274  67.6882648
  36.4848876  72.0515108  69.9822044  36.1072111  72.2554541  69.1266346
  36.1224484  71.1942673  70.2058172  91.4496562  59.7367466  31.6655656
  91.0778758  59.2981041  32.4308034  91.7593691  59.0233791  31.1075231
  -0.1238393  39.0850246  17.9885312   0.6494809  39.6453369  17.9232618
   0.0849534  38.4695518  18.6912557  22.5677396  31.6348732  25.4542371
  23.2264854  31.4211071  26.1149904  22.0308925  32.3142326  25.8622667
   0.8872558   9.0905798  37.0809099   1.4410044   9.7104538  37.5556203
   1.3495041   8.2552088  37.1495649  77.6236040   2.8620994  18.3318063
  78.1162489   2.1136606  18.6685201  78.2517895   3.5843075  18.3371373
  22.2091199   9.2209232  10.5835172  21.5230180   9.8810184  10.4846593
  22.6393271   9.1927803   9.7289010  87.7075752  60.6200838  70.9229422
  87.9996594  60.2611208  71.7608356  88.0439242  60.0069237  70.2693892
   0.4548384  19.0618694  14.3799802   0.8787991  19.2985714  15.2048799
   0.2738477  19.9000204  13.9545652  94.6229205   5.6457317  40.9595319
  94.4995579   4.8327816  40.4695054  93.7973902   5.7708919  41.4275762
  83.5583207  10.7306421  51.6667577  83.3510658   9.9264610  51.1907693
  83.0764631  10.6525648  52.4901315  90.7094953  20.7118881  32.2317621
  90.5918774  21.5469778  31.7789670  90.3695342  20.0581777  31.6207620
 107.7490554  39.2083538   2.8357717 108.4981403  39.3022621   3.4242364
 107.3939619  38.3423889   3.0363866  22.8333045  46.3784969  13.3150503
  23.0593539  47.0421207  13.9667627  23.2688809  45.5832947  13.6219140
  16.0493481  62.9177427  89.3414021  16.6371989  62.7097607  88.6151791
  15.4051518  63.5167980  88.9640808   1.7563630  24.2121017  59.0607663
   1.9950009  24.8798788  59.7037050   1.7127038  23.3993614  59.5645353
  81.0802417  88.6776570  22.3469564  81.8775801  88.2804636  21.9966432
  80.9835105  88.2925300  23.2179090  68.5973100 101.4169864   7.3167917
  69.5317035 101.4879159   7.1215841  68.5284333 101.6441897   8.2440873
   0.7582022  25.8153475  19.4950219   0.9996654  26.7376125  19.5807668
   1.0049225  25.5854547  18.5991975   2.2135664   2.4454153  19.6164628
   2.6549245   3.2455862  19.3315717   1.3347889   2.5105274  19.2426416
  84.3504367  32.1890438   8.9398595  83.6903301  32.4067295   9.5979616
  84.0049938  31.4108742   8.5023996  72.4975710 101.1892442   6.4873811
  72.4331002 101.1277179   5.5343458  72.2735195 102.0987586   6.6843816
  35.8465551  90.4967550  32.7808305  35.5356436  90.1367692  31.9501802
  36.5242162  89.8849181  33.0683442  72.3407364 102.9168701  89.6860790
  72.2854471 102.1384525  89.1317749  73.1828165 103.3121777  89.4605350
 109.7458777  42.7334965   8.7261411 109.6983633  42.0940006   9.4367906
 110.0318465  42.2263992   7.9663297  96.6290483  26.5561331   3.5122606
  96.0476217  27.2775209   3.7526342  97.3641524  26.6279352   4.1211053
  35.2514887  70.2944660  88.1764126  35.9693670  70.8287001  88.5162258
  35.0238013  69.7109079  88.9001846  10.7561446  38.1489456   1.3741227
   9.8455192  38.3982075   1.2164327  11.2048532  38.9768970   1.5455457
  82.7207808 103.0778340  14.8585149  82.5103860 103.7136106  14.1745874
  82.7065043 102.2315768  14.4114419  27.9922057   7.6788080  35.6398698
  28.7345029   7.6634968  35.0357171  27.2750283   7.2784698  35.1483175
  28.5670233  53.8677740  87.4321842  29.1641259  53.3074379  86.9364738
  27.7940655  53.9476919  86.8732643  22.8098727  31.7796219   6.5107652
  22.8664113  32.5636089   5.9645101  22.4177838  32.0853794   7.3287031
  40.5236149  55.9719896  89.0831757  41.2758017  56.5637112  89.1008472
  39.8424077  56.4359426  89.5699310   4.7961427   5.2230585  16.6692182
   5.3488732   5.9189594  17.0248052   4.5759536   5.5197132  15.7861825
  39.9886465  26.6685104  77.6664114  40.1134396  26.1020279  76.9049978
  39.8830605  26.0633183  78.4004593   3.4776164   3.6825169  37.3485872
   3.1087495   3.2748449  36.5650293   4.4066812   3.7929047  37.1463796
  79.1263336  25.6312836  42.3350354  79.4817540  25.5347431  41.4515325
  79.8880801  25.5536449  42.9094526  90.7565889  12.6530207   7.8176137
  91.2358603  11.8261803   7.7640935  90.6061265  12.7824676   8.7540075
  89.4336388   9.7653997  47.9947397  88.6167237   9.9649513  47.5375100
  89.6089539   8.8485706  47.7827855  86.0588548  15.7431591  24.9460813
  85.7538852  16.1916864  25.7347890  85.3288505  15.8166683  24.3313333
  31.9749069  68.0289602  87.5663185  32.3337507  67.1752167  87.8083611
  31.9847536  68.0302668  86.6091633  54.3569999  89.8525433  48.4161207
  53.9116232  89.3749861  49.1159841  54.4899576  89.2004088  47.7281686
  24.7282649  21.7779959   3.8800165  24.3672706  21.0745848   4.4195768
  24.0808250  22.4806297   3.9379522 101.8389902   5.0692499   6.6667577
 102.0567546   5.9228647   6.2923833 102.6863322   4.6489466   6.8136808
  78.5010056 101.3747672  25.6668493  78.0666594 101.8489818  24.9578401
  79.3133597 101.0521010  25.2767297   4.8290989  61.9388676  68.3301973
   4.8978385  62.6450634  67.6877069   3.8879293  61.7933035  68.4263372
  93.8013586  86.1727905  70.3084421  93.0772372  86.1726189  69.6824360
  93.6617192  86.9591999  70.8359766 109.3173465  17.5552833  22.6129457
 110.0026021  18.1419742  22.2928544 108.6347112  18.1407202  22.9408284
 108.3048615   8.6336267  14.0242311 108.9413223   7.9358662  13.8684102
 108.0397830   8.5166634  14.9365255  12.5162793  37.6492966  50.1507970
  12.1631480  36.9146145  49.6490308  11.8382836  37.8456676  50.7973310
  26.6641284  41.7103660  54.8989221  26.7504645  41.1129654  54.1560289
  25.9424926  41.3494480  55.4139062 109.0677506 102.7330685  85.0069046
 109.2162874 103.5686684  84.5642567 109.4015870 102.0758820  84.3962574
  73.1714683  20.0698078  18.5670778  72.2793296  19.9939812  18.2285901
  73.3456622  19.2217100  18.9752599  31.9505359  10.4482687  34.0879937
  31.8300010  10.8389938  34.9534627  31.2916709  10.8737314  33.5392591
  55.6342296  87.2726516  27.4380704  56.5470068  87.5075630  27.2710820
  55.4247646  86.6292886  26.7609903   7.0102216  17.1125162  33.5719129
   7.6639653  16.6217363  34.0698930   7.2965861  18.0237854  33.6336919
   4.5650865   9.7847450   9.0906640   4.8502589  10.6467951   9.3936178
   4.5788957   9.2381275   9.8763200  48.3488779 100.6549911  -0.0660590
  47.6643829 100.0223140   0.1517030  48.1920354 101.3907508   0.5257913
  45.7164384  10.2927339  27.9686757  46.4234639   9.7920120  27.5617048
  45.4022409   9.7310579  28.6772176  92.6082966  37.5497520   2.8289434
  92.2464153  38.2219589   3.4063646  91.8702314  37.2814548   2.2816774
  77.8653006 102.0099381  42.3776170  77.7315812 102.5019053  43.1877538
  78.6598496 101.5000180  42.5354406  90.3212950  41.7627514  29.9620553
  89.6105728  42.4039257  29.9593183  91.1193452  42.2899616  29.9994108
  34.3365288  70.8992434  63.5679674  34.6851039  70.0424957  63.3215666
  33.3880734  70.8068800  63.4777880   1.6737915  22.3788107  13.1015703
   2.3094774  22.4644888  12.3910829   1.0415340  21.7356050  12.7809926
  96.5119323  16.3439119  16.1971017  97.0647773  16.1028994  15.4537984
  96.1629018  17.2049272  15.9667608  34.2946721   8.3805979  36.3102647
  34.5410396   7.9982078  35.4680559  33.3521892   8.2270754  36.3764879
 102.5280056  13.1500137  15.7194253 101.6293201  13.1364143  15.3901693
 102.4613413  13.5624063  16.5806600  36.1818409  48.5722446  75.1525640
  36.9489527  49.1210938  74.9896622  35.4666471  49.0200043  74.7006321
  21.5815164  50.4122818  19.7018644  20.6548072  50.3310001  19.9273225
  22.0195151  50.5627430  20.5395719  15.2198173  36.7196167  28.8555166
  14.4521047  36.1834991  28.6569520  15.4335071  37.1481979  28.0267259
  63.7040357  85.1807121   6.1283037  62.8417663  84.9228076   6.4542028
  64.0635710  84.3813876   5.7435342   4.6889834  68.8022987  13.1317254
   3.9614158  68.2453827  13.4087106   4.8423223  69.3839566  13.8762971
 109.2576418  28.2583702  30.5671998 109.4803056  28.6224831  31.4239808
 109.7452817  28.7969482  29.9440023  25.0730848  49.7748852  90.1171398
  24.1898203  49.7316170  89.7507954  25.2349210  48.8946962  90.4567051
  69.0936975 103.2487897  22.1228620  70.0024395 103.0270556  21.9197484
  68.9766149 104.1293935  21.7664071   9.9295951  10.4956282  26.8559858
  10.0598336  11.1461199  27.5460073   9.1806317   9.9785698  27.1525403
   7.6171971  37.1822727  27.8845998   7.7490235  36.3036144  28.2407209
   7.7574493  37.7663029  28.6298963  76.6676738  32.8903664  47.5773069
  76.9812060  32.0681847  47.9540750  77.2065869  33.0168713  46.7964097
  98.9573702  20.3071154  38.3996507  99.8482380  20.6420744  38.2977315
  98.6793694  20.6235922  39.2591783  51.8852997  70.2007341  81.9712448
  52.5332975  70.4773140  81.3233089  51.3621140  69.5387459  81.5192699
  94.6213898  30.9316719  14.0376397  94.2313013  30.4474056  13.3099386
  94.0698061  31.7083156  14.1315385 106.1354575  51.4991653   4.8421975
 106.1474642  52.2274197   4.2211171 105.6866917  50.7939709   4.3757745
  22.0921517  10.6573570   3.9351102  22.9437877  10.5024612   3.5265085
  21.5189220  10.9021175   3.2086583  33.2675934  40.5071068  87.0760441
  34.0611386  40.4478025  87.6080227  32.7887082  41.2505770  87.4423122
  68.1940171  22.2077358  47.2333738  69.0903393  22.1650732  46.9001790
  68.2663778  21.9420803  48.1501218  96.7798385  30.5125034   4.7571012
  96.3664660  29.6491611   4.7550031  96.5837369  30.8698547   5.6231710
   9.3398047  12.0510662  37.6717016   9.8247195  11.2327421  37.7786275
   9.4405128  12.5005424  38.5107824  55.7287455  76.6116428  83.8551426
  54.8130846  76.8667936  83.9678097  56.0351706  77.1386480  83.1171703
   2.0004202  27.9942596  38.6711522   1.3551212  27.7554310  39.3365690
   2.1002365  27.2043121  38.1398794  72.7442892   3.1946791  24.9285051
  73.1309261   4.0151155  24.6225187  73.2281048   2.9851950  25.7274171
  92.3591444   6.3069761  17.9696008  92.0121274   5.4391945  18.1764146
  92.7559957   6.2062681  17.1043798  83.3697567  41.1247147  34.5975896
  84.0932605  41.5901077  34.1778489  83.1466213  41.6635406  35.3566095
  27.5685167  81.2544537  70.1806307  27.8248048  80.4420090  70.6170797
  28.3739138  81.7703342  70.1427031  75.0544958  95.8649425  13.3170816
  75.6230764  95.3259925  13.8670656  74.1951303  95.4481200  13.3801957
  85.3245358 104.6170024  23.0068895  85.7907491 105.4121522  23.2649823
  85.5751376 103.9682607  23.6645814  71.3511786  13.4011209  22.8898832
  71.2500555  14.3359983  23.0688115  71.3611365  13.3397806  21.9347020
  98.6285243  40.6633938  20.3536722  99.0006742  40.2903831  21.1527940
  98.2677612  41.5064037  20.6282922  16.1486245   7.0623386  15.0054570
  16.2629701   7.8908623  14.5399495  17.0324517   6.8178261  15.2798578
  47.6284791  31.2102592  31.8898603  46.9082833  30.5939567  32.0230218
  47.4691869  31.9061745  32.5274774  80.8998147   7.7640379  21.3965341
  81.5200708   8.1252230  22.0298311  80.3450105   8.5056866  21.1549207
 108.2035837  61.3125408  42.4357435 107.3302779  61.6499699  42.2364637
 108.6302123  62.0214928  42.9170057  97.5733194  18.8695515  28.9681455
  98.4238372  18.7474811  29.3899843  97.0156417  19.2351473  29.6548482
  24.4195987  44.2009151  13.8992139  25.1622630  44.8031891  13.9432546
  24.7213746  43.4148586  14.3544980  83.9821080   8.3985508  45.7031080
  83.5761056   7.7343834  46.2601396  83.3212772   9.0872753  45.6310674
   8.4812785  23.0393398  25.9205457   8.0521632  23.6706818  25.3430578
   8.3994580  23.4203136  26.7948457  35.5852033   3.3860052  32.5420972
  35.2845241   4.2916668  32.6169511  35.5986024   3.2151497  31.6003629
  84.4136021  17.1581400  29.9605867  84.6562776  17.8714836  30.5509111
  85.2219364  16.6591680  29.8428842  48.2326631  99.2686061  53.1610891
  47.8549890 100.0849895  53.4883615  48.7241165  99.5276288  52.3815938
  21.1106992  93.8348389  78.1901503  21.9432116  94.2274666  77.9274893
  21.3451576  92.9588890  78.4967232  32.6130296  36.8218506   9.7795698
  32.4422170  37.6215923  10.2770349  33.2007361  37.0981205   9.0763589
  53.3522539  96.7633037  42.8932687  52.5403766  96.6707686  43.3917924
  53.1225483  97.3427848  42.1668645   0.9693695   5.5227268  61.6989824
   1.3896466   5.0243843  60.9980890   0.8197809   4.8806227  62.3929235
 107.4093828  34.7489155   6.4153692 107.1214780  35.5535400   6.8465635
 108.1974778  34.4900310   6.8929883 107.3095355  27.4887216  17.1310922
 106.7857108  28.2858456  17.0509359 107.4986682  27.2345674  16.2278386
  59.6736130   4.5890558  33.3267232  60.5091807   4.4011391  33.7542173
  59.5668015   3.8833034  32.6889631  82.4884658  93.6529950  50.2587720
  81.8645053  92.9650191  50.0272676  82.7217202  93.4685210  51.1686059
  38.5830307  82.3376560  88.4526348  38.8022447  82.5338268  89.3635082
  38.3848739  81.4011860  88.4503078  78.3962779  18.9621838  85.0394917
  77.7830081  19.6001157  85.4044151  78.8157611  18.5684499  85.8045006
  15.9038735  15.0041473  42.6300641  16.5651275  14.5594490  43.1603643
  15.9181882  14.5417059  41.7920991   2.5550462  40.1760757  18.0780050
   3.3107520  40.6194294  17.6925393   2.7924086  39.2487991  18.0715963
  29.9768186  96.9349194  65.2493048  29.5706415  96.4092445  64.5601654
  30.8849716  97.0407963  64.9659634  19.5272304  78.2958115  10.4882547
  19.0894795  79.0198696  10.9358522  20.4141189  78.6165512  10.3245851
  48.9501858  92.9362392  81.3889408  49.2250204  92.3491764  82.0932484
  49.7485256  93.4020901  81.1402035   2.3008181   0.2761543  28.3002302
   1.7170836   0.4370964  27.5588914   2.9852201  -0.2923309  27.9471704
  83.0308871 102.6980762  43.7419721  82.5898127 101.8695811  43.5541269
  83.8627534 102.6384286  43.2722207  16.1511661  34.4867123  17.0077726
  15.2764178  34.8559273  16.8864080  16.7223550  35.2492798  17.0997926
  74.1328126  18.6460817   9.1490098  74.5898324  18.7436808   8.3136388
  73.4031118  18.0575979   8.9554902  69.4367914  75.2214436  23.7758943
  68.8233094  74.8684196  24.4202825  70.0215702  75.7831506  24.2845651
   5.0175244  85.4721165  87.0938396   5.3877848  85.3482056  87.9677868
   4.4932061  84.6857834  86.9421577  91.3065955  11.2322462  35.8399602
  92.2534630  11.2198961  35.9796830  91.0820803  10.3234327  35.6402704
   0.2894736  48.2093799  28.4205171  -0.2556633  47.7311123  27.7957650
   1.0585285  47.6527107  28.5425874  51.1763410  96.7249421  44.6132680
  51.1581473  96.2156514  45.4235288  50.4086690  97.2938136  44.6706506
  11.2952519  22.7428759  38.8578435  12.0954562  23.0966318  39.2461225
  11.4097167  22.8696335  37.9160043  65.8522038  99.0596799  35.4016992
  66.3061361  98.9236192  36.2333604  64.9653416  98.7346963  35.5569288
  59.0604398  23.8842094  15.2942678  59.2938897  22.9564703  15.2621099
  59.7428498  24.3207157  14.7843572   1.1420489  13.8697803  22.9241868
   2.0588113  14.0831364  22.7502271   0.6510664  14.6037710  22.5548288
  10.4947770  48.9896345  88.1435204   9.5860350  48.7337589  87.9855824
  10.6109798  48.8896990  89.0883732  61.1159925  87.9239301  38.3431455
  61.8820457  87.4434093  38.6569806  61.3668208  88.8451914  38.4109327
  93.6226151  42.9162300  24.2076322  93.2848570  42.1415031  24.6570226
  93.5794851  43.6116588  24.8639509  91.8010244  17.5028265  36.4905473
  91.5502247  17.7227295  35.5933400  91.1272034  17.9107559  37.0344087
  20.6492424  99.3434048  88.7775993  20.7904029  98.6460114  89.4178677
  20.6249785  98.8924217  87.9336452  71.9323187  97.1806125  14.0454503
  72.5984149  96.4932422  14.0370103  71.6963796  97.2968081  13.1250879
  99.3045387  19.3061912  31.0456868  99.0694604  18.4573353  31.4203950
  99.5935449  19.8270023  31.7949888  46.7105532  99.7850323  90.3969383
  47.2833776 100.0690269  89.6845818  46.5777922  98.8502789  90.2393532
  50.4459295   9.2001903  18.5312864  51.1589036   8.6799992  18.9018270
  50.8016357   9.5450628  17.7122804 105.4762683  56.4788711  19.8927041
 105.3792295  57.1588314  19.2260095 105.4640088  56.9543922  20.7233449
  77.9553378  17.3208273  20.1876947  78.3683953  16.5464628  20.5697557
  78.3605626  17.4073160  19.3248292  95.7015953  17.3916614   7.5346776
  95.8220396  18.2729042   7.8884240  94.8139414  17.1475876   7.7968522
  62.6442628  96.6580752  24.7854253  61.9798331  96.8493442  24.1234704
  63.4775905  96.7791394  24.3303033  45.2769136  77.8758049  80.4529858
  44.8777342  77.3359728  79.7707319  44.6329260  77.8817177  81.1611366
   6.2916471  39.3147934   5.3999921   6.8148852  39.3637836   4.5999547
   6.9296361  39.1468037   6.0935232  89.4779095  13.0764282  28.5743448
  90.3766176  13.2733238  28.8385125  89.1352424  13.9097107  28.2511636
  99.5042882  19.0097464  24.3859216  99.3383655  18.1776798  24.8290559
  98.6785969  19.4885099  24.4583627  26.9324542   3.5382355  12.2079583
  26.3630057   3.1608522  11.5374776  27.3408414   2.7817285  12.6288339
  17.8143359  28.2917393  17.0421430  18.1483413  27.5506723  17.5476190
  18.5813571  28.6333073  16.5825387  98.4398398  21.2537086  27.5098440
  98.1402454  20.5277622  28.0570813  98.0834326  21.0625971  26.6422674
 107.0019374  24.1577471   1.3916704 106.3570771  23.4964407   1.6427919
 107.3829064  23.8244331   0.5792638  31.2889625   0.9511555  24.2899629
  32.0902539   1.1995638  23.8290330  30.7220365   1.7187965  24.2154905
  79.7709517  93.4763888  42.3080560  80.0097565  92.6206473  41.9518205
  80.0085263  94.0972880  41.6193792  20.1908589  27.2022808   5.6877824
  20.1760579  27.6510799   6.5331193  21.0435201  27.4241960   5.3136846
  49.9385405  95.1837254  89.1408920  50.8051491  94.7839260  89.2142391
  49.3321943  94.4908810  89.4027233 111.1672315   4.4790447  53.9725801
 111.0162911   4.9597204  54.7864553 111.2798915   5.1601446  53.3095285
 103.0593047  27.6396644  35.8240053 102.2075257  27.2146929  35.7234975
 102.8646884  28.4635723  36.2706872  50.0003910  94.8536491  74.7705746
  50.5897236  94.1029358  74.6974182  49.3083572  94.6778965  74.1330481
 103.3551416   0.7101953  28.0268213 102.5462231   1.2050522  28.1571981
 103.4920535   0.2522123  28.8561174  50.1181488  67.2807113  37.5333234
  49.9831765  66.3430552  37.3961469  50.9197681  67.4805478  37.0498964
 107.9087338  10.4080332   2.9847356 107.6097164  10.7719314   2.1514341
 108.8159284  10.7031191   3.0631849 105.2626714  47.0355976  35.9339448
 105.0076589  47.0632351  36.8561384 105.1503024  47.9353607  35.6273004
 108.7626252  19.6271313  31.3041993 109.2704186  19.2121780  30.6069204
 108.0003986  19.0590227  31.4159795  92.8354332  42.3965061   5.9398385
  93.5480628  42.5424660   5.3176805  92.4556229  41.5582359   5.6766340
  99.3972501  25.9779346   9.3575021 100.2733073  25.5931747   9.3842527
  98.8224563  25.2880991   9.6891328  88.6576399  29.4575870  56.8128988
  88.6320612  28.5254944  56.5965959  87.7383289  29.7231090  56.8373319
  56.9122458  75.4858160  79.2883015  56.2101173  74.9957418  78.8604212
  56.9624758  75.1131344  80.1685333  37.1960926  64.5097542  66.8682766
  36.5237951  64.6340179  66.1983442  36.7748809  63.9634228  67.5318527
  19.5420886  43.9472664  12.8365537  20.0615216  43.1526745  12.9591867
  18.6349107  43.6577595  12.9337331  90.0365166   0.0386437  87.3021603
  90.8696179  -0.3976527  87.1237946  90.2816205   0.8511266  87.7449131
 100.5888734  35.3453911  31.8961641 101.3285002  35.0985802  31.3409444
 100.6491575  34.7587955  32.6501581   6.4331056  11.4141643   3.3684083
   6.9663812  12.1758974   3.1412240   5.5314446  11.7332971   3.3310911
  97.2974548   1.4410389  32.1480771  96.9492063   1.1800850  31.2955209
  97.8525576   0.7081831  32.4145528  60.4304218  46.7681742  80.6550694
  59.7317410  47.4107695  80.7781410  60.2723503  46.1099243  81.3317871
 101.8075833  12.5179232  42.9124185 101.0774097  11.9003570  42.8712865
 102.5892481  11.9655025  42.9043027  90.9402666  13.5228002  34.7197076
  90.7432625  13.4954822  33.7833997  91.0351119  12.6041735  34.9714109
  28.9074469  62.1253633  83.7656689  28.8097453  61.5413141  83.0136204
  29.4186139  61.6192484  84.3971634  57.4889164  97.4622849  40.9561368
  57.7088289  96.5368155  40.8495065  57.2432260  97.7528266  40.0778123
  85.2161882  26.6019810  10.1219007  85.6117186  26.3413608  10.9536859
  85.9516332  26.9128216   9.5939561  48.3245210 100.1879577   5.1908132
  48.0775575  99.8615388   4.3255445  48.2324772  99.4299249   5.7680055
  92.1806154  25.8309734  11.9965574  92.1725139  26.2501228  12.8570672
  91.7726144  24.9773968  12.1420595 111.1132536   5.1560152  16.8943807
 110.7292471   5.7831228  17.5071641 111.8876276   4.8221004  17.3472425
  79.4780472  17.2248590  10.4697534  79.7300205  16.4667213  10.9969732
  78.5542628  17.0786226  10.2661153  97.3827323  35.4811907  80.8006668
  97.2120365  35.0174356  81.6204357  97.0330616  34.9041152  80.1217365
 104.4933567  11.2769258  19.2270109 104.8666653  12.1100939  18.9394399
 104.5385561  10.7145965  18.4537240   4.8621322  20.1344431   4.8131963
   4.9434186  19.7498882   5.6859800   4.3617011  19.4897259   4.3130609
  95.3215322  16.5419233  29.0333482  95.1028118  16.9104708  29.8892518
  96.1199436  17.0006788  28.7719842  31.3364100  93.1024742  66.2653160
  31.2659097  92.3720455  66.8799114  32.2447920  93.3940792  66.3430548
  94.4326911  41.0356033   9.4087144  93.9896950  41.8821800   9.4660875
  93.9284346  40.4618347   9.9855539  83.0383370  51.6857136   7.4331685
  83.7554148  51.9262970   8.0198118  82.7216658  52.5201500   7.0872423
   6.1005546  36.7627132  12.0555707   6.9764472  36.9910610  11.7442724
   6.2549544  36.2299812  12.8356859  50.6569402  97.7545670  14.8302385
  51.2216024  98.5221938  14.9204751  50.8865683  97.1993951  15.5754110
  13.7475968  27.3582065  19.0796205  13.0569030  27.6728428  18.4963723
  13.2922603  27.1348513  19.8914167  22.6100039  39.0094829  90.6076622
  22.6257110  39.9385023  90.3776455  21.7994666  38.8995051  91.1048222
  50.6476693  96.8750981  18.7379953  49.7230058  96.8918160  18.9848729
  51.0610823  97.5179700  19.3142244  12.1336652   9.5472372   4.8053476
  12.2334100  10.2775181   5.4160615  12.3552466   9.9175537   3.9509412
 110.3926000  13.2325352  49.6095678 111.0365662  13.9403284  49.5858022
 109.5459256  13.6778486  49.5768472  84.4426160 102.5003127  27.3895761
  84.8837285 102.1460990  28.1617090  84.6618037 103.4320668  27.3948785
  47.2061210 101.0959319  10.2095338  47.4021880 101.9076900   9.7417280
  46.2585496 101.1192540  10.3429338  12.8685523  14.1296614  21.6428586
  13.5624887  13.5097301  21.4184305  13.3254148  14.9580324  21.7888376
  34.6468307   5.3175056  52.4973413  34.7316743   6.0062111  53.1566736
  35.1011325   4.5653093  52.8768655  90.6649229   4.4553888   6.4432355
  91.1230025   5.2301062   6.1173364  89.7399554   4.6358717   6.2756273
 109.0580043  35.6817234  30.7915231 109.8488888  35.6198299  30.2558919
 108.3618865  35.8882606  30.1678296  80.8224540 103.5964469  24.5736619
  80.6076484 102.9562167  23.8952848  81.6495900 103.9824466  24.2854043
 103.9393029  51.7344845  17.1788522 103.0767688  51.3209427  17.2141954
 104.0605816  52.1104420  18.0507299  99.6094045  36.8723953  23.7975141
 100.3503070  37.3168171  24.2095681  98.8450870  37.1775234  24.2863389
  16.2631417  20.1785648  12.3221704  15.8997632  20.0761927  13.2017824
  15.7254792  20.8600176  11.9187185  38.5774899  95.0467396  79.1823483
  38.6700201  95.0416279  80.1350498  37.6333523  94.9960423  79.0331316
  13.1224729  51.1400497  12.8880807  12.6427938  51.3742245  12.0935365
  13.8814260  51.7233265  12.8903409  15.0332833  30.7041824  40.2716657
  15.7536174  31.3337219  40.2395555  14.5125676  30.9743870  41.0280153
  76.4798884  13.9888104  80.2325439  77.1313624  14.4554051  80.7560921
  76.8628006  13.9460286  79.3563128  20.4150058   9.6679438  24.1983720
  20.8242417   9.7040356  25.0629255  19.7075845   9.0303600  24.2946740
  75.2156878  68.0401993  64.4692516  75.2491188  67.0850229  64.4168472
  76.0795116  68.3267212  64.1726971   6.2332440   4.5103920  27.4749967
   6.4086200   3.8575161  26.7973348   5.8201791   4.0158642  28.1828424
  87.5301382  30.9569061   5.6679937  87.4089262  31.8388641   6.0196992
  87.0998952  30.3845203   6.3032075  38.5930205  76.9076527  21.6349241
  39.0564538  76.6315735  20.8442041  39.1075851  76.5415848  22.3542615
 102.2067318  17.7410257   4.8422738 102.7822480  17.7510631   5.6070730
 101.9865522  18.6610210   4.6961232  55.1429749 103.9791107  86.3327599
  55.8458233 103.7629700  85.7199669  55.5947733 104.1994762  87.1473503
  37.2415210  16.5037382  36.5577813  36.2975789  16.6397608  36.6396352
  37.3668243  16.2356365  35.6474706  23.2237531  21.7251146  32.3978635
  22.4277879  21.9868791  32.8606340  23.0864764  20.8011234  32.1889898
  59.9854469  70.5400133  84.4180202  59.2406702  70.0609684  84.7814083
  59.5985031  71.1283398  83.7696552   6.4639855  21.0155142  11.3996240
   7.3487950  20.9346426  11.0435411   6.5492965  20.7508505  12.3155423
  41.3893509  93.7861252  75.5723906  41.4467955  92.8543854  75.3607559
  41.2731647  94.2173195  74.7257519 102.8194686  76.2935162  72.3495483
 103.5719164  75.7711363  72.0717478 102.8268620  77.0529079  71.7668772
  12.8337909  37.1476353  14.8981878  13.0893088  36.6017425  15.6417962
  13.6612750  37.3842705  14.4792577  11.8447305  37.4463356  25.9229680
  11.8485404  36.9161499  25.1260301  11.0441924  37.9673279  25.8602163
 109.3403754  66.3467396  -0.1430300 108.8063178  67.1362007  -0.0549678
 109.6450719  66.1633289   0.7456514  23.6019898  35.0665176  14.2651483
  24.0756799  35.0132835  15.0952169  22.7012445  35.2712524  14.5160981
 110.4216299  11.4799011  31.7413923 111.0258112  10.9547508  31.2165948
 109.6662960  10.9085930  31.8803426  12.4723674  51.7845047  10.2868196
  12.2979690  52.3280895   9.5184823  12.9429389  51.0257996   9.9416276
  65.8026981  83.3592892  82.8819561  66.6541481  83.7424755  83.0927372
  65.2346659  84.1124439  82.7196884  24.6335698  31.0266388  10.8280774
  24.6046783  31.2365806  11.7615339  25.3701545  30.4215324  10.7413598
   0.9176971  11.5322531  15.7679101   0.4692007  12.2220600  16.2570401
   0.2360917  10.8850181  15.5869981  28.3788491  41.0731495  33.7490770
  27.4972964  41.4320553  33.6477014  28.9248181  41.8327225  33.9520570
 111.1424455  42.4419773   4.8607751 111.5674195  42.1974934   5.6828805
 110.8104000  43.3261288   5.0164911  35.0799847  88.9852142  84.0052509
  34.2512608  89.4619370  83.9584637  35.7294416  89.5997810  83.6635685
  50.5076318   9.9424943  77.5983095  51.2676911  10.1429185  77.0520735
  50.5435746   8.9937219  77.7198982 104.4597659   8.1818712  17.5674077
 104.6785745   7.4070919  17.0496484 104.2581973   8.8551319  16.9175454
  79.2320755  57.3461903  10.1589605  79.4222859  56.6826046  10.8220598
  78.2832393  57.4642933  10.2035829  24.7075725  29.3277526  77.9941463
  24.6650052  28.4623098  78.4008741  25.6438947  29.5143962  77.9256153
  58.5472970  94.7402648  38.4681913  57.8797607  94.0960864  38.2322522
  58.5191564  94.7751264  39.4243356  32.7080585  52.9271877  13.9402601
  32.0454551  52.5037086  14.4860097  32.9176951  52.2767723  13.2699987
   6.4491130  34.6567619   5.4818460   5.5892993  34.4411934   5.1206228
   6.7775489  35.3564442   4.9172136  88.8688800  10.3264606   9.0010568
  88.4902582  11.1376083   8.6620733  88.4312639  10.1907814   9.8414823
  13.4791280  28.0716694  32.0680639  13.4762193  27.3580206  31.4301511
  13.8490201  28.8159073  31.5931722 109.8910246  39.8557747   4.4683381
 109.8003111  39.6507061   5.3989049 110.2779636  40.7311428   4.4525930
  59.9415445  94.2765617  68.0836058  60.2302361  94.7414780  67.2982788
  60.4623795  94.6558094  68.7915134   7.8695298   9.6210087  34.9441167
   7.7239753  10.4190100  35.4522821   8.6728383   9.2486370  35.3078100
   3.6742211  38.5891712   8.6043950   3.3649398  39.4025410   9.0031453
   4.5972682  38.5367477   8.8523217  46.3742828  93.7320805  87.1193409
  46.7971659  93.0247879  87.6063251  46.0150290  93.3057213  86.3412762
  10.4381944  46.1627949   9.8261377  10.1368047  45.9262169   8.9489766
  11.3787890  46.3086594   9.7249814  37.5250745  79.8038435  88.9331055
  37.8723693  79.1944170  88.2817841  36.6184306  79.5253563  89.0622330
  88.8632974  38.5509098  33.9291974  89.7516582  38.2144535  34.0468522
  88.4716282  38.5031212  34.8012945  38.3435106  85.6732845  71.9936800
  37.4507117  85.4244328  71.7544794  38.8284349  85.6476974  71.1687994
  73.2831006  97.1138505  17.1856710  73.1425648  97.2395686  16.2472268
  73.0608539  96.1957339  17.3402520 103.3319292  19.1324366  17.2362443
 103.6758837  18.2535971  17.0763513 104.0559015  19.6010864  17.6515313
   5.2805372 104.1121892  39.2679426   5.3558727 104.3641452  40.1883050
   4.3815228 103.7957887  39.1790506  47.4736624  94.7070054  21.2353727
  46.8091850  94.2139653  20.7541105  47.3163824  94.4875745  22.1537038
 107.7260766  36.9815529  26.5152284 106.7830262  36.8309772  26.4503022
 107.9936657  36.4926708  27.2934457  28.5810804  91.2929440  82.9362392
  29.3348527  90.7324791  82.7520180  27.8241253  90.7722282  82.6677036
  62.2114372 101.0438061  86.0852814  62.0248365 101.1630440  87.0165157
  61.4771509 101.4645958  85.6380749  15.5410911  24.1158474  13.0111333
  14.8368455  24.7412956  13.1816789  16.1210109  24.1957748  13.7684556
  10.6005002  49.5900238  22.2411748   9.9340154  48.9161384  22.1073457
  10.9951640  49.7113979  21.3776037  61.9411039 103.3062744  62.3866844
  62.0081568 104.0319633  63.0072594  61.0842848 103.4209919  61.9756746
   7.4696828  19.5410383  13.5677644   7.0325376  18.6900556  13.5988542
   8.0715943  19.5284355  14.3119260  15.5304433  46.2497032  33.4910699
  15.8219720  46.7618072  32.7367517  16.2472821  46.3221825  34.1212484
   4.1029597  67.6572502   6.0250589   4.5560027  68.3401764   6.5196344
   4.5558692  66.8484009   6.2635251  71.5216451 104.2552213   4.1454526
  71.3333182 104.8680810   3.4346982  72.3815684 103.8946370   3.9292451
  21.5044499   1.9502056   9.1040727  21.4982034   2.4470556   9.9222013
  21.5065862   2.6180017   8.4183141 100.0022082  97.6549701  32.3514386
  99.3523030  98.3514480  32.4451276  99.8940615  97.3458747  31.4519998
  85.9109597  96.9204930  37.8684541  85.6275515  96.9777230  38.7809488
  85.7237153  97.7858857  37.5047704  96.0494551  29.0204704  31.6602346
  95.8087072  28.8789928  30.7446691  96.6039762  29.8005188  31.6442987
  81.5964350  45.9983337   0.1293203  82.3805914  45.5551613   0.4532548
  81.8103972  46.9300259   0.1782819   3.6882974  48.8036240  29.9209138
   3.0281545  48.4539116  30.5193635   4.5134021  48.7193764  30.3987523
  68.4463553  94.9570970   1.2423536  68.2651715  94.0493564   1.4861032
  69.2937260  95.1484612   1.6443178  27.1377921  61.7863894  78.1278992
  26.9302011  61.1139393  77.4790907  26.7176056  61.4812231  78.9319801
  93.0386803  50.5076683  10.5627939  93.5229454  50.7615269  11.3484594
  93.5511968  49.7922886  10.1862356 107.5926909  35.8236206  20.6195852
 108.3343587  36.4075268  20.7783624 107.0885715  35.8501709  21.4328405
  35.6803561  11.0573995  10.9655687  35.7620097  10.8902967  11.9045278
  35.8753491  11.9896782  10.8703634  24.8696065  85.8005905  84.7076321
  24.2872882  86.5209103  84.9490452  25.1762128  86.0246563  83.8289928
  64.8397377  33.9147175  20.2017042  64.0084681  33.5111893  19.9519464
  64.7026441  34.2076481  21.1026117 106.3899622  37.1245754   7.5678750
 105.5255470  37.3776520   7.2438833 106.9351468  37.8983200   7.4253103
  76.3525920   8.2147416  84.6176624  77.1595149   8.5326203  84.2126083
  76.3273291   7.2825536  84.4017696  49.6922399  53.7913311  10.2061864
  50.4948426  53.5021961  10.6402990  48.9900781  53.5288227  10.8014127
  82.0039515  16.7914590  88.9881897  81.6252045  17.2451123  89.7411633
  82.5862841  17.4370107  88.5876942  70.0340086  56.2975967  18.2735177
  69.6128306  57.1118248  18.5489579  70.1281244  55.7916820  19.0806218
  93.6040578  15.6428755  27.3350927  93.3169040  16.4394129  26.8886586
  94.3863520  15.9081257  27.8187105  93.6804506  28.6846340  36.9014474
  93.3639905  27.8264606  36.6192838  94.6195612  28.5603321  37.0387574
  12.3624612  51.6195286  17.8801271  12.6328755  52.0794666  17.0854207
  11.6025306  51.1033237  17.6112768   8.6325503  37.0020283   4.4663450
   8.6964847  37.9384029   4.2783281   7.8972484  36.7002952   3.9329358
   0.1207138  31.3722599  27.1485158   0.3648687  31.9332397  26.4123746
   0.9169437  30.8803261  27.3491594  85.8333068   4.3197831  78.7500143
  86.1624532   4.0089044  79.5933723  86.3021331   3.7944802  78.1015635
  66.8006659  96.2154770  75.0128651  66.9486475  97.1389103  75.2168131
  67.6779175  95.8339405  74.9797535   2.4596573  29.9534500  27.2771379
   3.1348086  29.7831905  26.6203138   2.8897191  29.7772110  28.1139299
  51.2451459  32.0006073  15.7945844  51.3981534  32.9032600  15.5152341
  50.3188230  31.8462837  15.6092473  87.0783875   8.8158834  28.2035085
  86.4297530   8.1557215  28.4478208  86.8228814   9.0880096  27.3220941
  23.5401012  49.0942371  18.5948774  23.2114078  48.2102287  18.7583848
  22.8500320  49.6708286  18.9228746   2.5965024  41.8730438  25.5149099
   2.3259688  42.5466240  24.8909398   2.3236967  41.0491360  25.1112100
  16.8081809  19.1796005   7.8057882  16.5047313  18.8337028   8.6451265
  17.1186544  20.0620497   8.0085489  20.5535794  21.6693104  33.8048383
  20.7154180  22.4550426  33.2826635  19.6804143  21.3808144  33.5391542
  34.0446663  75.8367395  89.6694851  33.5467553  76.2412834  88.9590931
  33.5681748  75.0304079  89.8670101 102.0876584  29.4396198   3.8491556
 101.1769209  29.7342194   3.8500425 102.4793992  29.8701752   4.6090242
  52.2653151  45.0423050  81.4903450  51.8973446  44.2267466  81.8304825
  53.1662893  44.8193121  81.2563515 110.7985768  44.7817123   9.9866220
 110.3459916  44.0945995   9.4974634 110.1011786  45.3728760  10.2701780
  76.6754627  81.9676399  70.3233242  75.9070110  82.1560669  69.7846079
  77.3368788  81.6668320  69.7002029  13.6836625  50.9945953   6.6141626
  13.4506799  50.0984943   6.8569585  14.5873023  51.0964573   6.9129678
  60.7869482 103.6492443  90.9544277  60.2184200 103.3680534  90.2375317
  61.5585566 103.0873680  90.8827019  98.1620321  40.4713619  38.9732763
  98.6861786  39.9911011  39.6142598  97.5088343  40.9351147  39.4972059
   4.0937377  69.1123093  53.4239980   4.1554500  69.9862850  53.8094636
   3.2473041  68.7786091  53.7213632  12.8396989  18.3285845  34.5657846
  12.9147483  19.2476690  34.3091127  12.0877172  18.0024803  34.0713998
 102.8982529  30.6719482   5.9558412 103.7121687  30.5604542   6.4471074
 102.8795752  31.6022385   5.7312414  35.7515861  44.5544994  12.8674146
  35.6533576  43.8493622  12.2275945  36.6315509  44.8977840  12.7123185
 100.0310330 104.4644765  75.2078077  99.7589164 104.4786433  76.1253949
  99.3781190 103.9161090  74.7727987  10.6350757   6.2467468  13.0834600
  10.1846219   6.3923729  12.2515222  11.4398051   5.7876242  12.8429433
  77.9933648  86.6386513  21.2163564  77.9797129  87.5888304  21.3312742
  77.0987086  86.3607553  21.4128228  75.7639265  90.5632496  73.4799623
  75.2880001  89.7569180  73.2810831  76.4036465  90.6444550  72.7725744
   0.8483840  42.3414886  18.3568593   1.4265777  42.9309738  18.8410398
   1.3609959  41.5407360  18.2461187  35.9891559  23.5801113   3.8094255
  35.1626826  23.8963211   3.4444829  35.9586144  22.6315391   3.6848947
  21.2074472  49.4225300  57.9773732  20.4711247  49.6331203  57.4031659
  21.2587691  48.4668625  57.9603502  17.0823337  30.9559238  21.1117288
  16.3344194  31.4666355  20.8018514  16.8062020  30.0444496  21.0158178
  94.9842701  13.2184971   6.6400644  95.4112777  13.9709843   6.2306043
  95.6364426  12.8764856   7.2515603 100.9948215  28.6610115  19.1014310
 100.7309398  27.9053390  18.5764905 101.8435416  28.4132374  19.4681951
  97.5672731  38.0047405  35.8786031  98.0573043  37.3399246  36.3624593
  97.3999676  37.6050747  35.0250741  78.6477039   1.1523331   0.4528161
  77.8176996   1.6051138   0.3034421  79.2807433   1.8550337   0.6001397
  87.4858956  84.3473963   4.3727990  86.8353085  83.8542322   3.8730356
  87.6845031  85.1062159   3.8241884   5.3146554  12.6682079   9.0155145
   5.0067140  12.8927648   8.1374666   5.3375436  13.5036028   9.4822427
  36.3415337 103.9945221  76.0509205  35.5651259 104.0202904  75.4916668
  37.0774055 103.9855766  75.4388380 103.7444195  48.5521496   7.2072908
 104.4017038  49.2440021   7.2818300 103.0609688  48.9297378   6.6536161
   9.1023637   2.4573744  28.6473199   8.4332181   1.9119108  29.0607759
   9.2530681   3.1665361  29.2723104  35.1425029  45.0916279  16.4864084
  34.9923183  44.1484344  16.5500566  35.2274180  45.3824509  17.3944017
  21.1213088  81.4004040  79.0064096  20.4686403  80.7003403  78.9935732
  21.9229555  80.9863758  78.6867619  97.7709660  26.2875927  18.8562509
  98.5517654  26.3679970  18.3084222  97.0422539  26.2839735  18.2356092
  23.3294726  37.3170841  27.0221444  24.1464044  37.3529899  26.5245839
  23.4721852  36.6244877  27.6672574   8.6423970  25.4211557  22.1719476
   9.4674970  24.9662388  22.3407289   8.1172753  24.7900904  21.6797754
 105.3978734   6.5587148  53.3186674 105.5920272   7.4760064  53.5113144
 106.0221200   6.0649785  53.8504267  22.8673459  32.7452648  19.2268583
  22.2040702  32.7565658  19.9169084  22.4963666  33.2854927  18.5291787
  47.0679856  30.2319706   8.5019323  46.8889714  30.1515568   7.5650617
  47.9189683  29.8099983   8.6202546  24.9946071  45.6934917  28.5194894
  24.2712070  45.1936424  28.1412431  25.1198388  46.4267624  27.9171106
 107.3954186  55.9017265  24.1628572 107.4506244  56.2472713  23.2719060
 107.0308218  56.6221226  24.6769830  36.7603208  27.5298012  15.7717058
  37.3560859  28.2418812  15.5388089  36.5355207  27.6953686  16.6872808
 111.5538368  36.4784611  32.7959272 111.0632596  36.9385040  32.1148034
 110.9668646  36.4736164  33.5520192  85.6075339  -0.1803390  87.2593403
  86.3134484  -0.4418746  87.8505421  85.7929377   0.7363995  87.0557308
  70.6048632  89.3298340  82.4406242  70.6668615  88.8162327  83.2459831
  69.8848295  88.9275742  81.9548512   1.5502120  48.2196701  12.0999833
   1.2057949  47.7424705  12.8548929   1.0252167  49.0191543  12.0621511
  13.2430888  29.5917309  15.3451654  12.4325610  29.3718422  14.8858949
  13.1854821  30.5355156  15.4941484  36.5138246  39.8667705   7.8060743
  36.5233899  40.7894600   7.5515386  37.3113633  39.5037640   7.4208661
  32.5838256  92.9717064  86.3533211  31.9285536  93.5532570  85.9677696
  32.3203373  92.0950699  86.0734653  26.3944436  24.8962105  14.4912359
  26.5473271  24.2712248  13.7825414  26.1234952  25.6999100  14.0475198
  60.4869442  23.2824811  68.4151173  60.0822501  24.0266236  68.8608789
  60.0548820  22.5149449  68.7898588   9.5708371  64.4154919  16.0492536
  10.2359248  65.1029385  16.0132142   9.6476699  63.9636028  15.2089425
  26.4075780  93.5392952  88.9920235  25.4744077  93.5957241  89.1975498
  26.5716672  94.2863178  88.4164715  23.0850268  68.2662666  17.3738405
  23.7958194  67.6292408  17.4459764  23.4659005  69.0866173  17.6871892
  49.3303919  96.1059666  72.0556116  49.7470856  96.3115406  71.2187481
  49.8055696  96.6352272  72.6961756  46.9909192  56.5077675   9.4384404
  47.1624089  57.4080074   9.1620656  47.6352120  55.9841240   8.9620801
   4.5023252  37.4957741   6.2572500   4.1365195  37.8390015   7.0724889
   4.9310542  38.2491482   5.8512231   8.2961322  41.9649780  25.8701822
   8.3149768  42.7675331  26.3915082   8.5401631  41.2737549  26.4857217
  37.1765327  18.8794327  73.6909962  36.8309236  18.0170095  73.4607506
  37.2348928  18.8668287  74.6463299  44.7655821  43.5720634  84.6831799
  44.2386389  44.2447615  85.1144981  44.1572475  43.1384420  84.0847301
  71.3495927  58.4527979  21.5119573  70.4565267  58.3516107  21.1826822
  71.7178874  59.1658066  20.9902211  44.5162927  91.1036996  21.3849469
  44.3526785  91.0616902  20.4427739  43.7721293  91.5930180  21.7356893
  74.4545107  85.8954982  19.8889657  74.5079713  86.8197159  19.6456548
  74.2261748  85.9053496  20.8184739  54.7319428 104.5236292  82.1797276
  54.9469510 105.4558627  82.1490002  53.7873272 104.5006086  82.3327160
   0.7179276  16.4876282  69.9708891   0.5724495  17.1545529  70.6419182
   1.5775096  16.6982770  69.6062326  17.4118316  51.9918871  84.0489578
  17.3199272  52.8853798  83.7181187  16.5556312  51.7861843  84.4242382
  11.4292288   7.2829211  88.0053139  10.8235097   7.6453578  87.3587990
  10.9602928   7.3503083  88.8370514  58.3031468  81.1972050   6.5578576
  57.8353767  81.9930653   6.3048097  57.7456336  80.7928089   7.2225877
  40.4721458  93.2448701   0.8964940  40.5026882  93.2274989  -0.0600604
  41.0565089  92.5369100   1.1676809  33.3733320  -0.1222138  87.4820709
  33.0659151   0.6070986  86.9437122  34.2241430   0.1660560  87.8126049
 102.0098098  26.6995716  73.4759378 101.5191676  27.4984908  73.6688900
 102.2266289  26.3381982  74.3353748 108.8759156  33.0525541  81.5950775
 109.6876698  32.5622249  81.4652252 109.0324410  33.8931847  81.1648846
   0.4147872  46.3470173  79.2837620   0.3895072  45.4636335  78.9160299
  -0.2063606  46.8453884  78.7526941  99.2150906  83.5312525  71.1979103
  98.5304741  83.2928387  70.5728579  99.9896888  83.6859671  70.6572676
  78.2296996  89.3825296  23.6969014  79.1724067  89.4990782  23.5787984
  78.1459908  88.9572958  24.5503637  43.5164218  75.9465913   7.9261323
  42.9510842  76.7138676   8.0150815  44.3983017  76.2779168   8.0956765
 110.8939395  17.3176706   6.5507909 110.3391895  16.8732965   5.9096834
 111.5132818  16.6465748   6.8376275  20.1115060   9.0388572  80.7037926
  20.7371688   9.7605950  80.6415558  20.4841685   8.3506274  80.1527023
  89.2099767  89.9049071  43.7315198  88.3905940  90.2774886  43.4059068
  89.2046647  89.0014843  43.4152433  14.1314411  76.0244417  76.6847897
  14.4016743  75.5497169  75.8987617  13.9721084  75.3402138  77.3349237
  88.4040221   6.6174722  64.0184212  89.2759689   6.9793051  63.8602495
  87.8043040   7.3227698  63.7752581  97.2828898  13.8142002   2.9206773
  97.7335248  14.6557272   2.8500482  96.3572464  14.0275515   2.8028127
 102.5536277  92.3777008  63.9252138 102.8261086  92.8838825  64.6905661
 101.8496098  91.8153381  64.2482376  46.8699776  52.1006467  24.6575757
  46.2886135  52.8213177  24.4149228  46.5038817  51.7623390  25.4747411
  52.6838105  73.6467937   2.5925084  52.3992746  73.9099339   3.4677335
  52.3991637  72.7364758   2.5117132  15.4423666  14.6259463  73.7682533
  15.7856965  15.4620123  74.0834522  14.4914591  14.7231698  73.8187933
 110.4817110  36.5955687  71.0566950 109.7327513  36.0311675  70.8650112
 110.9199723  36.7067313  70.2130127  43.8342546  94.7493342   2.6811906
  43.2332592  95.4473380   2.9416295  44.5602064  94.8144368   3.3016702
  48.5651986  43.0152700  24.6083375  48.4375315  43.4668348  25.4426118
  48.8122599  43.7084118  23.9961740  28.6605072  16.1965990  84.8730755
  27.9290581  15.5966866  85.0190926  28.4346604  16.6574621  84.0651035
  18.4616435  36.9669938  83.8723087  18.8947523  36.3897848  84.5011806
  18.0768311  37.6600099  84.4088554  98.2534822  60.6895351  75.9686136
  98.0812927  59.8090506  76.3022709  97.8734954  61.2730932  76.6253471
  65.9420948 101.2903909  10.4729577  66.1567955 101.4822463  11.3858339
  65.0316005 101.5698031  10.3772374  79.3369059  79.0102462  10.9408399
  80.0585847  79.2421369  11.5253373  78.5605769  79.3818621  11.3597032
  85.0428424  33.1311214  18.8265821  85.3498873  33.3364380  19.7096368
  84.8778686  32.1883953  18.8435193  54.5255499  62.7313498  20.3604909
  55.2851837  62.3442439  20.7956239  54.8407166  63.5736636  20.0327607
  58.4381585  85.7978658   8.8373395  58.3287768  85.7781700   7.8866216
  57.5512128  85.9137277   9.1781255  18.3073120  79.2599563  26.4401265
  18.8275270  79.7447494  27.0809003  18.6470060  78.3660797  26.4828416
  67.6135974  81.5311340  19.0934774  67.6046114  80.5777434  19.0086385
  67.0758705  81.7079810  19.8653623  81.3360223  16.9343603  38.8131257
  81.9287142  16.7334259  39.5373937  81.7088160  16.4711321  38.0630037
  39.4445375  90.5478052  12.2979375  39.2748144  90.8174757  13.2005521
  38.6734785  90.8398298  11.8117067  28.5470377  60.7837723  20.4736825
  28.9582680  61.3673792  19.8360845  29.0450303  60.9205238  21.2796136
  39.3285158  63.8013867  17.1234437  38.8438396  63.6962120  17.9421445
  40.1838635  63.4094171  17.2994348  17.2826295  89.4380573  11.6119882
  16.9181375  89.0554050  10.8138963  18.2298415  89.4201426  11.4752408
  45.5044805  68.9298145   7.0730516  44.8315297  69.6104328   7.0843240
  45.0160830  68.1115750   6.9825860  57.0884971  99.7533635   8.3072301
  56.3151936  99.2502097   8.0521318  56.7659979 100.3727654   8.9618799
  84.6231561  92.1282820  73.9823552  84.0398125  91.5246204  74.4422742
  85.1550250  92.5213317  74.6743413  76.4230161  74.3235044   5.4910299
  75.5703478  74.7364096   5.3542825  76.6157679  74.4728641   6.4166471
   4.2330763  23.4207463  82.0880032   5.1650220  23.6326003  82.1411705
   3.8499138  24.1474080  81.5966988  83.9381080  49.1853202  12.4858877
  83.8863139  50.0016207  12.9830762  84.4740252  49.4029919  11.7232343
  29.9575830  23.3608603  73.4890556  29.7622633  22.4508643  73.7126350
  29.3412495  23.8735747  74.0120173  15.1866126  55.8807278  85.5416775
  16.1086249  55.6598568  85.4099941  15.1946747  56.8057871  85.7875252
  69.9916163   1.4852083   4.6554395  70.3786484   0.6399763   4.8835298
  69.0475974   1.3428820   4.7247430  80.6831363  14.9360168  30.6994077
  79.8808936  14.6605480  31.1429807  80.3783700  15.4236114  29.9341604
  79.0853123  86.3236360  25.7403585  78.7297730  86.8575887  26.4507886
  78.9833646  85.4217724  26.0444566  42.2347568  65.4760269   2.8641816
  42.6572876  66.1966542   2.3968526  41.9621499  65.8585826   3.6981889
   3.3348274  10.4807425  71.5759611   3.3570141   9.9490559  70.7803154
   2.4134694  10.4852462  71.8354034   4.3416661  71.4924860  71.6728878
   3.8686880  71.2244368  70.8850574   5.1435935  70.9700060  71.6602135
  45.6374788  15.1949489  76.3447285  46.2847519  15.7659781  76.7584753
  44.9210501  15.1469171  76.9777012  72.8819208  82.5565866   2.1279260
  72.9383759  82.5039224   3.0820104  72.0704083  83.0363730   1.9621393
  31.2630582  48.8839722  85.9359741  32.0059252  49.0606451  85.3587627
  31.5197444  48.1015873  86.4240456  17.0686984  38.6191940  66.3630629
  17.4463224  39.3301606  65.8452225  17.3445225  37.8214502  65.9116697
   2.5352290  32.4407053  76.7881298   2.7972746  33.1612468  77.3611784
   3.3379066  32.1974635  76.3268566   0.7650290  56.4142227  78.4754086
   1.6576435  56.7223358  78.6320543   0.3532795  57.1179390  77.9739380
  20.7002735  20.9007406  64.1606140  20.0067091  21.5312314  63.9664936
  20.8217764  20.4188919  63.3425140  75.8122639  65.2271990   0.6452199
  75.9841399  64.5627026  -0.0219706  75.2285747  64.7951321   1.2687990
  38.0051947  82.7589130  82.1891117  37.7632332  82.2346020  82.9525185
  38.1689143  83.6336994  82.5414848  71.2494950  69.9752335  19.0421125
  70.8568816  70.8420900  18.9389249  71.9160609  70.0932161  19.7188684
  17.9872203  40.6237221  83.5006809  18.8127470  40.1392269  83.5003853
  18.1817091  41.4280081  83.9818573  85.9478097  79.9607400  11.5663072
  85.6346421  80.5045847  10.8435365  86.8011098  79.6410326  11.2732145
  16.9634868  16.4111936  25.7448503  16.4559747  16.3369644  26.5530225
  16.4927245  15.8649624  25.1153680  14.8214698  35.8101511  79.8343706
  15.3388286  36.2056065  80.5359268  15.0967693  34.8934889  79.8212719
  23.1783295  37.9928589  88.2637882  23.5808253  37.1601224  88.5103226
  23.0838513  38.4670711  89.0898800  33.6634398  19.9168861  90.2698803
  33.4366918  19.4739044  89.4522095  33.6164284  20.8492041  90.0582027
  70.9522896  66.3748065   2.2144815  71.6394811  65.7124440   2.1418592
  70.1390700  65.8720974   2.2612687  17.7031219   9.9588001  82.1696472
  18.0107689  10.8551514  82.3043346  18.4813011   9.4784147  81.8869877
  46.6911697  27.3225045  79.2032528  45.9064245  27.0099211  78.7530327
  47.3973322  26.7731142  78.8630533  32.3745656  44.3349504  77.5664568
  33.1212091  44.7897816  77.1767378  32.0603442  43.7534666  76.8740892
   2.1336655  73.3504848   2.6376649   1.2820177  72.9382423   2.4928018
   1.9387512  74.2850951   2.7065297  71.7305231  29.9875546  88.1610394
  70.9301138  29.9349594  87.6387215  71.8633223  29.0971017  88.4861374
  73.2333641  63.3641449   6.6692754  72.5201921  63.8093833   7.1268483
  73.1054787  63.5910098   5.7481786  48.0758040  93.8420514  18.4728357
  47.8737454  93.3508090  19.2691346  47.7482455  93.2911042  17.7619287
  16.3668060  42.1373653  86.5728760  15.7663667  41.4560223  86.8753242
  16.2421489  42.1625710  85.6241608  33.2970993  77.4678592   6.7492887
  32.6420294  77.7951745   6.1328622  33.7530978  76.7764262   6.2694761
  29.6043848  96.7622022  27.8089067  28.9789526  96.1487845  28.1946298
  30.0695919  97.1331243  28.5587236  44.6712685  26.1607242  77.8319454
  44.2974758  26.2858176  76.9596720  44.1476154  25.4588890  78.2185268
  22.3289084  21.6586018  78.2426929  22.1464896  21.7849517  77.3115683
  23.0255985  22.2854304  78.4374762  78.7720589  48.9449496  28.4872934
  78.1361203  49.0666453  29.1922780  78.6011939  49.6675439  27.8832265
  58.1442547  29.1139674  60.1517010  58.2794619  28.2257915  60.4819965
  58.1546116  29.0194654  59.1992331  30.8776975  56.1692476  77.5483561
  31.4975715  55.7172251  78.1207752  30.0289154  56.0532236  77.9753685
  47.4346638  37.3147702  80.6057549  48.1704998  36.7532277  80.3619289
  47.8049135  38.1970930  80.6313324  56.6658060 103.7568406  10.4315587
  56.7783718 103.5882596  11.3670465  57.5550513 103.8907317  10.1036187
  39.1618156  40.6143713  74.9565506  38.8068295  41.4331484  75.3027010
  38.7037420  40.4869890  74.1257811  62.1862655  67.6144496  31.7356321
  61.2463288  67.7032057  31.8933507  62.5900535  68.2416288  32.3354932
  51.8322472  71.9571392  17.3196241  52.4406116  71.6137568  17.9740068
  51.8304770  72.9028920  17.4672052  24.3906999  53.6885118  83.7759686
  23.8042498  53.9183664  83.0552197  24.7759509  52.8523588  83.5139275
 105.1354446  30.0699663  88.8511181 106.0407992  30.1256037  89.1568470
 105.0975057  30.6680584  88.1047440  54.0108256  87.1920518  17.6120302
  54.2249374  88.0494694  17.2443029  54.8124080  86.9147638  18.0556604
  77.7963904  16.1757982  16.2547704  78.5141900  16.3951958  16.8487855
  77.5240857  15.2979505  16.5220949  71.8931559  36.1140430  11.1722299
  71.5125206  36.1865032  10.2969571  72.6446143  35.5320061  11.0591813
  49.1333382  76.5572003   9.0024682  49.0848689  77.4775509   8.7439367
  49.8152499  76.1866287   8.4421941  35.4009771   9.9563563  76.9038105
  34.9376464   9.1895407  77.2407818  34.7152996  10.6105888  76.7694330
  30.7925367  27.6947021  87.4721622  31.3511944  28.3521318  87.8867912
  31.2893128  27.4068904  86.7062569  59.6149998  88.0859260  33.3886453
  60.1289587  88.5342959  32.7170488  59.6210413  87.1669034  33.1210824
  72.3244785  79.0304271  60.2415609  71.8462217  79.7801581  60.5956888
  73.2289614  79.1688696  60.5225897  68.2477932  98.9400796   1.8786546
  67.9786925  99.8452786   1.7223474  68.5329299  98.9293460   2.7923318
 101.1130842  10.3358936  71.5072250 100.4722484  10.9956336  71.7723751
 100.6583186   9.8115844  70.8480453  32.1638942  23.9139700  69.6635056
  31.8338442  23.1967688  69.1222811  31.4491248  24.1040230  70.2711391
  20.3517509  58.0255461  66.9417095  19.7488761  58.3612776  67.6050806
  21.1265349  57.7576208  67.4358368 110.0262646   4.4391438  80.8391190
 109.1521662   4.1035837  80.6401634 110.4356147   4.5637172  79.9828815
  61.9902615  80.5050544  10.6288740  62.2918563  81.1580233   9.9972841
  62.7664118  79.9773673  10.8169385   8.3100814   6.2483525  67.1391010
   8.2463092   6.0276252  66.2098837   9.0626532   5.7471639  67.4532270
  27.5463676  19.5552647  55.2197027  28.3208323  20.0785089  55.4262209
  26.9148850  20.1873326  54.8762608  64.8801594  99.4802741   5.7009717
  64.3807368 100.2953319   5.6510564  64.9277334  99.2854718   6.6369363
  79.4638774  10.8560837  21.7405244  80.2437219  11.3114965  21.4232274
  78.7779144  11.5236605  21.7352887 109.1324487  30.9190083  87.1228409
 108.5578098  30.9149265  86.3573265 109.8961080  31.4255905  86.8463707
 109.4777135  93.7958840  81.2227058 109.3212227  94.3658832  81.9755936
 110.3200129  94.0866688  80.8731270  88.6865184  24.7657335  46.6783544
  88.5298881  24.9069012  45.7446691  89.0992913  25.5760181  46.9771596
  27.2193866 104.8007325  18.4120008  26.8444090 104.2052249  17.7631589
  26.8747430 105.6615571  18.1744500  88.6915212  75.3237347  11.0659810
  87.7946906  75.0986270  11.3134595  89.0163665  74.5471171  10.6103727
 102.1268229  84.1251973  33.8656160 102.8896909  83.5611943  33.9927503
 102.0504050  84.6131424  34.6855565  24.7909307  43.7807035  85.5734539
  25.4581690  44.1491890  84.9944592  23.9935589  44.2646885  85.3585434
  40.2726221  75.2224874  73.7124777  40.5779362  74.6636200  72.9978561
  39.3324423  75.3156137  73.5587835  10.3243971  34.2757726  79.8926973
  10.3162110  34.2520428  80.8495712  11.2088478  33.9984584  79.6537924
  41.5822506  12.2609401  61.5936899  40.8427620  12.8059721  61.8626261
  41.5412283  12.2565210  60.6373787  30.5804062  39.0955997  78.2184792
  31.5342784  39.1051865  78.2976580  30.3572035  38.1695890  78.1240511
  46.5687561  74.4878721  78.0642462  47.5129843  74.6396923  78.0239725
  46.4776087  73.5356331  78.0300951  46.8307345  94.0376309   7.9664251
  47.1374218  93.6343841   7.1542951  47.5291292  93.8654403   8.5979577
  42.7437173  72.0249895   9.6481725  42.6169978  71.1174027   9.3716642
  41.8571784  72.3619894   9.7774526  65.4232073  45.2487803  72.5503588
  64.8267937  45.7953691  73.0619907  66.2156296  45.7781410  72.4604702
  27.0489192  20.3736401  73.0714273  27.0698929  21.1841726  73.5801792
  27.1304178  20.6597400  72.1616268  95.7138114  84.8616175  10.6735822
  95.6974416  85.6440906  10.1224920  94.8115258  84.7640637  10.9778806
   4.2887446  97.7343778  40.3671857   3.5231348  97.1675948  40.2731630
   4.9811932  97.2836856  39.8838350  89.6261696 101.0896773  85.7795525
  88.7263683 101.3693750  85.9479523  89.9313859 101.6711709  85.0831795
  58.3194904  60.8985011   9.7175809  57.6400213  60.7198820  10.3677007
  57.8929262  61.4651547   9.0747949  90.6585363  86.1018554  79.2238474
  90.9901932  85.2940408  78.8318396  90.2757338  85.8245793  80.0562000
 111.5538402  24.1369605  72.4526644 111.3234664  24.9342251  71.9756651
 110.7871139  23.9524293  72.9951668   0.7984682  88.7278823   3.6130639
   1.0280701  87.9959826   3.0404970   0.3301760  89.3390826   3.0444166
  45.3331874  83.6450199  17.3030111  45.5608194  83.4680799  18.2157632
  44.3762379  83.6651401  17.2943898  64.8491030  90.8269552   1.7900010
  64.4566445  91.3139657   1.0654088  64.4864921  89.9447302   1.7098447
  59.6558862  99.6981982  11.1319944  59.4840698  98.8245849  11.4834329
  60.5509214  99.6495036  10.7961770  55.1599507  60.3901921   5.3621599
  54.4889681  59.7089473   5.4059812  55.7463579  60.1041059   4.6617910
  18.2388186  22.1064711  87.0858765  18.3688784  22.7935982  87.7394581
  17.7288318  22.5275469  86.3938999  78.1193595  77.3913602   4.7674676
  77.2147136  77.3925094   4.4546624  78.0832820  77.8507642   5.6064340
   7.0651722  16.1088204  73.8157320   7.4365318  16.4188540  72.9897785
   7.7629924  15.5861914  74.2108774  48.4001427  79.6617726   9.3312379
  47.6288061  80.0198606   8.8918611  48.2587211  79.8542360  10.2581617
  69.2539291  95.0148467  20.0073549  69.0594725  95.6758384  19.3429014
  70.1131873  95.2633695  20.3481504  49.9981746  13.8812769   0.8126184
  50.2356991  13.8655746  -0.1145056  50.2571449  13.0202043   1.1408254
  68.4074240  90.3819422  29.0656205  67.7463941  90.5903510  28.4054395
  69.2258053  90.3180293  28.5732862  51.7468982  94.2707423  26.6042253
  51.3151996  94.1777638  27.4534723  51.1069100  93.9419154  25.9729406
  89.6118073  75.0072054  15.1575109  89.4571118  75.1631383  16.0891649
  90.5220322  75.2688841  15.0187703 104.7726359  13.1925464  75.2033710
 105.2427103  13.9602280  75.5288363 105.3885563  12.4686646  75.3168106
  25.1406097  51.7995787  88.0931950  25.3887153  51.0170078  88.5853958
  24.4566059  51.4992619  87.4947071  92.7610073   3.9048374  36.0248109
  92.9218778   4.6730936  36.5726587  93.2750914   4.0633572  35.2330896
  94.9843082  28.0290115   7.7782079  95.3518090  28.6228168   8.4328576
  94.1655407  27.7211464   8.1668874  21.1516213  44.0013885  72.5445271
  21.4703345  44.5708466  71.8442583  21.4557886  44.4192791  73.3501816
  31.7080498  43.1034279  75.2164793  31.0805058  43.5325527  74.6348715
  32.4325299  42.8521585  74.6435738 105.5678897  79.6168474  47.2592851
 105.7484631  79.2974524  48.1433698 104.9161725  80.3070168  47.3824140
  10.0239384 102.7635288  67.5686646  10.8729362 103.2002163  67.6374960
   9.3835205 103.4643078  67.6911783  34.0892053  57.7493429  62.3220682
  33.7605596  58.1944799  61.5409946  34.7254753  57.1172428  61.9876337
  17.8425276  42.0866156  70.3687572  17.7266610  42.8802490  70.8912086
  18.4334350  41.5418005  70.8886003  60.3172092  74.3193559  21.8294927
  61.0876446  74.2429475  21.2666246  60.6716089  74.3460754  22.7182599
  51.5921593  43.7650299  88.7596512  50.9360409  43.6950350  88.0662251
  51.1401415  44.2166185  89.4723797  27.6340008  67.0004225  64.7151089
  27.3497605  67.4857950  65.4896069  26.8368125  66.5840244  64.3874836
  52.3213463  98.9737967  20.0958368  51.4639788  99.0942792  20.5040475
  52.9440169  99.0537290  20.8184167  86.3759956  20.0038040   7.6387426
  86.5406642  19.0948666   7.3878404  86.7813334  20.0913227   8.5014554
  13.0007745  40.3074444  11.8520662  12.6819469  41.1555279  11.5433046
  13.9176179  40.4640854  12.0780965  86.9952302  84.8231629  10.4832765
  86.6956334  84.6832422   9.5850107  87.9061227  84.5290545  10.4805108
  34.3249512  46.3964891  87.2078896  34.4935536  46.6593695  86.3030720
  35.1143765  46.6550446  87.6834869  34.9990726  43.6271095  87.4065399
  35.6938004  43.8262367  86.7788982  34.4162869  44.3854332  87.3673248
  20.9689164  49.5384312  64.6393871  21.6188049  48.8358641  64.6226645
  21.4616275  50.3141451  64.9072170 106.6428241  15.0455749   0.4415723
 107.4363742  14.7155798   0.0201246 106.4472112  15.8605087  -0.0208548
  24.9056029  99.8126507  85.1742268  24.5106936 100.6822968  85.1110172
  25.8159733  99.9431419  84.9088383  42.8119659  41.4444208  66.7570877
  42.5258780  40.7458687  67.3456573  42.2757196  42.1985483  67.0019579
  17.7809572  67.6230001  51.5105200  18.0521691  67.0152187  52.1984673
  17.1911800  67.1108246  50.9572840  93.3590655 104.5792274  14.2010042
  94.0626626 105.2253655  14.2617627  93.1502776 104.3662433  15.1105615
  84.0232714  73.4784269  81.1565590  83.7229975  73.5219574  80.2487183
  83.8784274  74.3603516  81.4992905  91.9402084  40.7660187  16.1422368
  91.7358467  40.9788120  17.0528337  92.7601049  41.2277019  15.9665891
   1.1634565  36.8851936   1.0895654   1.7253662  36.1815155   1.4141103
   0.2726222  36.5638626   1.2288305  24.6134996  46.9787407  75.6009007
  23.7230563  47.0755005  75.9385061  24.6346378  47.5309181  74.8193121
 106.7673883  12.4839247  15.4014608 105.9129510  12.8473509  15.6340238
 106.8700704  12.6891745  14.4721814  61.4866924  89.8603916  61.2720871
  60.6775856  90.2869320  61.5542984  61.6851997  90.2598095  60.4251575
  47.8956466  95.8739261  13.0103513  48.3350448  95.3338698  13.6672326
  47.3012237  95.2712659  12.5634786  69.1778164  86.1915878   3.5666200
  69.5000462  85.3537349   3.2343503  68.2534461  86.0336188   3.7584993
  24.8639442  21.2042320  12.4486181  25.7492686  21.5663278  12.4849626
  24.3227101  21.9264257  12.1296521  21.7015648  27.7425289  89.7631264
  22.1844673  28.5124850  89.4627857  21.7806101  27.1149588  89.0446949
  32.0930600  35.8149624  70.1195097  31.7814612  35.2785873  70.8485079
  32.8144097  35.3111219  69.7426414  74.6288566  64.7183935  27.7754995
  74.7285204  65.3015725  28.5279676  73.7426619  64.8886255  27.4562665
  93.4664259  17.2551811  14.0127870  94.4024429  17.2620476  13.8126489
  93.3844432  16.6554487  14.7542974 102.6515016   7.4275530   5.6219121
 103.3521542   7.5121057   4.9752542 101.8574676   7.6759708   5.1485940
  30.1435566  50.5400372  62.8333807  29.7508407  49.8261976  62.3309469
  30.1680589  50.2144146  63.7331629  54.2875433  37.7310920  77.3395824
  55.2052498  37.6776385  77.0727682  54.3097544  37.6444697  78.2925940
  85.3614621 101.6337327   0.9572431  85.2872138 101.0058574   1.6759225
  84.6627812 102.2675065   1.1197587  56.4383745  75.9264088  86.2040901
  55.9234190  76.4479303  85.5884075  55.9044170  75.8967876  86.9979668
  18.6973739  23.0492353  76.3009596  17.8493047  23.4822512  76.2034607
  18.4933817  22.1143866  76.2748814  32.1178794  41.3402748  84.6092319
  32.6006150  40.8309507  83.9582443  32.5879264  41.1880493  85.4290581
  26.1257529  44.6080542  72.6020336  26.0613704  44.6594524  73.5556841
  26.8781352  45.1576805  72.3828030  33.4674835  69.1088772  76.4336872
  34.0214634  68.4499645  76.0151577  32.9269886  69.4538260  75.7229757
  33.4082794  24.7193885  79.9752998  32.6743412  24.1946316  79.6556187
  33.8872814  24.9679470  79.1847229  25.0113177  76.9758844  81.6263294
  25.2506900  76.1092949  81.2977695  24.8047924  76.8331766  82.5500298
  22.2550631  56.6472769  75.8273315  23.1868339  56.7967844  75.6670666
  21.8307734  56.8699074  74.9986887  90.9797668  69.0260696  72.9896784
  90.4326916  69.7303581  73.3374166  91.3718987  69.3957472  72.1986008
  98.7073998 102.7837399  19.7833463  97.8412204 102.4707440  20.0440999
  99.3033271 102.4058799  20.4301187 104.8781686 102.4459914  10.1146623
 103.9771418 102.6558761   9.8690435 105.0691800 103.0313567  10.8475324
  99.2873225   3.3981979   7.2897741  99.1265783   3.9090431   8.0831453
 100.1288972   3.7184608   6.9651052  76.9603329  77.7955321  16.7564603
  76.7255311  78.6865095  17.0157930  77.8350882  77.8792099  16.3769361
  34.2828298  67.8433132  80.9067726  33.3439922  68.0276585  80.9356117
  34.6815848  68.5512781  81.4127445  67.1191792 102.4189404  16.1726972
  67.4546199 103.0020741  16.8536302  66.2102680 102.6926211  16.0493776
  43.7443399  71.7011547  72.1661901  44.4215775  71.4002562  72.7720308
  43.7025166  71.0191870  71.4958143  41.8685436  37.2903395  90.1746845
  42.7028418  37.6412320  89.8631477  41.9574165  37.2716713  91.1275673
  67.4846773  82.4811510  15.6163427  67.1856551  81.6465525  15.9772607
  67.6807122  83.0177454  16.3843747  51.3004827  28.6619258  77.9825068
  50.9058142  28.6340189  77.1109056  50.7239437  29.2346835  78.4882593
  22.8162861  20.0083876  83.2118416  22.3991370  20.4854012  82.4944305
  22.1753693  20.0357437  83.9222717  75.3114371  82.8834466   6.0622522
  76.0400538  82.3678879   5.7164975  75.5009489  83.7804607   5.7871457
  52.3757546  87.3501472  34.5009538  52.9832785  86.9535259  35.1253244
  52.7754502  88.1911234  34.2790719  37.6515007  21.2529182  63.4320974
  38.4002280  21.8181801  63.6221457  37.9401422  20.3778601  63.6913109
  74.3317990  86.3834719   6.8135854  74.7094660  87.2627787   6.7931577
  73.8749938  86.3384489   7.6535436  94.6171221  20.9362257   5.3619596
  94.9536261  20.9689844   6.2574598  93.6745736  20.8049620   5.4649278
  19.3682909  47.0605755  71.8760395  19.8185170  46.8376350  72.6907921
  18.8943601  47.8674841  72.0773363  47.6061289 100.4776362  34.5674726
  48.4123545 100.8333711  34.9412175  46.9266652 100.7069758  35.2014753
  48.6565495  37.4114561  69.1914845  48.9556837  36.6092181  68.7635088
  47.7122307  37.2915006  69.2919970  10.7880807  55.6727314  87.4723244
  10.9073818  54.8554039  87.9560280  10.7959890  56.3529348  88.1457424
  41.9091272  82.8550339  61.3414145  42.2201920  83.2691002  62.1464109
  42.4797010  83.2039833  60.6566429 101.7326293  20.3555620   8.7801954
 102.0637855  19.4717253   8.9395543 102.3585901  20.9291828   9.2222043
   6.9706523  22.3705101  64.1116953   7.5793517  23.0059266  63.7349129
   6.5262192  22.8500152  64.8108244  63.2665205  75.8846521  86.6349125
  62.8076458  75.9000969  87.4748135  63.3985329  76.8073463  86.4171028
 110.7290225  76.9686798  22.4354287 110.1742034  77.1680454  21.6813299
 110.2685027  77.3549298  23.1803819 102.1441903  69.1903687  66.6901398
 102.2711780  68.8339329  65.8109045 101.4715787  68.6320114  67.0800972
  97.8958139  15.8758629  13.9701291  98.0211863  15.0921810  13.4350034
  98.5788474  16.4785135  13.6760064   7.3834383  47.2576523  63.8227367
   7.6891702  47.9929113  63.2915545   6.4288402  47.3050642  63.7705326
  34.6077514  52.1541977  74.6020985  35.4964590  52.1966887  74.9551201
  34.5462990  52.9089022  74.0165424 104.3125443  97.7224950   4.4595739
 104.0788274  98.6434678   4.5754167 105.2696566  97.7180127   4.4471666
  47.1828275 102.2483186  27.1707650  47.6597051 103.0688504  27.2954389
  46.4144032 102.4937943  26.6555044 104.5009618  75.6255654  30.0462648
 104.9165778  74.8138265  29.7554513 103.6142592  75.5822329  29.6883317
  10.8325601  36.0765886  85.5269527  10.2360404  36.6524792  85.0486851
  10.2942991  35.3236294  85.7710075  51.9897060  91.8562273  16.3371202
  52.6038484  92.4103216  15.8554193  51.3119201  91.6376761  15.6975290
  33.4613490  61.9549036  89.2742062  34.2338634  61.3974619  89.1808510
  33.6896992  62.5652122  89.9753475  37.8089391  97.8432158  13.0340406
  38.5569273  98.4164695  13.2017633  37.3782714  97.7564172  13.8844701
  11.8116379  49.1253614  60.2312517  11.3622153  48.3117199  60.4598045
  12.1814525  49.4351006  61.0580111  76.8491869  59.3096177  10.5293199
  76.3543730  59.7359113   9.8295614  76.1803155  58.9222286  11.0939142
  60.0517759  33.2516182  13.2412740  59.5534107  33.2434833  12.4240896
  59.9427638  34.1404236  13.5794565 101.6721425  19.3399179  43.3533307
 102.0288715  19.9541462  42.7116987 101.5836153  19.8554743  44.1549512
  75.3365545  67.6107697   4.6684762  74.9970131  68.0311553   5.4585477
  74.6394472  67.0139674   4.3962594  50.5723922   6.8642434  88.6727810
  50.7299464   6.0577306  88.1819153  50.7098465   7.5639829  88.0342674
   1.1816097  10.6178320  21.7255136   1.0141445   9.9092186  22.3468419
   2.1307708  10.6087816  21.6020318  13.6259425  55.7566452  71.3210535
  13.0493009  56.1772108  71.9588947  13.1638908  54.9563265  71.0716009
  53.1831217  64.6811438  80.5780888  53.9782286  64.5647955  80.0579834
  52.6170015  65.2261209  80.0315189  13.2176816  23.3685112  81.9201374
  12.7189362  23.9196515  81.3170433  13.9736497  23.0781794  81.4097977
  97.9207358   6.4152944  22.4531099  98.6316809   5.9794891  21.9831487
  98.0572877   6.1756695  23.3697149  66.2786679 104.3335227  30.5784913
  65.8405833 104.7259978  31.3336583  67.2103934 104.3748597  30.7939264
 102.0386700 101.6133527  46.6975328 101.6741233 100.7342366  46.5950700
 102.9778628 101.5018538  46.5501710  72.9697089  99.8121480  54.1925737
  72.7482395  99.3927220  55.0239965  72.3380713 100.5264787  54.1089364
  24.5346665  49.6452999  79.5219135  25.3250146  49.6552992  80.0618076
  24.4544172  50.5424976  79.1981363  41.5267420  59.0277386  58.3582878
  42.2042036  59.3976021  57.7921724  41.0494232  59.7886086  58.6891603
  54.7597031  96.8286828  34.7431966  54.5097821  95.9070853  34.8096963
  54.6486430  97.0406846  33.8163968  17.9995465  48.0803490  74.5018721
  17.8432477  48.4760380  75.3593302  17.7083874  48.7430906  73.8755894
  97.3108182  20.8477295  15.8354112  98.0219183  20.4569137  16.3431856
  97.6894960  21.6465891  15.4684564  57.1998410 100.3411941  25.5891057
  57.9315595  99.9175052  26.0377809  57.5217752 101.2183885  25.3814527
   4.8542548  16.8188560  36.8416234   5.7525683  17.1485937  36.8184873
   4.3094588  17.6032484  36.7771264  69.9762492  92.9897336  10.3618356
  69.5556240  92.7242640   9.5440122  69.7571640  93.9169673  10.4538652
  40.5271339  46.3004684  70.7192373  39.7129369  46.4577961  70.2411556
  40.3974104  46.7344236  71.5625000  73.4353881  95.3769235  40.2128431
  72.5120764  95.2240972  40.4137727  73.7137847  96.0339383  40.8508607
  42.1716022  34.5224476  86.9734001  42.6434469  33.6900330  86.9472504
  41.6020298  34.4509482  87.7393723  12.4849177   0.1119125   5.7968160
  12.7671863   0.8011854   5.1956102  12.5095416   0.5229223   6.6609308
  87.6518445  93.0927114   8.5388776  87.2861152  93.2591752   9.4076463
  87.9196076  92.1740631   8.5637304   8.7978613  90.0607872  87.5688553
   8.3571440  89.5074463  86.9240093   8.7236327  90.9469509  87.2146988
  46.3398008  92.1615199   4.1177961  45.6687682  92.0438627   4.7901841
  45.8772771  92.0238451   3.2911512  97.7809844   2.9525507   4.7698518
  98.6021576   2.7600849   4.3172380  97.9943785   2.8686989   5.6991884
   1.6681968  39.0961289  79.3235588   2.0537181  39.3325686  78.4799337
   2.1370848  39.6351027  79.9606466  50.5815601  64.3211699  87.6867771
  50.6242228  63.6819935  88.3980274  51.0608482  63.9108515  86.9669533
  16.2315977  51.2637043  52.4441957  17.0550060  51.4058590  51.9772673
  15.8122182  52.1240377  52.4575615  59.5496664   3.7734831  17.8816434
  59.2234192   3.1712664  17.2129651  59.0944097   3.5120762  18.6820432
  44.1764073  99.7693900  24.0475770  44.0943067  98.8386420  23.8397428
  43.3440231 100.1513032  23.7691709  11.8035519 101.3193798  88.7264729
  12.6255071 100.9040546  88.9874744  11.9847369 101.6861248  87.8610897
  37.3165512  84.6298504  80.0234604  37.9460001  84.5282078  80.7374001
  36.7526984  85.3513813  80.3021908 101.2498780  85.5543137  45.5689859
 100.3237065  85.3208447  45.5062914 101.2732562  86.2742805  46.1993265
   2.6022738  69.0723085  61.9650793   2.4884638  69.8338604  61.3964701
   1.7290241  68.9056969  62.3199129  65.9598760  92.3423342   6.5993902
  65.4443960  92.5103215   5.8105298  65.3537683  92.5082854   7.3214170
  86.6848998  85.2476744   7.1881791  87.5269179  85.6825236   7.3228761
  86.8188433  84.7008757   6.4140340  15.5817068  41.7284536  68.6486673
  14.8873067  41.1790657  68.2850504  15.4021835  41.7505550  69.5886183
  86.7149004  56.0001898  60.3448486  86.3622173  55.1112509  60.3044796
  86.3591870  56.4344311  59.5695210  23.0784778  96.0451201   1.1537954
  22.9649489  95.0950984   1.1255857  24.0230231  96.1760406   1.0705777
  72.1451313  28.7520111  14.0801259  72.9919234  29.0371216  13.7367841
  71.5114722  29.3468178  13.6789819  68.6043219  68.9074747  26.6432878
  68.4801535  67.9729489  26.8090459  67.7167516  69.2636458  26.6033670
   9.8101389  57.2937775  74.7616720   9.5994681  58.1775236  75.0630665
   9.2972040  56.7185020  75.3292894 105.7014766  47.3345232  74.8339081
 106.6508865  47.4331093  74.7622585 105.5766793  46.4388418  75.1476049
  40.5814791  71.5310669  76.9166613  40.9300470  71.9173431  76.1132193
  40.0298452  70.8090734  76.6155720  17.6765168  57.6753426  73.4014034
  17.1296155  57.9497433  74.1375017  17.0756388  57.2159767  72.8147554
  46.0820627  29.4971180  85.6099892  46.5148401  28.7483811  86.0202694
  46.5753269  29.6464324  84.8033714  33.0779719  40.0549841  61.3551283
  32.8970003  40.3987980  60.4803276  33.7191272  39.3590045  61.2110281
  56.5155821  89.1599707   2.9352399  56.2947457  89.8112205   3.6010763
  57.1070270  89.6185926   2.3385068  56.8704939  79.5692253  49.1652393
  56.2015438  78.9412308  48.8925552  57.6862383  79.2220688  48.8043022
  23.6888766  72.5591993  60.1244640  24.2961717  73.2904148  60.2373743
  23.5979104  72.1858406  61.0011387   6.5464021   7.0177734   9.4281312
   7.1669580   6.4218176   9.8476335   6.0436536   6.4606703   8.8338968
  29.4204235  65.9450579  86.8548393  29.9432611  65.4782248  87.5067043
  29.4008470  66.8497944  87.1667671  90.8901628  33.4396696  78.7284279
  90.0833067  33.6625409  79.1926908  91.1465558  34.2513180  78.2905722
  76.6637068  95.3941325  22.9971048  76.3983040  96.3068608  23.1098958
  77.1103387  95.3774241  22.1506616  55.3671551  28.0556250  87.4983597
  55.2373409  27.1352577  87.7270603  54.8347139  28.1847811  86.7134666
  30.1686049  30.1633501  74.3711901  29.6434593  29.9028540  75.1278925
  29.5381379  30.2316952  73.6542034  24.5852685  19.4897461  85.0419426
  23.8284731  19.8079216  84.5497417  25.0199032  18.8802373  84.4454288
 102.9647169   4.4446695  10.9592172 103.4649810   3.6550939  10.7529661
 103.6258015   5.1316631  11.0442659  27.3433304  70.6564713  78.3328104
  27.4088621  70.8215094  77.3922253  28.1313515  71.0556221  78.7014914
  47.6028972  85.5579761  19.1835710  48.3332114  85.5564383  19.8023340
  46.9890128  84.9136428  19.5360013  86.1678653   2.4991425  86.9971466
  86.6312222   2.5455293  87.8334332  85.3618054   2.9946050  87.1421242
  12.4116422  13.0876482   1.5371534  12.0565511  13.0802334   2.4260255
  13.2083465  12.5600517   1.5931054  83.2035641 105.1987771  19.3777868
  82.8273873 105.0734214  18.5065671  83.2837825 104.3138103  19.7336313
   1.9882012  16.1431969  14.9029085   1.7280246  16.4831436  15.7590505
   2.9303552  15.9932554  14.9809762 103.8881926  89.0516380  35.5559465
 103.9936166  89.2422370  34.6238538 104.5947842  88.4377841  35.7563039
  54.5214273  11.4402378   6.3714715  54.8667337  12.1404350   6.9252988
  55.0222302  10.6650198   6.6253873  88.1895881  83.8427381  41.5684911
  87.7974610  83.2210950  42.1817037  88.8517051  84.3028001  42.0844098
  98.9839730   4.6882904  17.0323106  98.6121163   4.3110073  17.8295633
  99.3113885   3.9349068  16.5409299  71.7414288  94.2449454   1.4371034
  71.0827689  93.5825757   1.2281438  71.9519119  94.0912131   2.3581334
  47.5458507  89.8836330  14.6930047  48.3081512  89.5529441  15.1681634
  46.8202894  89.3365196  14.9937650  57.9297452  96.7158536   6.2638780
  58.6582641  96.1409644   6.4983960  58.0131225  97.4623469   6.8571969
  90.9507892   6.9919098   1.3773557  91.6074237   7.3978842   1.9432660
  91.4338383   6.3237751   0.8910581  96.5039782 102.1365193   4.2594453
  96.4075856 102.4898604   5.1438066  96.1211257 102.8050498   3.6913701
  10.6517398  65.0179625  72.6481915  10.4379761  65.9299421  72.4511528
  11.2421083  65.0673914  73.4000254   8.4190410  24.4543481  68.8829708
   8.0747473  24.5284081  69.7730350   8.5811365  25.3582335  68.6128855
  24.5601559  33.5260391  35.4535198  24.2862248  33.5137033  34.5364380
  24.7853446  32.6163626  35.6484818  55.5447595  86.9364051  10.4024717
  55.6579153  86.0082749  10.1975271  55.7578819  87.0038847  11.3332006
  63.2423162  87.6753330  40.0767946  63.3247375  88.5568523  40.4406023
  63.1074142  87.1130562  40.8396053  58.7119198  23.8669443  77.6952839
  58.1748867  23.2232213  77.2332811  58.2416439  24.6935248  77.5864649
 109.2302475   6.3363254  11.4421197 109.9343547   6.2990654  12.0894834
 109.2685327   7.2285879  11.0976907  34.2750263  51.2842274  77.3641348
  33.7935686  51.9379187  77.8712034  34.1478848  51.5469980  76.4525318
  78.9091592  87.2949318   1.5635892  78.7400107  86.7635278   2.3415586
  78.0787616  87.2936634   1.0874864  44.9149609   7.2919798  77.7262020
  44.5935965   6.4244610  77.4805021  44.5338202   7.4529713  78.5893631
  76.2464957  79.1130380  13.9428827  76.5907340  79.6838669  13.2559415
  75.6964783  79.6860126  14.4771215  54.8015928  51.3301611  88.2054424
  55.5634928  51.5021658  88.7587547  55.1696157  51.1495256  87.3404789
 110.3478632  32.9708565   3.1384298 110.5542049  33.5262669   3.8902112
 110.7934675  33.3894432   2.4019166  87.3225805  35.5180633   8.4671995
  86.9709835  36.2126053   7.9102250  87.1852491  34.7152317   7.9643747
  13.0159509  56.0914087  76.2220144  12.4776232  55.8019733  75.4853582
  13.8303435  55.5964375  76.1325693  40.0239776  99.4215754   7.9722520
  40.7420917  99.9301652   8.3489248  39.2360896  99.7817830   8.3793374
  77.1411559  10.2031410   5.7958242  76.7928466   9.9640501   6.6547509
  77.0850379   9.3975532   5.2819082  32.6460004  40.0382853  65.4117680
  32.0230484  40.4735327  64.8297691  33.5004449  40.1991510  65.0114202
  20.7577134   7.5122202  31.6989347  20.6946565   8.3171165  32.2131273
  21.5071775   7.6553286  31.1209604  67.1727137  93.1293515  61.2620183
  67.7827625  92.9190139  61.9690057  66.6081290  93.8104323  61.6275426
  22.9488802  58.3399200  86.3120651  22.2799015  59.0244770  86.3211250
  22.9867363  58.0540943  85.3993225  53.3820801  95.5379991  12.2864839
  52.8110843  94.9846963  12.8194543  53.4968059  95.0490407  11.4716264
  32.5840998  59.2767906  80.4371166  31.8940926  58.6770773  80.7207870
  33.3889270  58.7623453  80.4990196 101.1945014  47.3277328  20.8475419
 100.5328660  48.0193935  20.8565446 101.7282443  47.4967334  21.6239377
  60.3955989  84.1170386  37.1182748  61.3059239  84.1668562  37.4099180
  60.3096752  84.8247198  36.4794942  80.9283671  10.9035623   4.0898916
  80.2755413  11.2181604   3.4645292  81.7541626  11.2775123   3.7825509
   5.7084852  18.3294475  74.7019148   5.0696427  18.0291998  75.3484154
   5.8368552  17.5768065  74.1246080  23.9162016  45.8490372  88.5508919
  22.9893064  45.9243679  88.3241272  23.9966655  46.3097477  89.3860626
   6.9964743  32.2311187  62.5485134   6.9893783  32.7260733  63.3677816
   7.6288170  31.5283966  62.6986980  71.5353422  79.8793129  15.5229112
  72.4796657  79.9956087  15.4182359  71.3083725  80.4272131  16.2742635
   1.2287570   8.9729631  11.6247579   1.2415768   9.7477758  12.1866628
   2.1481491   8.7181557  11.5471383  44.7833805  99.1982488   5.5377218
  45.6923173  98.9272908   5.6667348  44.7696303 100.1203469   5.7942029
  85.6981807  92.5875215  30.3595754  86.4614539  93.1316403  30.1657029
  84.9623351  93.1996898  30.3631994   4.9948693   2.7747000  12.2770711
   4.2236901   3.2165993  12.6323720   4.7070457   2.4348486  11.4297792
  35.8461452  38.5771728  87.3637104  35.0316334  38.7130833  87.8477859
  36.4509702  39.2245913  87.7260113   3.3216568  98.6935357  43.4412690
   3.5904213  99.2157916  42.6854631   4.1005512  98.6571816  43.9964601
  98.4445438   6.0649622  27.7788564  98.9026866   6.0190380  26.9396707
  98.0176434   6.9216669  27.7721044  22.7368808  69.8219633  83.2050323
  21.8409395  69.4867849  83.2393646  22.8653049  70.2494287  84.0517998
 105.0253591   6.1209429  13.5091802 105.8246956   5.7820452  13.1061384
 104.5610151   5.3409708  13.8129255  26.0638547  78.8831329  67.7577114
  25.3679419  78.2835817  67.4884987  26.2966204  79.3545198  66.9578075
  84.5049624  71.2693397   9.5489808  84.3377833  70.4314891   9.1173669
  84.2713265  71.1178175  10.4647847  23.8677120  64.5488405  85.9123325
  24.7378445  64.1499662  85.9137535  23.9747715  65.3553677  85.4080772
  70.1073794 103.2271413  28.3869573  69.3918829 102.6377849  28.1483098
  69.8863892 103.5274438  29.2685529   1.4066161  40.0876331  74.1895914
   0.4698940  40.2327251  74.0564299   1.6018894  39.3009496  73.6804438
  33.0621244  47.8059280  12.4507448  33.6775971  48.1777847  13.0825254
  33.3209992  46.8874157  12.3762914  45.7671022  73.4796524  85.6376743
  46.6602707  73.3213902  85.3320122  45.6096220  74.4046831  85.4486179
  65.7230949  68.6774397  78.5590267  66.0981083  69.3759775  78.0227041
  65.7078981  67.9141140  77.9816771   9.6908826  53.0522490  82.5889778
  10.4318357  52.4651861  82.4387264   9.2133403  52.6538229  83.3166027
  43.9233594  80.2868799   1.4531823  43.9717661  80.0661711   0.5230352
  43.7591647  79.4508723   1.8894883  51.8559313  63.3350801  85.6087112
  51.9420671  62.9735279  84.7266197  52.4923897  62.8467655  86.1309242
  61.4341497  74.0234518  77.2162485  60.7728672  73.9578485  77.9051828
  60.9296036  74.1078615  76.4072132 108.3059106  25.2799261   8.3080789
 107.6317558  24.8836220   8.8600751 108.9916191  24.6143902   8.2523938
 106.7957387   8.4126604  24.8528692 107.1654162   7.9966581  24.0740796
 107.5438938   8.8308990  25.2789804  36.7997266   8.6681688  17.7159425
  36.9103290   9.6169269  17.6538678  37.1801473   8.4376324  18.5635110
  45.5661535  57.6611185  89.3082237  46.2492800  57.2049284  89.7996140
  45.6525898  57.3301458  88.4142303  33.2452250  68.1935453  60.5865669
  33.1989121  67.2413969  60.4999399  34.0120459  68.3468056  61.1385918
   3.9915372  49.6136940   1.0852834   3.1721545  49.1274536   1.1769887
   3.7198163  50.5280579   1.0056421  63.0281925  61.5619707  78.8777828
  63.0630112  61.4799118  77.9247427  63.5875988  62.3134804  79.0740728
 109.9484496  67.0181815  19.4708463 110.8513503  66.8472496  19.7387811
 109.8471932  67.9657403  19.5609113  43.1605816  98.7984562  77.8259563
  43.1812096  98.4980869  78.7345743  43.3001184  99.7437096  77.8829479
  68.9904261  46.9355345  78.6719418  69.9475002  46.9448709  78.6841345
  68.7409353  47.8565741  78.7472343  19.6277106  70.0650930  85.8720493
  20.3516746  69.5649004  86.2487698  19.0796220  69.4075537  85.4437160
  22.2988702  23.3323419  14.8568746  22.8050614  22.5200642  14.8711988
  21.5571357  23.1625927  15.4376146   1.3150494  70.5664587  90.2303314
   1.5269247  70.9464788  91.0829353   1.9682553  70.9343100  89.6351528
  68.5028908  17.5114954   0.9216806  68.0788186  17.0281399   1.6307374
  69.4288326  17.5284708   1.1637040  26.1889052  71.7129517  85.4527664
  25.7801580  72.1455908  86.2024212  25.9392715  70.7931662  85.5416489
   0.6896950  18.5891474  25.3850099   0.9337259  17.6657141  25.3221246
   0.0509358  18.6201179  26.0972329  12.1122933  20.5291021   9.0100309
  11.9517423  21.4462650   9.2319986  11.9901229  20.4872835   8.0615827
  55.1208572  85.6948356  23.1030961  54.5071010  85.8104710  22.3777219
  55.2552502  86.5782384  23.4462663  24.9992944  14.6466387   5.1080247
  25.8130885  14.5589912   5.6043073  25.1472760  14.1345680   4.3129751
  58.0324936  68.7837458  85.3896809  57.8704023  68.8433409  86.3311768
  58.2595158  67.8654385  85.2433872  27.8005910  57.1031523  88.9005566
  27.4214792  57.5891447  88.1682205  28.6671543  56.8401718  88.5904884
 103.3869729  27.6387012  19.7130128 104.0229211  28.3363426  19.8714372
 103.7714610  26.8657196  20.1264020  20.1462174  43.7757767  22.9199334
  19.7857047  42.9679382  23.2855436  20.5342675  44.2259682  23.6702462
   5.2983762  33.6014927   2.0378228   5.9662391  32.9261673   2.1566793
   4.9672462  33.4574783   1.1513444  12.9527951  18.2829368  10.3089925
  12.9639722  18.5583342  11.2256547  12.8971673  19.1003168   9.8139974
  14.9407149  25.1659382  18.1783983  15.6157733  25.4424560  17.5586721
  14.6337129  25.9801424  18.5772153  63.5321951  70.6004238  85.6753826
  62.8842688  71.3040209  85.7123947  63.0166340  69.7964573  85.7391548
  91.1948113  91.1233739  48.1782361  91.5254359  91.5088014  47.3668405
  90.4819732  91.7034344  48.4458658  30.0328159  82.7763081  69.9475861
  30.8008170  82.9745388  69.4117594  29.7123384  83.6320210  70.2326870
  40.2908039  68.9971113  89.4697189  40.0848436  68.1034899  89.7440529
  40.1294851  69.0011978  88.5262203  35.5467272  46.0015345  84.7494793
  34.8222184  45.3940344  84.6002674  36.2676358  45.6469774  84.2290878
 107.8213601 104.1316632  18.5453054 108.3045487 104.0787629  19.3698999
 106.9969611 103.6781863  18.7212583   1.4925099  26.8045986   0.4771921
   1.1188103  25.9248293   0.4263231   1.1915327  27.2391832  -0.3207949
  79.1697454  47.2393560  74.4622421  78.8898754  47.3095465  75.3749180
  79.3439198  46.3066149  74.3361902  50.4848814  65.2335787  51.6989756
  50.6757402  65.7564306  52.4777126  50.2046299  64.3853474  52.0427704
  62.7596521  60.2683020  71.5250254  62.3957062  60.7775497  72.2492027
  62.4718046  59.3712902  71.6945696  72.5612020  63.6427546  87.9626465
  73.0229235  64.1463232  88.6330700  71.6688967  63.9889622  87.9751682
  44.7785234  75.3628635  89.4551659  45.4853773  75.0816441  90.0361156
  45.1803207  76.0242558  88.8918209  49.0680170  89.1847229  90.2758312
  48.6351299  88.4156895  89.9051094  48.4547234  89.5104980  90.9346008
  30.3844802  86.5212111  10.2168008  30.1683693  87.2682861  10.7748433
  31.2502520  86.2421779  10.5148145  18.2166768  14.6236599   7.1134397
  19.1510202  14.6002233   6.9068452  17.8048850  14.9694431   6.3215467
  30.6829978   5.2469671  26.4731523  30.3643704   4.3448198  26.4442750
  29.9703313   5.7397831  26.8799230  35.2077031  75.3138828  79.8286200
  34.3628383  75.0291872  80.1770210  35.4572368  74.6249485  79.2127228
  96.1364035  96.0035018  10.1333543  95.5766826  96.5573529   9.5891210
  96.9929843  96.4299277  10.1076242   9.2768909  12.9018772  34.3431207
   9.8877145  12.1738184  34.2288514   8.7198640  12.6346910  35.0742647
  29.7219920  93.2404613  69.0973043  30.3046131  92.5299358  68.8290977
  29.4986248  93.6880207  68.2811975  78.6823320  51.4991903  82.8380108
  78.2239628  51.4562416  83.6772251  78.8810730  52.4281788  82.7209091
  21.0878278  22.5416506   4.9115106  21.5657331  22.5607002   5.7406446
  20.3447820  23.1290090   5.0497934  70.7781935  50.5656862  76.2443066
  71.1712694  51.4127445  76.0340452  71.0449839  49.9927759  75.5254030
  42.3726845  88.0794430  70.8597946  42.9201031  88.2989502  70.1058817
  42.8309202  87.3549557  71.2856722  89.1967873  90.6632046  29.8234769
  89.4995599  89.7575025  29.7581693  89.9925284  91.1708740  29.9825498
   1.7694111  42.5512505  54.5032835   1.8803218  42.4466515  53.5583019
   1.9728392  41.6887856  54.8652315 100.0860986  44.8814381  21.5029832
 100.6323609  45.6501186  21.3387986 100.5907163  44.3574608  22.1251127
  60.1045990  96.8279552  89.7820091  60.4204702  96.2095547  90.4408169
  60.8326435  97.4365139  89.6561813  83.1910186  94.9759511  18.0164453
  83.7594657  94.5793513  17.3562928  82.7692990  94.2324571  18.4472581
  74.6352482  67.9252195  73.9393473  74.5072222  68.0794811  73.0033731
  74.4333410  66.9972372  74.0589619  34.0139389  56.1173105  77.0465803
  34.8866129  55.8927488  76.7237139  33.6284757  56.6454220  76.3474798
   4.4309569  18.5899294   0.1133367   4.7558404  18.3334768   0.9764215
   4.0352298  17.7932251  -0.2400664  11.7658998  13.5646809   4.5110246
  11.9593621  12.6960600   4.8635885  10.8295871  13.6845005   4.6697351
  82.1391106  92.1831894  70.2260303  82.0737076  92.1368980  69.2721891
  83.0797958  92.1695995  70.4025459  47.3356819  15.6595778  54.5562029
  47.9256630  15.4616129  53.8289070  46.6141081  16.1434233  54.1543818
  92.8032944   1.4409006  15.3811666  93.5943887   1.7080772  14.9131795
  93.0816481   1.3558948  16.2930509  16.1363174  15.7688988  13.2558748
  15.5496169  16.0456455  12.5520059  16.0509969  16.4517630  13.9211961
  79.7628550  95.9979180   8.1008359  79.4989686  95.1684598   7.7025911
  79.3470769  95.9926442   8.9629957  20.9537220  39.3850732  56.7288876
  20.2191210  38.8952732  57.0986032  20.5591941  39.9322438  56.0497808
  32.0515251  63.0024147  64.0894365  32.2130966  63.9298534  64.2625904
  31.5110278  62.9968691  63.2994604  37.4623729  34.2695034  29.6537706
  37.2315932  33.3587158  29.4708940  36.7914678  34.5679176  30.2678319
  46.5573645  76.3764286  71.9084740  46.1146259  75.6027699  72.2572899
  45.9551907  77.0984316  72.0882797  86.0495620  83.3929376  23.1771680
  86.3991027  82.8174476  23.8575193  86.4470153  83.0745534  22.3666784
  31.1436391  42.2068357  71.2135601  31.7172503  42.1477222  70.4495525
  30.3601432  41.7172194  70.9632778   8.4693539  66.3392496  90.3998756
   8.7077856  67.1422338  90.8631229   8.4791857  66.5845633  89.4746971
  24.4883227  63.7846041  82.3398304  25.3347063  64.0441084  82.7038670
  24.3036723  64.4430065  81.6700268   5.2592374  19.1234577   9.5902463
   5.7184077  19.8595751   9.9946328   4.3315602  19.3422735   9.6783468
  88.4782383  14.7695244  18.6707135  88.5602018  15.1943243  19.5245572
  88.9026401  13.9191378  18.7845537  57.2230531  36.3257397  22.6026174
  58.1549932  36.2857044  22.3878785  56.8537999  36.9268692  21.9556829
  29.2159797  28.5748089  34.7642824  29.0192033  29.4376171  35.1290819
  30.0823451  28.6736095  34.3694612  63.3396153  97.0789269  10.9698411
  62.9106192  97.8746203  11.2845823  62.9822187  96.9453601  10.0919648
  57.6799298  14.4798363   7.5076410  57.9683591  15.3382719   7.1975919
  57.9014588  13.8808191   6.7946645  57.0879412  40.7234430  90.4240036
  56.9114161  40.7290220  91.3647747  57.2952652  41.6339731  90.2138138
  31.6559243  61.8135738  52.4905682  30.7131481  61.6484976  52.4781132
  31.7326951  62.7668905  52.4515772  47.2455120  74.1547298  75.0335884
  46.7839336  73.5756540  75.6400919  46.7370605  74.9656725  75.0429010
  66.1721849  50.2645397  72.0641994  66.9794846  50.0663185  72.5387621
  66.4388227  50.3086567  71.1459446  41.3608313  84.9433613  90.4998589
  41.0243082  84.2368126  89.9487019  41.2247992  85.7367039  89.9818611
  50.1109362  46.4950562  86.6584778  50.3605652  46.7520857  87.5460911
  50.8707047  46.7198849  86.1214066  12.7201654  49.3477238  20.5569860
  13.4875680  48.7757290  20.5691835  13.0805493  50.2301681  20.4695436
  72.9090910 101.5276221  16.8945905  73.5471992 101.1538915  17.5023481
  72.2377519 101.9117908  17.4584600  53.3401823  85.4257107  53.6714077
  52.9902172  85.8377743  54.4613171  53.9194441  84.7368240  53.9971733
  86.6583810   3.9567268  28.9729043  86.0927388   3.5393131  28.3232518
  87.4840102   4.1048277  28.5117837  34.2425275  84.9718761  89.3189907
  33.5405636  85.6137371  89.2117596  34.7140574  85.2609062  90.1002407
  43.8367520  96.5769795   5.9752675  43.7679319  96.7236403   5.0318834
  44.1371833  97.4151258   6.3266679  31.4578605  46.3724947  87.8043079
  32.3601556  46.1997461  87.5355148  31.3291287  45.8235884  88.5778522
  63.1884766  93.1610870  85.9784126  62.8079414  93.3963203  85.1321983
  63.2250881  92.2046471  85.9670067  72.2717476  99.4306564  80.2778816
  72.6387167  99.5424175  81.1548519  72.9823303  99.0405655  79.7688293
  14.1973544  13.7625111   9.5883771  14.4394828  14.5712459  10.0395414
  14.5919562  13.0672253  10.1147767  39.9111749  40.7482136  16.2649938
  39.7472049  41.2704361  15.4797384  39.5330764  41.2627781  16.9780942
  99.2974386  13.3354128  45.0558111  98.9665160  12.8932751  44.2739888
  99.6771154  14.1504228  44.7274324  80.5710130  96.6819123  15.5405637
  80.9177499  96.5827588  16.4272233  79.9917750  97.4421195  15.5935212
  80.4654698 102.7955178   5.1356813  79.7272162 102.3607568   5.5625268
  80.8330827 102.1289042   4.5554086  74.9790935 100.8885745  18.5955068
  75.6555204 101.4867047  18.2778379  75.0310139 100.9530381  19.5491239
  84.4610505  -0.2280513  82.7016258  84.4492345   0.5104264  82.0927429
  83.7707619  -0.0282184  83.3339214  49.4123983  74.1631174  82.6126671
  49.1203403  73.5839081  81.9087887  49.1088533  73.7375355  83.4145260
  61.4973545  36.1339521  86.9101143  61.8070984  35.4103112  87.4547577
  61.3496828  35.7403398  86.0501766 109.2384581  92.9463414  14.1527292
 108.7838511  93.6600236  13.7052747 110.0956254  93.3101205  14.3744584
 108.1363258  24.5103586   4.1080304 107.6025138  24.5430792   3.3141729
 107.5237617  24.7068251   4.8168298  52.1832180  63.2000732  82.4726486
  52.7868271  62.5223637  82.7769566  52.6972294  63.7180042  81.8531513
 106.3279781  40.8808601  22.6446363 105.7665286  41.6472805  22.5279828
 106.4229974  40.7957352  23.5932943  26.6047311  83.5636902  85.6753635
  25.7968092  83.9724064  85.3648090  26.7132688  83.8947201  86.5669155
   4.8578311  12.0413435  14.2971631   4.1517736  12.3875797  13.7514135
   4.9297429  11.1218965  14.0408918 108.6885056  44.9658859  27.8619119
 108.5548482  44.5084465  27.0317766 109.2418036  44.3760860  28.3739969
  84.6431241  20.5805242  44.5521947  83.7537304  20.2754534  44.7314855
  84.7440478  21.3593805  45.0993940   2.5999108  46.0738945  90.9701729
   3.2106346  45.3573465  91.1428261   2.4148078  46.0103130  90.0331974
  17.5718785  11.6118753  34.9613496  16.6562749  11.5085161  35.2206155
  17.8277875  10.7485521  34.6366712  42.9160166  77.8148937  74.3789053
  42.3511839  77.2027588  74.8505878  43.3295202  78.3373880  75.0661087
  21.1009837  43.8093841  18.5332509  21.6845609  44.2427719  17.9104825
  20.2473737  43.8074577  18.1001588  94.5985945  59.3427181  84.6321678
  94.9293693  60.1615381  84.2629051  95.3147682  59.0201187  85.1792049
  59.0231085  70.7805347  76.5882874  59.8119879  70.5849648  76.0826683
  58.3941650  71.0949373  75.9388161  19.1412307  30.4569900  14.7030755
  19.6862222  30.8147419  15.4039594  18.4973432  31.1429012  14.5265409
  38.8426066   8.3435524  22.5179788  38.8277484   9.1055000  21.9388028
  37.9956771   8.3648098  22.9635068  88.8702826 103.4288434  10.6665536
  89.7494464 103.3832721  10.2907583  88.9435916 102.9705314  11.5036985
  75.2030067  75.6871776  16.9973775  74.7353225  75.7229570  16.1629793
  75.8550458  76.3853053  16.9366094  96.0007911  71.9695012  38.9861413
  96.8851523  72.2676519  39.1988393  96.0268693  71.0230187  39.1265794
   8.2851792  47.8516090  13.4057065   8.8708354  47.0975197  13.3379957
   8.8513948  48.5700691  13.6875554  57.6127844 100.9934024   0.2854558
  57.3446040 101.4341525   1.0917112  58.0510502 100.1960544   0.5827638
  21.2709762   2.3613871  37.0484468  22.1885491   2.5194967  37.2704812
  21.2529183   2.3601568  36.0914155  88.0235629  89.6260218  24.8527261
  88.7693314  89.5008735  25.4395791  88.2028680  89.0481929  24.1109773
  61.2399006  57.3477125  81.2401581  61.7616701  57.6274967  80.4880142
  60.8968782  58.1613588  81.6096687  34.2355680  61.2684870  78.0689144
  33.8444781  61.2149191  77.1968985  34.4857359  60.3678274  78.2749557
  48.3176900  33.0209911  10.2903959  49.0125180  32.8052414  10.9124013
  47.9338361  32.1756447  10.0573942  22.8121615  20.6477392  10.5644723
  23.2790280  21.4536941  10.3437730  21.9046546  20.8203066  10.3137037
  61.4317274  66.7130041  74.4017553  60.5473566  66.4683819  74.1292191
  61.4344883  66.5836000  75.3501606  47.4333096  76.5541649  81.0569000
  47.6315546  76.3704300  81.9751453  46.7707014  77.2442341  81.0883617
  44.2763806  53.6103428  15.4261133  44.1562844  54.5533455  15.3140279
  44.5193101  53.2947147  14.5557138  58.8198280  90.5408001  89.2903423
  57.8868008  90.3271484  89.2837143  58.9829779  90.9280777  88.4303188
  66.6269636  66.0288525  78.3874464  66.2436914  66.4336205  77.6093054
  67.5488853  66.2849808  78.3612108  59.0393734  94.3446922  53.1157541
  59.2953825  94.1536808  52.2134209  59.1466856  95.2921486  53.1997156
  52.2431087  73.9643383  82.1824169  52.0888376  73.7823153  81.2554264
  51.3672066  74.0541220  82.5578690  81.9243526  62.4761343  62.3863888
  81.2454987  61.9523096  62.8118229  82.1513081  63.1446505  63.0327702
  46.2513447  65.3611374  90.7470417  46.1436367  64.4191837  90.6153011
  46.6682243  65.6693935  89.9424171  41.9005919  98.4743309  85.1003265
  42.1175289  98.2755470  84.1894722  42.5226927  97.9580498  85.6128502
  13.0888225  28.9215553  28.6976835  12.8434468  28.9230621  27.7724668
  13.3183766  28.0109775  28.8831064  43.5165358  65.0946140  63.9777756
  42.7409077  65.6552029  63.9585781  44.2536402  65.7043409  63.9439058
 103.2054190  79.1049150   0.0272580 102.6762872  79.7054318   0.5522653
 102.5751071  78.4780172  -0.3276232 102.7860265 101.9813518   0.6313058
 102.2914748 101.2231997   0.9425184 103.6463027 101.8908147   1.0411474
  73.6365871 102.9860953   3.3398744  73.0756907 102.2339705   3.5294458
  74.5166187 102.6947526   3.5783979 104.3181929  48.5248649  19.1652032
 104.6871194  49.0759170  18.4749433 103.3775744  48.5165871  18.9880010
  15.0875569   1.7498434  32.5662824  14.3096686   1.2235868  32.7511712
  15.0366927   1.9309414  31.6277524   9.8326112  21.9455946  28.9305040
  10.7321883  21.7435110  29.1877004   9.2962028  21.3335169  29.4343492
  78.6678366  91.1004786  12.5563928  78.5142283  90.3982405  11.9243356
  79.1996150  91.7386655  12.0808336  37.4704218  65.8441687  72.1130705
  38.2604671  66.2758923  72.4381447  36.9170856  65.7426071  72.8874969
  31.6183043  91.4133930  71.8261814  31.4053440  91.3845444  72.7589417
  32.5689006  91.3058376  71.7940998   2.8145951  49.0486622  76.5845537
   3.1490043  49.8851109  76.2608910   3.5263944  48.6968660  77.1191740
  80.9850407  72.0859003  87.7514744  80.4214382  72.4222517  88.4482193
  80.6978798  71.1813354  87.6268196  66.5644598  94.7474098  90.1816082
  67.0755148  94.1227913  89.6669197  65.7683468  94.2702579  90.4156113
  11.2736297  65.0190926  88.5793495  11.2242055  65.9738398  88.5320091
  11.6463554  64.7565222  87.7377033   1.2249089  57.8234280  26.8833562
   0.3012038  57.8136528  27.1341630   1.6987897  57.8344810  27.7149507
  18.2358647   5.9151638  41.7569658  19.0365125   5.8094585  41.2431356
  17.7969123   5.0668991  41.6936799  63.9761734  40.4281855  81.6909599
  64.4852543  41.0851622  82.1657753  63.2130814  40.2690458  82.2464657
  86.5249352 103.2646588  32.5267907  86.1394172 102.3976687  32.6530286
  86.4235072 103.4379176  31.5908738  90.7765863   8.3513964  19.1486570
  91.2085793   7.5790155  18.7839052  90.2672503   8.7072122  18.4205076
  52.3344421  50.7358599  86.9731998  53.0709791  51.1765766  87.3968887
  52.6989460  50.3895140  86.1586952  12.6666832  30.0305581  84.6903515
  12.2602904  29.1738629  84.8213100  11.9469917  30.5970502  84.4122124
  28.5381651  39.0018940  63.6443424  29.0862536  39.5641828  64.1917562
  28.9929891  38.9702082  62.8027010   8.6841727  23.5095299  17.0951864
   9.0575172  24.2853248  17.5134965   9.1933347  23.4021843  16.2917730
  40.0341272   5.5192202  78.1175518  40.9226847   5.1632786  78.1155157
  39.4863844   4.7977197  77.8082943  53.8090563  88.0416584  77.1950388
  54.3709469  87.3438454  77.5320578  54.1872120  88.2637787  76.3442183
  67.9351406  69.2218832  12.0433732  68.1327205  69.6350411  12.8839036
  67.4171095  68.4500591  12.2717687  98.8497929  68.3159427  35.7976552
  98.0345969  68.2319406  36.2922498  99.3845563  67.5779060  36.0901662
  48.0472803  38.4846258  88.3081722  48.9952803  38.5024548  88.4393787
  47.6877165  38.8722539  89.1061020  90.9319505  17.3257387  28.9538690
  90.4930160  18.1243122  29.2468759  91.8635068  17.5026453  29.0847894
   3.0548907   3.6500538   6.3785859   2.2242070   3.3433330   6.7420598
   3.3691264   4.2960918   7.0111390  91.1251959   7.4854124  14.4320699
  91.6981110   8.2510174  14.4750520  90.4119477   7.6856649  15.0382062
  77.4363093  63.9993052   9.4033262  78.3424907  64.0708546   9.1034051
  76.9122748  64.1021410   8.6089441  11.6742469  13.7355888  48.8160726
  10.9949685  13.1134308  49.0763208  12.3547221  13.1939257  48.4163400
  73.4505706  88.8335613   2.8884717  74.0144281  89.3368224   3.4758588
  73.2626490  88.0274562   3.3692094  84.3063693  85.8900384  34.7538968
  84.2223220  85.3265718  33.9847013  85.2204995  85.7952360  35.0215074
  92.9401765  16.6424120   7.9855653  92.6386115  15.7910669   8.3025953
  92.3767111  17.2764576   8.4291002  67.3695183  71.9897413  81.2769508
  68.1290054  72.2479391  81.7992020  66.6154337  72.2560263  81.8029499
  87.4617514  24.2815292  21.7567464  86.7590389  24.7998989  21.3646718
  87.4008569  24.4656742  22.6940938  18.3823682  16.2702644   3.6235925
  18.7797738  17.0631302   3.2635042  17.8656198  16.5782488   4.3681356
  25.7883979  45.2148235  24.3374082  25.1889564  44.8484028  24.9875184
  25.2856303  45.9100616  23.9130327 106.8803463  16.1261785   8.4689542
 107.5178561  15.5916536   8.9423486 106.6723356  15.6145895   7.6871320
  72.3542480  90.2708820  41.0619565  71.9142537  89.4623474  41.3244554
  73.2274442  89.9903158  40.7880136  28.1505466  71.8049145  72.1357298
  27.3666573  71.2849379  71.9586039  27.9409289  72.6763105  71.7996407
  65.3085852  81.3829613  86.8766975  64.7877693  82.1842098  86.8221188
  66.1701727  81.6341972  86.5438557 102.7304253  29.5157516  13.6973783
 102.4655876  29.7851837  14.5768663 102.0464787  29.8625553  13.1245061
  10.8488179   4.3095577  16.9241353  10.0745965   4.2412174  17.4828264
  11.4857198   3.7173164  17.3239347  24.2676879  34.8572433  28.3753702
  24.8512937  34.4984234  29.0438672  23.9244128  34.0887058  27.9195901
 109.6053896   3.4046400   7.5882074 110.4446349   3.1624163   7.1967717
 109.1270313   3.8369835   6.8807622  55.7570171  69.4402647  83.8816738
  56.5862608  69.2232275  84.3076706  55.4198408  68.5997772  83.5716343
  98.6033540   6.3776883  76.9067764  99.1926150   5.9172067  76.3093090
  99.1858582   6.8173131  77.5261688  42.5133754  46.6295517  17.9066488
  41.8514300  46.0311211  17.5603219  42.0095826  47.3341358  18.3140680
  48.1607008  94.4878960  60.7398367  48.8700104  94.3219185  60.1188946
  48.5181427  94.2243767  61.5877914  15.7286740  36.6092003  14.1039773
  16.5889693  36.6757572  13.6896154  15.1297427  36.4160145  13.3827325
 106.4509139  23.7868917  35.6884977 106.6565117  24.6730459  35.9863111
 107.2599396  23.4773577  35.2811929  37.8995753  43.3852184  20.5041715
  38.7149478  43.5318172  20.9836694  37.8826619  44.0773476  19.8431894
  54.7497416  91.6140652  84.3420219  55.5824375  91.2856483  84.0029144
  54.5319653  92.3502541  83.7703323  76.2041759  59.5760298  85.4450798
  76.3080359  58.6249304  85.4159355  76.3287067  59.8584461  84.5390129
  16.9498969  38.4049595  15.8292028  17.5590325  38.8382709  15.2313539
  16.5956546  37.6743877  15.3222486  67.5998211  79.2894268  70.5596876
  68.0211782  79.2362165  71.4175081  66.7346382  79.6569920  70.7402039
  33.6719419  40.8392513  12.2708436  34.3006850  41.4421165  11.8740293
  32.9922153  41.4069355  12.6340696  35.5385877  23.4522617  25.5380842
  34.6048070  23.5351313  25.3446504  35.8092166  24.3338621  25.7945463
  58.1532002  12.3703468  44.3536779  58.7375451  12.9445207  44.8487397
  57.3109437  12.8251207  44.3572923  47.7586746  87.2219372  70.5226898
  48.6899900  87.2312641  70.3017902  47.7396584  87.2015476  71.4794827
  44.8383237   9.2207802  40.8934041  44.8566152   9.2233742  41.8504258
  45.3669454   8.4621704  40.6457921  40.9433032   6.2232769   8.4315511
  41.5530206   6.9461096   8.5798284  40.5644465   6.4022196   7.5709173
  25.3825141  17.4407709  15.4790326  24.5323945  17.7225769  15.1412317
  26.0191346  17.8258789  14.8768350  49.6019411  74.4124031  89.5075226
  49.1296101  73.5846996  89.5972061  49.8624897  74.6374750  90.4006577
  42.5113869  68.6692047  73.7941504  41.7514515  68.7898922  73.2247972
  42.8102398  69.5580196  73.9863348   8.1442977  33.2756699  10.4907342
   8.4085513  32.4549187  10.0750753   8.9687778  33.7020386  10.7245656
 100.4882054  99.8338822  29.1144010 100.2199082 100.6854991  28.7694379
  99.6752791  99.3317822  29.1717073  53.0230427  69.3365860  89.8400593
  53.2295799  68.4221268  89.6468163  53.7331963  69.6267128  90.4125404
  17.3048640  28.6282909   7.4181863  16.9440175  28.5877026   8.3038350
  17.8861667  29.3886555   7.4310228 106.7995653  31.7743385  25.9211751
 107.2654757  32.3113811  25.2802869 105.9807453  31.5378464  25.4854699
  24.6486808  18.6958921  20.0504037  25.0895358  19.5398224  20.1486894
  24.0447284  18.6533869  20.7917997  34.1749955  16.3250435  27.7826139
  34.8158361  16.7977131  28.3137819  34.6941186  15.6884897  27.2911378
  10.0205318  78.1914282  69.0470743  10.9646503  78.3435917  69.0056753
   9.9360649  77.2500467  69.1984034  20.5723859  34.8935879   3.3335038
  20.6564046  34.7511471   2.3907014  20.2459479  35.7899559   3.4121629
 104.7022900  20.4470146   4.3173524 105.3767810  20.4126633   4.9956724
 103.8958583  20.1974905   4.7686216  16.7661239  25.9729517  26.6924878
  16.7918397  25.9907282  27.6491758  15.8533145  25.7772720  26.4810201
 103.2236152  99.1646747  30.0925275 103.1621842  98.3990125  29.5213720
 102.4147134  99.6500424  29.9302694 110.5408001  95.8229446  64.3540955
 109.6440983  95.4948044  64.4210863 110.8265781  95.5619526  63.4786272
 104.9343161   4.1845139  87.5765419 104.2701583   4.1701421  88.2656765
 105.0106244   3.2718095  87.2983742  85.3244786  97.7084187  20.5149099
  85.8263259  96.8942527  20.5539056  84.4098525  97.4261312  20.5126211
  26.4495326  31.6135490   2.8987523  25.9545756  31.0133922   3.4564802
  25.7916642  32.2167862   2.5529882  34.5374585  27.8831280  10.1170179
  34.0569831  27.0819652   9.9084493  33.8627864  28.5000694  10.4006215
  47.1530819  76.1813784  83.6686897  46.5825272  76.4304543  84.3957806
  47.3129845  75.2466774  83.7990570  13.9859725   8.1537998  19.6314641
  13.2133723   7.6495397  19.3764325  14.6010305   8.0318725  18.9082357
  27.0428229  20.2335871  37.5360700  26.5877868  20.1920307  38.3771726
  27.1117497  19.3209684  37.2556993  36.7932868  58.4693146  76.8313122
  36.6053915  59.3370628  76.4736176  37.6324844  58.5718489  77.2801638
  82.7732754  78.4058666  69.1452456  82.6840496  78.7503481  70.0338411
  82.6737881  79.1720772  68.5802174  41.2381078  53.7380588  21.6167470
  40.3310824  53.4338749  21.6484758  41.3619090  54.0283287  20.7130548
  33.6095096  40.1392353  25.8284398  34.3485595  39.5390690  25.9276506
  32.8369571  39.5952022  25.9814855  22.8260756  81.5322971  81.9160461
  23.6557794  81.2704372  82.3151112  22.3773193  80.7068729  81.7329311
  50.5062628  73.5821056  55.8537436  50.0491142  74.0160513  56.5741158
  51.3570595  74.0187502  55.8123732 104.0351638  10.5222881  16.3723489
 104.5610318  10.4286230  15.5780431 103.9161048  11.4669407  16.4707586
  35.3449489  29.5968807   7.8830930  35.3631593  29.4701851   8.8316938
  34.4785930  29.2889774   7.6169130  79.6991921  34.0363777  16.6638013
  79.7884275  34.9816788  16.7849275  80.1665879  33.6545265  17.4067422
   9.7646857  50.3481090  17.9548093   9.1944934  50.4631222  17.1946164
   9.1696311  50.3597057  18.7044832  40.7524777  46.4674461   8.4634229
  41.4446641  46.0541904   7.9473516  40.1434423  46.8154514   7.8121206
 110.5444512  13.3196199  16.8693181 110.5920038  13.8881243  16.1006948
 109.6588120  13.4491194  17.2085782  73.2966566  48.3743286  85.3503132
  73.7601948  49.0549517  84.8623466  73.9420223  47.6757908  85.4588604
  33.3086348  48.1132412  54.7032022  34.0173316  47.4775743  54.8027420
  32.6793480  47.8791571  55.3854275  20.4791022   7.3664034   1.2751027
  20.0562764   6.5824116   0.9246560  20.9619857   7.0560110   2.0410749
  52.3347951  41.5279091  17.2122785  51.8125630  40.8591545  16.7692682
  53.1858827  41.1130131  17.3528310  41.5879870   9.7352922  36.0168859
  42.0666457   8.9171541  35.8836004  40.6658937   9.4791401  35.9978505
  53.8753323  98.2214908  17.6783010  53.4871011  98.3872298  18.5373899
  53.4784870  97.3992709  17.3907205  23.1825566  88.2621002  72.5596237
  22.7316308  88.9715481  73.0174255  22.5237870  87.9042816  71.9644547
  69.9629736  98.4707832  62.5754070  70.8640480  98.7339783  62.7625608
  69.5138693  98.5380840  63.4180260  38.5805512  48.5763348  14.1229554
  38.3330203  48.4720886  13.2042047  39.5061494  48.3339870  14.1506120
  48.5617639  13.4948433  16.1454126  48.5871030  14.2711389  15.5859872
  49.4587518  13.4014166  16.4662191 109.6001725  99.9971942  25.2805730
 109.7658353  99.3455247  25.9618303 110.4450898 100.4277972  25.1504823
  31.6947747   6.0628641   5.9637471  32.5670434   5.7481277   6.2010595
  31.5093661   6.7555416   6.5978166  80.6138611  62.9628754  67.8328371
  80.0189686  63.6829472  68.0421829  80.3640556  62.2627735  68.4358978
  99.0882430  43.9782226   2.6975747  98.8450012  44.6347416   2.0448419
  99.8190603  44.3728531   3.1733819  77.1468019  87.7790451  85.6148434
  76.3014555  87.4408054  85.9101677  76.9702578  88.1392574  84.7457600
   8.3935309  57.8674972  31.3229486   7.7903272  58.5817135  31.5285608
   9.2591573  58.2760227  31.3283464  55.0415897  73.8330650  78.1065178
  55.0028419  72.8828955  77.9974079  54.2625618  74.1579628  77.6550817
  69.2671299  94.6282673  84.3136501  68.8734055  95.4928780  84.1967201
  70.2075863  94.7985268  84.3665028  81.7972565  86.4255810  60.4703474
  82.1963310  86.4159870  61.3403368  82.4220943  85.9592342  59.9150705
  38.0102445  13.5640753  27.2697851  38.4887601  12.9436148  27.8195878
  38.6893321  14.1242874  26.8939706  66.3725853  42.7235603  77.9125977
  66.1494780  41.8233442  78.1493807  66.3765001  42.7254915  76.9554090
  20.7086946  10.2910889  32.8142282  19.8355533   9.9755419  33.0472108
  21.2012864  10.2601326  33.6343690  20.5942632  13.9480722  23.3214780
  20.2809239  14.5823610  22.6766988  21.3940335  13.5900724  22.9362031
  91.8661687   3.7804306  10.3521653  91.6524825   3.3431375  11.1763879
  92.5034091   4.4519556  10.5954953  48.5080862  85.4846954  73.8544607
  47.9671431  86.2557602  73.6839724  49.3205595  85.8375645  74.2172241
  91.4123631  83.7658024  71.8212175  91.5753078  83.3955193  70.9537077
  90.9899330  84.6069145  71.6471291  63.0351353  68.4650278  77.4278164
  63.8583708  68.7719488  77.8077030  63.1321192  67.5138235  77.3826599
  10.5648852  21.0293234  12.3582383  11.3545133  20.5163038  12.5300714
   9.9193049  20.3851641  12.0675203  39.3670608  16.8394936   5.7223626
  40.2923251  16.9471681   5.9426423  38.9263154  16.7659319   6.5688630
  32.8774071  63.2386208  84.2452431  32.3647523  63.5852051  83.5149765
  33.6823797  62.9152918  83.8406372   0.7530881   7.9471863   2.7903959
   0.6665207   8.2481850   3.6948987   0.6371118   6.9984138   2.8415605
 109.9337873  15.3714025   2.4672338 110.8707485  15.4662121   2.6385423
 109.8881588  14.8383320   1.6735193   9.0847541  39.6077240   4.0816613
   8.4184123  39.5904339   3.3947011   9.0405227  40.4958523   4.4359418
  35.0767327  12.2929800   3.1237813  35.3478528  12.8969086   3.8151475
  35.8923055  11.8934715   2.8213331  14.7253228  50.5782688  29.4690534
  15.1077891  49.8180092  29.0309354  14.0754415  50.2085007  30.0666734
  46.5312624  71.3195086  80.9138012  45.7167196  71.1769867  80.4316807
  46.3196659  72.0091915  81.5429306  70.2963591  78.4223366  83.5003376
  70.0153828  77.5597095  83.8055611  71.2525892  78.3814383  83.5138798
 103.2417774  77.0055532  61.9309330 103.2678223  76.4661074  61.1406469
 102.5703239  77.6632977  61.7499304  32.3284718 102.0944242  37.1572038
  32.8569409 102.7584723  37.5998994  32.6489922 101.2622336  37.5049897
  48.0992223  39.0278900   1.4232084  48.9344312  38.5791386   1.5547201
  47.8190042  39.2754734   2.3043462   9.3653775  13.6114681   8.2409593
   9.1080571  12.7125204   8.4456655  10.3217889  13.6012638   8.2784387
  21.0484029  20.7391107   1.0633680  20.2953387  20.3701580   0.6018468
  21.5766574  19.9786652   1.3060781 105.0875954  14.1841325  81.0685825
 104.7752576  13.6047944  81.7636013 106.0156445  13.9686879  80.9762001
  71.9842529  85.3212166  85.2224827  72.2022200  84.5219994  85.7020473
  72.3692989  85.1929092  84.3555832  54.0915394  92.4154663  90.7168388
  54.0476561  91.6945267  90.0887012  54.8588753  92.9207420  90.4482937
  13.6999703  65.4073704   6.5819093  13.7146760  64.6990383   5.9382650
  12.9011346  65.8955944   6.3825628  96.6071133  87.1804217   3.5031244
  97.0751004  87.6211695   4.2123243  97.2857051  86.9739202   2.8603956
  54.8321049  96.5193728  21.4547941  54.3338208  96.0534028  22.1262189
  54.8435275  95.9218196  20.7071134  92.7237281  36.8488491  21.5929052
  92.3174033  36.1251629  21.1160299  93.5160503  36.4699543  21.9735547
   6.8870641  16.9218576   9.6936628   7.7488090  17.3248041   9.5875284
   6.2811233  17.6613129   9.7412797  32.2534324  21.9439924  23.3152791
  32.4531222  22.5174559  24.0552064  32.0804168  22.5423086  22.5884267
  21.5814687  79.4218243  39.8980066  21.3653232  80.3533256  39.9405404
  22.4681855  79.3651951  40.2540323 109.1937003   8.0217922  40.0824281
 109.4224605   7.9325617  39.1572591 108.2650146   8.2536495  40.0782415
  98.9862876  97.4556474  29.9537011  98.7282615  96.5511254  29.7762319
  98.1593232  97.9349498  30.0049611  80.8599286 102.0974139  19.2006990
  81.2135415 102.7762202  18.6258813  81.5702109 101.4613608  19.2853662
  77.5546126  14.5825108  77.7963543  76.8053346  15.1196488  77.5388527
  78.2357268  15.2151784  78.0244827 100.5650506  10.7020462  22.0638105
 101.2254963  11.2688148  22.4623319  99.7423515  10.9669865  22.4751493
  18.0200864  27.6918781  25.0134870  17.4230815  27.2119177  25.5874654
  18.7044192  28.0175484  25.5981752  63.3822684  18.4887513  82.0593262
  64.1083221  18.4765729  82.6829624  63.4035926  19.3690690  81.6840744
  65.2346945  80.8114338  89.3906116  64.3479061  80.9902668  89.7034359
  65.1418543  80.7294083  88.4414577  44.1184187  84.6092701  68.4352207
  44.8125315  85.1551628  68.0658340  44.5762730  83.8472462  68.7900782
  31.9546128  50.0585258   1.1275216  31.6163779  49.1630733   1.1267492
  31.6569472  50.4262722   1.9596120  21.4621831  34.1204536  17.3856374
  20.5909539  34.3269909  17.7240773  21.7790223  34.9463261  17.0198747
  18.9913608  30.4468239   5.8619043  18.8850976  29.8498810   5.1212236
  19.0863086  31.3109863   5.4613420  45.2168084  19.0899933  35.4085084
  45.7787133  19.8594797  35.5000898  45.5186177  18.6673630  34.6044370
  71.7140822   1.9092091  70.7132912  71.4015107   2.8125008  70.7642174
  72.0368914   1.7174634  71.5937805  55.7406712  91.3445568  87.0406246
  56.6538525  91.3332272  86.7539215  55.2387762  91.1487770  86.2494183
  37.4504232  93.7466431  70.3691578  37.3253775  92.8623295  70.0247717
  36.6346312  94.2021847  70.1613331  45.7675028  72.3668337  90.5782604
  45.3099680  71.5329409  90.6855679  46.1182785  72.3347712  89.6882248
  24.7716022  61.0999870  83.4114170  23.8998437  60.8197927  83.6902714
  24.6339655  61.9672251  83.0303955  99.6074900  10.9512842  25.8401605
 100.0105319  11.8137443  25.7403966  99.0053496  10.8811653  25.0993940
 102.4790006  86.3409642   4.0800401 103.2036691  86.1215500   4.6656534
 101.7295508  86.4649896   4.6624299  56.9666243 100.0860596  83.9097977
  57.6618147  99.4362164  84.0129185  56.1558342  99.5803738  83.9657593
  83.5037518  60.1432371  63.0417252  82.7589417  60.4436445  62.5209093
  83.1552505  60.0538015  63.9287281  80.9192848 101.5465832  81.0066128
  80.7892036 102.4918270  80.9303284  81.7626572 101.3859463  80.5833530
   5.4533912  64.9004543  43.2270833   6.0381270  65.3393734  43.8448736
   5.1163722  64.1463268  43.7107679  72.1621943  85.1466942  54.6575451
  71.7712688  85.1156330  53.7843657  71.8591499  85.9764194  55.0262594
  65.0139618 104.0526962  87.3138618  64.6895933 103.5426998  86.5716171
  65.8391237 103.6302567  87.5523853 101.7975196  85.8734787  19.9530336
 102.6422534  85.4638565  20.1397821 101.9898305  86.8101681  19.9100515
  70.0973225  92.2355556  90.7422352  70.5370808  93.0547142  90.5145836
  70.8070755  91.6444492  90.9933758   0.0632788  23.8400925  15.2392789
   0.6990958  23.1578195  15.0237008  -0.5710458  23.4049786  15.8089658
  83.3263973   9.5746887   1.5919229  83.5791126  10.4938972   1.5057393
  83.9592561   9.2092502   2.2101327  29.5338368  74.1673374  89.4951248
  29.5994592  74.8666620  88.8448334  29.0730214  74.5681190  90.2321815
  14.8712159  20.9887350   0.5053064  15.5987359  20.5717934   0.0436803
  14.8039580  20.5079019   1.3302347  22.8221513  50.1770866  10.9875318
  23.3768703  49.7348488  11.6301462  22.4461509  50.9169281  11.4644929
  73.9799547  65.0111961  74.8193216  73.3369493  64.3327522  74.6131897
  74.8273516  64.5866013  74.6856546  60.2977944  18.0620420   8.0790254
  60.7827760  17.5393188   8.7176057  60.2967931  18.9465845   8.4448263
  60.1461697  68.5645723  88.3410931  60.6120443  68.6547899  87.5097942
  59.3644190  68.0568123  88.1236649  89.8031001  87.1435861   0.9439679
  89.4031291  87.4326471   0.1237794  90.4941325  87.7841977   1.1122724
  39.8298550  40.6655359  70.0448895  40.5035496  41.0389137  70.6131887
  39.1330147  40.3972816  70.6437922   6.7402984  18.4077585  19.5065137
   6.7780734  18.3339775  18.5529062   7.6496411  18.5442675  19.7723886
  76.9881086  92.3699693   3.3095094  76.1086397  92.1025590   3.5764619
  77.0534663  93.2850341   3.5826608 100.4944706  65.3602791  59.0537739
 101.1903000  64.7622538  58.7809944 100.3944016  65.1992464  59.9920082
  43.2598591  72.4101210  85.6849194  44.1070652  72.8522348  85.7398129
  42.9600143  72.3535013  86.5921783  57.7711630 101.4964008  86.3728428
  57.3876715 101.1315250  85.5753326  58.6232424 101.8336201  86.0962963
  37.9333640   5.4331625  13.0865785  38.1427718   5.3849399  14.0193483
  36.9772578   5.4013384  13.0537912  85.8152823 100.6002740   4.1068384
  86.5710263 100.2173833   4.5523378  85.5672459 101.3457183   4.6536657
  81.2068133 100.0933532  24.7322866  81.0843186  99.2197875  24.3606588
  82.1171384 100.3126458  24.5336648  43.5045529  38.3235538   0.5468866
  43.9603807  38.5868156  -0.2525691  42.8920604  37.6457012   0.2612230
  55.3118896  88.3929729  60.7798576  54.7573614  87.8015709  60.2709723
  55.4300356  89.1563034  60.2145243  82.5892830  66.5534782  89.3469810
  83.1169033  66.2615299  88.6035919  83.1663132  66.4535904  90.1041412
  26.3349582  17.1489990  38.7614271  25.8229161  17.4920309  39.4938108
  25.8539678  17.4269426  37.9819223  80.7903580  59.5368282   9.7746774
  79.8811393  59.2419884   9.8259565  80.7765393  60.4208235  10.1415464
  97.0749287  79.1228942  31.2689039  97.2934108  78.2273916  31.5269204
  97.3602729  79.6612290  32.0071527  35.3707385  65.3354502  80.8271694
  34.8673463  66.1459017  80.9046364  34.9763322  64.8786116  80.0842190
  27.1097613  44.4296730   1.4075395  26.8567897  43.8459957   2.1227666
  26.3890792  44.3667210   0.7807275  33.8984920  47.2549141  15.1660749
  33.0150033  47.0676601  15.4832670  34.4537879  46.6158665  15.6127378
  33.5899688  14.6169651  10.6612798  34.5083667  14.4284618  10.4683038
  33.5338403  14.5821607  11.6161939  22.3447276  66.4740742   1.6216966
  22.9286481  67.2186554   1.7661687  22.0750953  66.5551460   0.7068368
  42.9687120   2.2373236  15.2355882  43.3766938   1.4389456  15.5708143
  43.6362268   2.9137218  15.3502199  11.2744571  30.2855671   4.2936250
  10.7332898  29.9911964   5.0262376  12.0632030  30.6387031   4.7052213
   2.5044056 101.0304765   6.6525480   1.9409748 100.4266910   7.1365186
   2.5792214 101.7965011   7.2216150  30.4101464   8.2461461  77.4504375
  29.9406430   9.0791234  77.4062634  30.4154583   7.9260644  76.5483570
  29.5057392  69.1608572  87.1755314  30.4038525  69.0123463  87.4714565
  29.2151570  69.9285221  87.6679611  31.8609262  68.1034565  55.0701523
  31.5456963  67.2432232  55.3473854  31.9967580  68.5834646  55.8870840
 110.4927068  98.8852433  64.9077340 111.2558608  99.3267802  65.2803918
 110.8599238  98.2508925  64.2921182  10.0465346  11.5284145   6.0234662
   9.6053744  12.1302402   5.4239579   9.5281840  11.5681303   6.8271848
  51.1030912  65.3318977  48.6914921  50.6780720  65.6264925  49.4969749
  51.2379074  64.3931770  48.8213253  65.5586481  60.7936859  74.2204380
  66.3972330  60.3414392  74.1283321  65.7798004  61.6253281  74.6396065
  42.8421879  78.2764482  88.8570404  42.1477890  78.5910606  89.4358826
  43.5516262  78.9093876  88.9680195  25.2411890  75.8215809  84.1501141
  25.7877231  76.5300369  84.4901466  24.4294906  75.8824158  84.6537781
  11.6915608  20.8357275   6.2597486  12.6292516  20.6686390   6.1646291
  11.2710811  20.1159323   5.7893010  98.9094930  15.1289376  47.6334763
  98.1061129  14.7523698  47.9926538  99.5213179  14.3939122  47.5930405
  57.5047112  67.6697350  90.1282883  58.1591415  67.6913595  90.8264828
  57.3206520  66.7390251  90.0012684  30.7265806  63.4542179  66.8462515
  31.1176658  62.5894499  66.9706059  30.8937240  63.6627436  65.9271145
  12.1752311  55.8254612  31.0926267  12.1821023  55.8271301  30.1354524
  11.9017650  56.7110622  31.3317224  44.4482709  33.6685264   9.1414853
  43.9194680  34.4543541   9.0033838  44.2369367  33.1039131   8.3979913
  98.9764437  11.8994415   4.2782708  98.3426890  11.1945570   4.4113942
  98.5327754  12.5129831   3.6926385  47.6690961   6.5418089  45.1457139
  47.9263116   5.7411659  45.6029245  48.4654714   6.8288792  44.6989461
  78.9173555  67.1930218  88.8243771  79.8044777  66.9415617  88.5674381
  79.0369177  67.9731274  89.3660069   6.6690875  24.7366798   9.0955755
   7.3140622  24.0539778   8.9107724   6.9671012  25.1323116   9.9146577
  61.6717892  74.6434192  24.3973657  62.6031213  74.4254807  24.4342061
  61.2392073  73.9247231  24.8584291  32.7477933  45.2252853  22.3061296
  33.6497832  45.4772175  22.1081945  32.2253324  45.9858692  22.0516034
  58.4732962  56.6693974  88.2311249  59.3144941  57.0818424  88.4273720
  58.3047104  56.8929052  87.3157787  52.8700448  30.8816231   2.2010633
  53.8129331  30.7350338   2.1254941  52.4797631  30.2427280   1.6046258
  29.5126582  39.1827190  12.5514146  28.9885045  39.5008266  13.2864686
  28.8750268  39.0146339  11.8575784  19.7407771  19.4915760  37.2586271
  20.5600072  19.0127314  37.1329328  19.9975968  20.4135645  37.2440358
  21.2733817  99.0777874  56.0933971  21.3380218  98.5660553  56.8997383
  21.7882657  99.8656368  56.2678003  55.3036976  78.3793640  77.6510525
  54.6795750  78.1348133  78.3343506  55.0608635  79.2744064  77.4140596
  73.2973767   0.2467001  15.5245611  73.4181977  -0.6892168  15.3642865
  74.1557027   0.5521953  15.8181211  44.4924069  39.9009216  42.6360723
  44.2944814  39.2142570  43.2728978  43.8965035  39.7301472  41.9067117
  47.8935432  76.5077400  87.6493645  48.4231901  77.2916174  87.7951145
  48.2535315  75.8594894  88.2546902  73.5687304  72.2991657  87.0748234
  73.4697294  72.3950434  86.1275959  72.7981138  71.8008471  87.3469639
  29.5420838  36.0523117   1.6740152  28.6687757  36.4414108   1.7206308
  29.3811942  35.1161659   1.5557882  23.0257321  40.3479469  21.9470903
  22.1545888  40.6702507  22.1783086  23.1262065  39.5433128  22.4557039
  27.3701764  32.9097832   5.4261705  27.3521663  32.4371040   4.5940133
  28.1339265  32.5590790   5.8843538  88.7216668 101.3663415  12.5285169
  88.3897643 101.6756705  13.3713647  89.6065430 101.0551099  12.7191850
  56.2974691  67.4219465  75.2020168  55.8401489  66.8834114  74.5562077
  56.4347410  68.2602167  74.7607803  24.9686671  50.6076324  28.7028428
  24.4217874  50.0649918  28.1347772  25.4723979  49.9799812  29.2210409
  67.3954582  44.9825811  80.7162476  67.7377892  45.8614159  80.8796215
  66.5152121  44.9947214  81.0920811  46.5285684  45.6446445   4.8170682
  46.4849664  45.4126060   3.8894388  46.9798852  46.4886368   4.8318788
  70.6012918  28.7889851   5.5150243  70.3557111  29.3160999   4.7547075
  71.5478803  28.6741722   5.4312059  69.6022165  10.1271236   5.3522989
  69.1772935   9.4462717   5.8739396  70.4015318   9.7143925   5.0252172
  73.3938722   5.5469140  46.0581970  72.5680308   5.7720574  45.6297970
  73.9287429   5.1656922  45.3619146  11.0107900  32.9034698   6.0885736
  11.8255330  33.3973301   5.9962293  11.1955930  32.2627533   6.7752763
  74.8796749  87.3626614  82.3990250  74.6029854  87.6948357  81.5450191
  74.4199228  87.9150391  83.0312824  13.2528449  32.0125187  33.0831071
  14.1709996  31.8356693  33.2879182  12.7698566  31.6748226  33.8373777
  46.4425278  89.6563816  63.9689970  46.6217422  88.9050961  64.5343971
  45.8049250  90.1770496  64.4574594  84.3136689  78.3266342   8.3480569
  83.3739355  78.4182156   8.1907483  84.3730244  77.7900494   9.1385003
  47.5067043  87.2031689  86.3558674  47.7086020  87.1622753  87.2906303
  48.2093287  86.7059898  85.9370995 107.6209840  43.5853184   5.5877420
 107.0631871  44.3387592   5.3942701 107.7259407  43.1425083   4.7456380
  20.4665900   0.1347721  24.3966409  20.9452964  -0.5911791  23.9965555
  20.6362725   0.8800352  23.8204309  23.0530358  33.9995563   4.9656698
  22.2440053  34.4341457   4.6957990  23.6195947  34.7114265   5.2631208
  30.7401038  49.6172512  17.2339937  29.9589778  49.9854553  17.6469060
  30.8462573  50.1232040  16.4284059 107.7466497  37.5874889  51.0221406
 108.3936057  37.1260631  50.4885026 108.2677374  38.1039131  51.6369554
  33.9645244  34.8147571  29.4452115  33.6193896  34.2232693  30.1139852
  33.9999009  34.2828262  28.6502096  42.5681210 102.0499229  55.7840061
  41.6170216 102.1443939  55.8361340  42.7111149 101.4794827  55.0287676
  54.7744752  23.2220590  21.1571618  54.1961289  23.5134495  21.8620225
  54.1891290  22.8089655  20.5223867  77.4048042 102.0332241  35.1896977
  77.4043751 102.6543808  34.4614172  77.2731543 102.5757027  35.9672642
  20.4975080  76.4522505  86.9995403  19.9398923  76.8172789  87.6865959
  19.9149323  75.8851480  86.4943314  12.4735638   8.7016019  76.6818333
  12.8279492   7.9356297  76.2302351  13.1535717   8.9452180  77.3099089
  52.6389122  84.8962975  76.2484598  52.5447178  84.0529156  75.8056688
  53.5496092  85.1474190  76.0941744  95.7770157 101.5925694  83.9305687
  96.3426876 100.9306049  84.3281269  96.0842705 101.6584778  83.0264282
  78.3578348  84.3015480  48.8653135  78.2891035  84.9236679  49.5895195
  78.2215881  84.8319054  48.0802107  12.5860740  27.8192222   9.1707536
  11.9266273  27.2284401   9.5345327  13.4058238  27.5457132   9.5823785
 104.9801259  98.7211541  25.4420778 105.0110345  98.4143905  26.3482591
 105.6782059  99.3736819  25.3861638  48.5153295  27.1882332  17.4012014
  48.3893395  27.6870907  16.5940400  47.6420594  26.8636597  17.6209470
  21.1827661  62.4241245   9.9604532  21.4110280  63.2607162   9.5551797
  20.2371598  62.3466957   9.8337289  73.1870842 103.6671638  71.6822052
  72.4154520 103.3601761  71.2062073  72.9652166 103.5411739  72.6047754
  70.5648613  68.2047224  65.9227896  71.4791584  68.0871058  66.1805964
  70.4950905  67.7599812  65.0780582  43.8996984  50.5726421  22.4441835
  43.7736703  49.7683704  21.9407007  44.0620328  51.2459076  21.7834302
  44.6159744  84.2174721  51.4214802  43.9983225  83.6676216  50.9393978
  44.8592806  84.9048233  50.8013344  22.8494979  23.6249435  12.2982045
  22.5228883  23.7170351  13.1932279  23.6320306  24.1755236  12.2709581
  50.0447084  19.9215162   8.4603902  49.3751145  19.9584473   7.7773782
  50.2470304  20.8382357   8.6472722  23.8388349  70.1628864  39.9520704
  23.9942075  69.4034374  39.3905374  24.2171622  70.8983982  39.4702741
  40.5602218  22.9153097   6.9516393  40.6349326  23.6891544   7.5100442
  41.4613772  22.7141321   6.6992971  78.0179982  24.6902760  84.8406219
  77.5793652  24.7256192  85.6906700  78.9468913  24.7964963  85.0458145
  12.1070863  42.8707111   8.4497472  12.8567840  43.1423366   8.9792749
  11.3638497  42.9039085   9.0520212  40.6602335  95.9284115  69.2597389
  40.1965952  96.1915779  70.0547361  39.9929523  95.9534264  68.5739231
  76.1568403  62.1744394  78.6992645  77.1117115  62.1330118  78.6469793
  75.9346056  63.0348969  78.3436584  67.1369696  77.5979662  84.5836639
  66.1843538  77.5737762  84.6740723  67.3068237  77.1983671  83.7306118
  64.4921207  87.7313328  84.9052048  64.4480801  87.9467487  83.9735985
  63.7267113  87.1776295  85.0594425  11.6732122  60.6682957   3.7184640
  12.3729135  60.0152767   3.7332364  11.1754609  60.5041397   4.5194265
 108.1051073  44.8158825  14.0623208 107.4626884  45.2483070  13.4997007
 108.0576095  43.8925636  13.8143846  30.1187755  40.8668602  21.7283078
  30.4870225  41.6952503  21.4210435  29.4953157  41.1197937  22.4091646
  60.3599168  66.8835915  24.3435499  60.1553823  66.9579876  23.4114286
  60.4050065  67.7886665  24.6518441 100.5169778   5.7901296  82.8393269
  99.7010712   6.0246095  83.2815266 100.2712111   5.0837048  82.2420025
  43.3395673  26.1616266  34.3717786  43.3936025  26.6549814  33.5532972
  44.0356160  26.5268648  34.9179860 104.1907597  84.9912262  81.1736012
 104.4170570  85.8603859  81.5046597 104.9082565  84.4292164  81.4661407
   9.2805720  16.9119347  12.7592679   9.0491773  16.2961805  12.0639058
   8.4477664  17.1176470  13.1839486  37.1769239  56.5138519  10.6723138
  37.8186704  56.2096012  10.0305768  36.8278647  57.3223484  10.2971860
  69.5429802  96.7597580  77.5491810  69.6450806  97.6780319  77.2990561
  69.4962406  96.2886715  76.7172384   9.3574330   3.9744100  87.3755836
  10.2819344   3.7340363  87.4368668   8.9114472   3.3619794  87.9606152
  81.8149472  22.6908005   8.7702962  81.5911962  22.7241409   7.8402063
  81.0062696  22.4143875   9.2014238  39.3432380  89.0295208  28.9224073
  39.9224473  88.9556492  29.6808835  39.0111733  89.9264419  28.9610692
  82.6567459  79.6952343  71.5892839  82.4401188  80.3686333  72.2341394
  83.3907795  79.2191219  71.9775343  85.3317356  60.2286911  82.4512577
  84.8568821  61.0578012  82.3936558  84.6530437  59.5752048  82.6202488
  19.8821636   8.8854512  65.0228214  19.5720955   8.8883695  64.1172361
  20.2550884   9.7576245  65.1511145  52.7273178  75.8803892  74.0400219
  52.4296474  74.9960470  74.2534781  52.4413300  76.0179186  73.1369591
  91.0646152  85.3013134  86.3055420  90.8276939  84.5803261  85.7222176
  91.8826294  85.0193214  86.7148781   9.0254403  35.3445232   7.3618718
   8.2366849  35.3747356   7.9033300   8.6991263  35.3614700   6.4621660
  71.4564800  73.3315277  72.5969267  72.3100424  73.7153149  72.7978420
  71.5665960  72.9437590  71.7287445  44.3121910 104.4720364  66.5287018
  44.9222040 104.8971462  65.9258795  44.4333410 103.5356712  66.3712788
  39.7949458  19.6097601  21.2077829  39.5559360  19.4828070  22.1259233
  40.0061608  20.5410326  21.1418268  48.8478185  48.5406006  19.6239682
  49.2308236  49.2356861  20.1591321  49.4157792  47.7843368  19.7713682
  84.7651672  98.7621784  69.2441988  84.7388172  99.4773293  68.6085129
  85.3838253  99.0579987  69.9120092  25.0173856  75.8417786  33.8336011
  25.5907727  76.2081421  34.5068284  24.1486884  75.8369244  34.2355748
  40.0863553  58.6689270  20.5291196  40.0828029  58.0054176  19.8392030
  40.9225370  59.1221321  20.4212591  26.1712123  47.6476849   7.2994157
  26.6913844  48.2474792   7.8341218  26.5809203  46.7926872   7.4311467
  96.9981670  72.7448463  89.4849110  97.1968079  73.5198259  90.0104332
  96.1187744  72.9062319  89.1430759  89.4677639 101.2119293  66.6974831
  89.8330212 101.8964481  66.1368990  89.6925831 101.4853668  67.5868177
  61.9304848  54.9344158  90.6166077  62.3977661  54.1105270  90.7547474
  61.9131947  55.0434637  89.6658039  56.9230938  95.2959824  71.4541292
  57.3369598  94.6223259  71.9936895  56.4782143  95.8656311  72.0816803
  24.1482211  24.3414057  36.2648698  24.7903873  24.6095217  36.9221135
  23.9837886  23.4175146  36.4535924   6.0291291  49.3834389  20.9003469
   6.5794326  49.3668545  21.6833707   6.0698415  48.4897125  20.5600187
  44.7967958  67.9725409  80.7312870  44.4876719  68.8164902  80.4020214
  44.5474291  67.9701090  81.6554356  26.0664464  52.9758633  13.6411115
  25.9853555  53.6520183  14.3137666  25.2661611  52.4574459  13.7249109
   5.1346680   7.0815572  39.3457150   5.6104418   6.4219579  38.8409305
   5.6980797   7.8549584  39.3203211  76.3148022  80.9752464  83.3871746
  76.0004282  80.1561546  83.7699032  77.2232771  81.0436726  83.6808205
  35.3664208  34.5906341   6.1764833  35.4853393  35.5136097   5.9524175
  35.6683875  34.1154087   5.4023954  17.6372911  30.3345955  27.8013154
  17.3228503  30.7439697  26.9952318  18.2198430  29.6358478  27.5036260
  66.0094738  52.5325012  85.7342339  65.1584625  52.9606819  85.8273983
  65.7983065  51.6153622  85.5596066  28.6167813  24.1816175  21.7528650
  27.7256681  24.5280445  21.7991182  28.5041333  23.2623613  21.5109845
  67.0144939  80.3998756  84.0643501  67.5347900  79.6868896  84.4347286
  67.6581621  80.9795570  83.6570644  25.3009845  71.5222347  22.8082582
  26.1363889  71.6848648  23.2462903  24.7468949  71.1343944  23.4856054
   7.4460650  29.5616424  25.8372518   8.0084420  29.3329800  26.5773031
   7.5381614  28.8270653  25.2305051  61.6826677  84.0263081  59.7824430
  62.5096607  84.2541313  60.2071857  61.2020540  84.8527527  59.7351646
  54.5824814  65.8960009  88.0849838  54.2704678  65.3584909  87.3569965
  54.2982149  66.7835093  87.8664494   7.1011063  97.8571776  17.4194261
   7.0013615  98.0521087  16.4876100   6.4048859  98.3578042  17.8447172
  55.6912184  81.3334465  86.7630959  54.8841715  81.7451000  87.0720291
  55.7941484  80.5610752  87.3190498  40.0734330  36.4726532  21.4991113
  40.9224988  36.8965614  21.3741418  39.5298005  37.1428192  21.9133302
  60.3098249  88.9572525  54.8544836  60.7186031  88.8419914  55.7122993
  59.3726635  89.0126801  55.0412607  20.4157210  48.8868416  22.7602025
  21.0745574  48.1960953  22.6891729  19.9810697  48.8918674  21.9073983
  28.3662273  28.8703144   3.0280038  29.2344333  28.7567222   3.4147092
  28.3067418  29.8077953   2.8440782  47.3918009  97.6804256  77.2409248
  46.7547369  98.3939838  77.2059488  46.8991280  96.9059753  76.9693947
  44.7439909  74.3481636  72.8122616  44.2911530  73.6625910  72.3211765
  44.5582771  74.1480541  73.7297058  97.6377902  28.3090008  15.8351823
  97.3671302  27.3917663  15.8757993  96.9035301  28.7923897  16.2139150
  12.1719457  67.7801502  23.5987779  11.6486550  66.9831932  23.5135576
  11.7288829  68.4185112  23.0398294  61.2288046  96.0507584  86.9480705
  61.2915277  96.1638355  85.9996510  60.2890301  95.9943485  87.1209240
  19.5571887  67.5716686  79.9013901  19.6115220  66.6828966  79.5501518
  20.0076771  68.1132603  79.2533398 104.5124921  16.9624699  14.2853757
 104.5320615  16.0899914  13.8921472 104.6749839  16.8093670  15.2161809
  95.5408959 102.9221801  23.1599923  94.8304324 102.2989825  23.0079957
  96.3365559 102.3911027  23.1266900   9.0772164  63.1348467  71.0656738
   8.9401418  63.5393286  70.2090311   9.6776986  63.7279177  71.5172482
  81.0909557  66.6720390  40.3621292  80.6259251  67.0595980  39.6206594
  81.9825554  66.5365505  40.0413179  34.9036479 101.3395882  75.2095938
  34.8106527 102.1261120  74.6720457  35.8488441 101.2009811  75.2697659
  73.8871670  85.7807541  73.3629608  73.0436373  86.0706902  73.0156469
  73.7501192  84.8604488  73.5876369  26.4804269  44.4737614  37.5252363
  26.1924077  45.3540409  37.7668783  26.2732030  43.9357651  38.2893297
  46.2406636  49.4753540  18.8539335  45.6977845  48.8215816  18.4133645
  47.0559693  49.0149868  19.0528318  64.8678760   2.6706418  85.3409195
  64.6357851   1.7719945  85.1068115  65.6589703   2.5829324  85.8726215
  53.8672686  86.6677475  86.0578537  54.7146940  87.0648670  85.8568573
  53.2320976  87.3664570  85.9010220  64.1489363  81.4167786  83.7279034
  64.6351147  82.1280670  83.3108425  64.8040724  80.9517956  84.2482948
  35.9805822  94.2914581  78.3550978  35.0481963  94.3425655  78.5655165
  36.1466074  95.0632286  77.8137684  35.9652234  48.3693016  22.1605989
  35.2453376  48.6134327  21.5788671  36.7468024  48.7227810  21.7358419
  99.4295979  97.6584816  88.7911224  99.6023369  98.5895824  88.9305592
  98.6233234  97.6390362  88.2755947  68.7209988  47.4771595  81.8543434
  68.5424948  48.3284521  81.4547634  69.6573782  47.3377991  81.7128944
  66.6090326   4.1767415  71.1886263  67.1770553   4.9439725  71.2589025
  66.4496450   4.0819367  70.2495623   5.1264378   5.6062802  51.3988352
   4.6558472   6.4377126  51.4580107   5.5663677   5.6400021  50.5493879
   8.3400775  51.7043102  36.8875047   8.1655599  52.3586166  37.5640031
   7.8949357  52.0397652  36.1093255  23.1108308  98.0355740  65.7326174
  23.9511561  98.4307289  65.9648657  22.7083063  97.8173542  66.5732050
  29.8322440  59.5079029   0.2484723  29.8212052  58.7468899  -0.3320197
  29.5771314  59.1608227   1.1032792  13.9755532   9.1180238  78.8442135
  13.5536858   9.5877370  79.5636749  14.6596524   9.7134026  78.5379934
  48.8927317  80.2841187  82.4912071  48.2249212  80.3425312  81.8079472
  48.3981800  80.1381111  83.2976341  79.6530534   9.2482317  30.7018777
  79.4810296   9.7496498  29.9048730  78.8951398   9.4195211  31.2608644
  88.3969578  66.1769951  31.2949487  89.2190168  66.1055839  31.7800733
  87.8151307  66.6625011  31.8797513  22.7184249  41.9827164  39.3867227
  22.8278686  41.0356033  39.3016073  21.9047261  42.1727169  38.9197942
  15.0345326  43.4579647   8.9865037  15.4322387  43.7882221   8.1809064
  14.9779702  42.5115097   8.8551542  31.3557674  31.7677296  37.8649160
  31.0945798  31.5297497  38.7545129  32.2889758  31.9688213  37.9349920
 107.9329114  13.1994065  65.9986353 107.1783213  13.0365762  66.5645981
 107.8121714  12.6018723  65.2606630  20.4212905   8.1601847  14.3067571
  21.2436534   8.0743778  13.8244840  19.9533940   8.8649643  13.8588830
  52.0431424  49.5799530  18.3688852  51.2211419  49.9534500  18.0510064
  51.7908002  48.7434185  18.7597295  68.3303785  93.2602310  88.8002110
  68.3342409  92.9143715  87.9076862  68.6301470  92.5298405  89.3414116
  33.2978917  15.2390612  18.4164068  32.5816394  14.6041000  18.4224626
  34.0839196  14.7120941  18.2725545  41.0605432  24.4177044  17.1740457
  40.7192327  24.4022262  16.2798902  41.2465192  23.5005749  17.3753377
  15.0526429  16.4240587  10.7110330  15.7469035  17.0783556  10.6327363
  14.3104411  16.8050468  10.2417680   6.7082692  11.0318506  11.7626592
   5.9341718  10.4953850  11.9335672   7.1632148  10.5769480  11.0539171
  12.0488311  33.2451237  14.7302457  11.9648076  33.9058864  15.4176732
  11.2938167  33.3942783  14.1610833  27.5871326  60.4591358   5.8462449
  26.9449426  61.1667049   5.7899209  27.1641589  59.7945106   6.3899251
  50.5157949  32.8746021  12.1101114  51.1231614  33.6121548  12.1681234
  51.0618211  32.1024788  12.2581216  75.9883308  73.1749439  79.4518709
  75.1431322  73.1727266  79.0025711  75.7951927  73.5195494  80.3237534
  46.7833043  24.5262850  16.8746301  46.1254502  24.3389738  17.5442239
  47.3485280  23.7537945  16.8714639 109.5864014 103.8000945  20.7854005
 108.9589648 103.2367209  21.2383577 110.4132609 103.6561946  21.2456533
  29.7242404  88.4781731  12.2257921  29.0049935  88.2724369  11.6286393
  29.2935372  88.8018978  13.0169507  13.5957194  49.1291511   8.8569661
  13.9744330  48.9891518   9.7248479  14.1121913  48.5694302   8.2771417
  14.0592624  31.2917984   9.2355272  13.6872531  31.8667686   8.5667535
  13.7912513  30.4118240   8.9708539  44.1121007  85.7738293  22.0713254
  44.7099973  85.4887951  22.7623388  43.3290196  86.0662353  22.5377103
  23.2944962  19.9369344  57.6742029  22.5496575  20.1890859  57.1284294
  24.0128704  20.4916581  57.3701477  38.4865857  66.7885960   6.5431615
  37.9508925  67.5231064   6.8427678  37.9608632  66.0130871   6.7391988
  63.1841707  98.6426258  64.5763445  64.0472937  99.0432644  64.4726849
  63.2932520  98.0217457  65.2966452 104.5825768  71.1717653  80.7214737
 105.0667763  71.5281630  81.4663029 103.9054394  71.8240070  80.5417728
 105.6652412  40.9944427  15.0703737 105.5857834  40.3522003  14.3650838
 106.4593038  41.4853561  14.8589441  47.7600766   7.2877014  13.9576837
  47.5693322   6.6571272  13.2632562  46.9828607   7.2713602  14.5161554
  21.1562110  38.8588608  17.6261922  20.5377866  39.3955315  17.1304437
  20.8261109  38.8810051  18.5244008  49.6795178  44.7979725   7.2267648
  49.6618558  45.0768078   8.1422826  50.5184651  44.3474281   7.1297571
  64.0193224  98.8930607  55.0600767  64.9268436  98.6448193  54.8839569
  63.6021948  98.0831814  55.3539038  66.8252182  72.7608633  88.2008457
  66.3822651  73.4909725  88.6332417  66.6795254  72.0143175  88.7819386
  89.4773674  55.4926777  85.0750160  90.0178528  54.9638891  85.6619549
  90.0036240  56.2735796  84.9033451  97.0951462  76.5808868  85.3502369
  96.9521141  75.8783865  84.7159958  97.9724407  76.9080973  85.1514244
  80.2544212  68.1880474  66.7008686  79.4265509  68.0344868  67.1561432
  80.3355598  69.1411734  66.6663122   5.6445690   2.0228490  78.4388256
   6.3205906   1.7484101  79.0584326   5.8011624   2.9586610  78.3124495
 100.6222343  78.8233089  80.3478146 101.2396049  78.1001806  80.4581451
 100.2774334  78.7108135  79.4619846  56.0301113  93.5527515  82.4388504
  56.4789295  94.2979240  82.8382397  55.2934790  93.9415455  81.9672108
  94.2919497   6.0971078  67.2689962  93.3450036   5.9599313  67.2954655
  94.5704465   5.6878194  66.4497566  32.4640037  64.4398010   6.1625978
  31.6620399  64.2448795   5.6777307  32.5400592  63.7265194   6.7963811
  21.7040826  40.3260982  15.4141542  22.2805787  39.9072636  14.7750398
  21.7076303  39.7325123  16.1650678  65.3375150  83.4986294   9.6908399
  64.3970967  83.6156643   9.8255369  65.4000951  82.8855312   8.9584276
  31.4319730   5.2826679  48.9960957  31.6845775   4.3614048  49.0569067
  32.1630239   5.7580268  49.3908548  42.0161581  14.1776645  64.5304775
  41.9259262  14.4428480  63.6151838  42.8542805  13.7165678  64.5647430
  65.5567055  66.3128237  15.5106851  65.7141046  65.9219686  16.3701555
  66.2160377  65.9148768  14.9422189  71.0707424  98.2929203  87.5628853
  71.1496848  98.5511604  86.6445637  70.8241934  99.0982143  88.0177975
  25.9331775  17.5764406  78.6854458  25.7156825  17.0178545  77.9391861
  25.4846573  18.4025776  78.5050058  98.0618981  81.2121287  78.0062199
  97.5189379  82.0001427  77.9847336  98.7793163  81.4317194  78.6006308
  10.3479581  24.1798262  -0.2506522   9.8961620  24.3095950   0.5831739
  11.2392406  23.9326195  -0.0042037  12.2925801  86.3699559  64.4866848
  12.5004239  85.9706393  63.6419487  12.2279401  85.6308988  65.0915384
   9.7334671   0.5524896  57.4331951  10.1466918   0.2619314  58.2462454
   8.7963498   0.4272899  57.5827551  27.2985645 101.2311084  57.4870062
  27.7836318 101.8023709  58.0824900  27.1946807 100.4124380  57.9720020
  75.2625579  91.9924334  46.6969872  74.7982771  92.2370831  45.8964729
  76.1664865  92.2671238  46.5430689 110.4290023  20.7865930  44.3867016
 110.5265376  19.8354912  44.3406010 109.4848331  20.9274077  44.4570398
   9.9994791  45.0443888  53.8975000  10.4736519  44.3796253  53.3980179
   9.4973338  44.5464039  54.5425606  22.3691750  24.2189026  63.6953688
  21.8627739  24.4094872  64.4849682  23.2351971  23.9721894  64.0199804
  46.5013599  19.6633744  75.7936001  45.7510281  19.7505176  75.2056837
  46.1221600  19.6934652  76.6719723  29.0477729  19.0436459  89.7045422
  28.6858201  18.4311807  89.0641403  29.5238662  19.6863830  89.1787529
 102.8289560  54.5086375  79.4234228 102.7584485  53.6071054  79.7372723
 102.2922782  54.5290748  78.6310863  33.3198619  16.5342987  82.9735851
  32.5296664  17.0281553  83.1925106  33.9248824  16.7197716  83.6917686
 102.0562275  13.6585307  81.0721588 101.6579487  13.3813882  80.2470493
 102.7328559  14.2841363  80.8132744  25.0774472  83.2120971  22.0846673
  25.6959300  83.7615398  21.6031953  25.5761902  82.4248413  22.3031064
  68.0551700  70.7417647  24.4544622  68.2317047  71.1876039  25.2828904
  68.8030534  70.1567964  24.3331643  39.2207861  34.2854571  84.4160366
  40.1761246  34.2353487  84.3836308  38.9810038  33.7848639  85.1958752
  15.8860481  28.6195898  68.5773325  15.9673595  28.1665111  67.7380800
  16.4705968  29.3736219  68.5000658  28.3913987  48.8967020   8.7293264
  29.2124336  48.4092388   8.6621496  27.9631572  48.5385753   9.5068761
  25.2760224  72.1401361   2.5845834  25.5004744  72.4974112   3.4437677
  26.0932998  72.1795491   2.0878526  81.6366849   5.9801758   0.0850412
  81.9786677   6.3922394  -0.7083586  82.4044124   5.8647049   0.6449529
  99.8342098  29.3435005   1.6296884  99.6218933  29.2858318   2.5612661
 100.1555646  30.2374534   1.5121671 106.8418578 105.1072577  90.7842445
 107.0575765 104.5382382  91.5231037 106.4362291 104.5237370  90.1430035
  97.0220944  18.0764544  83.4189987  97.6851209  17.4166226  83.2159042
  96.3556584  17.9628205  82.7413750  83.9347104 104.7240765  81.7382336
  83.5554347 104.5626884  80.8743286  83.6288283 103.9926137  82.2745419
  42.6912928  38.3190989  76.7906141  42.0207691  38.8842177  77.1743727
  42.7148914  37.5524974  77.3633194  33.3613801  18.3462954  88.0026436
  33.6829877  18.6348808  87.1485233  32.6620960  17.7255225  87.7980137
  44.3632309 101.5979127  10.6406518  43.6818020 102.2162799  10.9042951
  43.9925037 100.7366303  10.8329793 105.3577950  26.8795681  76.3433838
 105.9374156  27.6242042  76.1827993 105.7629057  26.1539268  75.8684492
  32.0126295  28.1861496  64.8431683  32.8112483  28.0053449  64.3474340
  32.0293021  29.1322708  64.9874258  36.9511986  25.0346160  78.9252806
  36.3725400  24.3653202  79.2905569  37.8030229  24.6033883  78.8569403
  51.5735054  32.7205729  79.5059156  50.8851576  32.9239726  78.8726377
  51.1136770  32.6385880  80.3414249  34.3202209  16.4555275  40.6184816
  33.3975315  16.5936959  40.4044962  34.5256329  15.5965269  40.2494860
  10.7706058  43.2145977  74.5329332  11.2863410  42.7334213  75.1800108
   9.8611856  43.0596399  74.7882223  18.5250008  24.5460916  88.4236145
  18.4353697  24.8096156  89.3394470  19.4188178  24.7956157  88.1889629
  72.1649413  59.1204897  24.6058580  72.1513038  58.5069148  25.3404161
  72.8454714  59.7534023  24.8350641  95.2210978  89.7322682  68.3584595
  94.2719821  89.6803537  68.2456970  95.5193762  88.8246850  68.2988405
  40.8265829  35.7530069  73.1468534  40.7007027  36.0666823  74.0423918
  41.7496538  35.9245920  72.9605007   6.8433410  28.3109069  66.4695787
   6.4508277  28.2048225  67.3361301   6.4543182  29.1157413  66.1273289
  38.3085056  82.8668705  56.9399929  37.4694772  82.4589006  56.7259264
  38.0915685  83.7822667  57.1166801  70.2850971  87.2064499  24.8306227
  70.3306041  88.0227808  24.3328643  69.7460947  86.6271952  24.2919469
  54.3324614  37.7000642  61.9498539  53.5850525  37.2574043  61.5477800
  53.9406157  38.3589149  62.5230932  81.5977483  71.0526434   0.3984662
  80.9443765  71.7508201   0.4419252  82.2162442  71.3447658  -0.2711371
  45.6553602  20.6562948  89.8141098  44.9243546  21.2374139  89.6039486
  45.8071852  20.7910490  90.7495308  28.0500293  29.6263623  69.3453026
  28.0748487  30.5335689  69.6495867  27.2101235  29.5483875  68.8928509
  80.4881201 103.3266867  84.6091080  80.5172024 104.2054720  84.9874210
  79.7054545 103.3289323  84.0580463  70.9024993  99.2720423  74.7847843
  71.4021344  99.8047469  74.1660595  71.5054951  99.1217003  75.5128145
  56.1103201  30.7001376  49.2880583  56.3926363  31.3990283  48.6980724
  56.7035580  29.9730587  49.0992260  73.3296900  75.5068234  12.9402372
  72.6774149  75.7568292  13.5946580  74.0395360  76.1384229  13.0561467
 110.6316332  41.7845488  77.0649052 110.3541880  41.0603189  76.5038776
 110.7112030  42.5308418  76.4708090  67.7952175  59.1847686  13.2183286
  67.5074415  59.6143249  12.4127885  67.2650413  58.3893684  13.2681867
  83.1784587  61.6860227   8.3576413  83.5493712  62.4052600   8.8688680
  82.2390036  61.7242000   8.5370847 107.0716193  19.5962882  74.9184942
 106.5727260  18.9668405  75.4392004 107.9858383  19.4191158  75.1399565
  61.9742803  64.5811454   2.9219838  62.8893118  64.3096081   2.9942151
  61.8426661  64.7329835   1.9861051   9.0010786   2.9534021  52.2643471
   9.1822678   3.1174871  51.3388872   8.0471158   2.9929811  52.3323250
  54.6324539  14.8373628  88.2057381  54.2773771  14.3607605  87.4553967
  54.2823172  14.3777776  88.9688969  22.3293924  45.4757214  82.1897602
  22.7519107  44.8611879  81.5897083  21.6333675  45.8777523  81.6699886
  14.3517160  55.9543371  53.1857300  13.8242209  55.2636766  52.7845144
  14.4824719  55.6623411  54.0878773  99.8167988  32.5486517  73.6646366
  98.8664528  32.4409389  73.6262703 100.0328203  32.4412251  74.5909309
  37.5299883  26.5928459  73.1726265  37.9085541  26.5071988  72.2976494
  37.6935220  25.7462478  73.5882664  19.6280742  45.6571436  77.6660681
  19.9827600  44.9257183  77.1606541  18.6833501  45.6148100  77.5179672
  46.3324022  38.8268924  72.7669621  46.8560648  39.2274594  73.4609079
  45.9314489  39.5673323  72.3117495  34.3195248  45.9638786  76.1161661
  34.6609735  45.5535603  75.3216314  33.6163759  46.5352869  75.8074474
  75.6547848 104.3323993  75.7235909  76.2757764 103.9088871  75.1309347
  75.3877094 105.1275098  75.2623940 110.2616767  90.7342306  46.6619730
 109.9725870  91.5365938  47.0965672 110.0116566  90.8546153  45.7458782
  81.9487381  16.2501645  49.8910189  82.1671581  15.3550339  50.1503754
  81.7770481  16.7035282  50.7163763  94.6736769  70.3933064  44.8722839
  94.7972921  70.1128260  43.9654875  94.1785339  69.6815148  45.2777719
   2.5346084 100.6934163  84.6711731   2.4253221 100.0503788  83.9706039
   2.0148487 100.3477109  85.3968239  73.0014710  78.2071427  26.6360780
  72.3198275  78.6680368  27.1251317  73.1575708  77.4074844  27.1384832
   0.4078794  12.5417387  73.4053421   0.9944424  13.1745160  72.9908895
   0.8830990  12.2479892  74.1825867  14.0012467  75.9627342  57.6402760
  14.5507932  76.0853291  58.4143591  13.9288723  75.0129509  57.5459099
  66.8375592  68.5320274  17.9481908  67.4174743  67.7830402  17.8105279
  67.1021681  68.8870243  18.7968274  26.7426848  12.4401820  72.6292181
  25.8232594  12.2168553  72.4842548  26.8937039  13.2052839  72.0741987
  31.4842749   1.2380527  68.0536890  31.1564612   0.3405222  67.9970503
  30.6995463   1.7723982  68.1757832  42.7659750   3.0869153  63.1874752
  41.8120241   3.1656739  63.1890011  43.0809021   3.9895788  63.2349253
  74.7556095  88.6447958  19.1986581  75.2436452  89.4676498  19.1676256
  74.5200734  88.4715013  18.2872125  10.8946414 104.4815381  87.0319557
  10.5676742 104.8335836  86.2040710  10.5793901 105.0960466  87.6947021
  31.3905168  25.7504821  45.4996777  31.2199497  25.6861973  46.4393616
  30.9411860  24.9941778  45.1223993   8.4779942  33.7247062  78.0534029
   9.0945482  33.8933086  78.7659121   8.5392630  32.7815771  77.9017973
  37.1529293  49.0476704  82.5217915  37.5807047  49.2885351  83.3435154
  36.7396116  49.8568583  82.2207642  59.0578011 102.5417662  66.6718864
  59.7903243 101.9313398  66.5880966  58.2804350 101.9833196  66.6803932
  36.1467719  16.8100595  89.0573883  35.2684283  16.8271899  88.6773205
  36.2517238  17.6735139  89.4569683  21.2109256  18.6507356  73.7330437
  20.3378582  18.3688915  74.0060806  21.8090630  18.0911398  74.2283344
  96.7829558   6.0507673  73.5732317  96.3430461   6.7308944  74.0832710
  96.7534622   5.2748477  74.1329718  61.1579994  98.8149730  73.3911753
  60.3589014  98.7847797  72.8650951  61.5673414  97.9606221  73.2542276
  32.6757549  89.5116953   0.6095620  33.3465083  89.6974472  -0.0475672
  32.4837808  90.3628782   1.0030958  27.9019356   3.9869428  35.1121187
  28.6680818   3.6429170  35.5713534  27.7841544   3.3970907  34.3675137
  32.5184131  32.6715875  35.2043533  31.7618036  32.7968884  35.7771301
  32.1739936  32.8013587  34.3207431  64.9766493  25.9887838  69.9846983
  64.5553970  25.3382421  69.4229364  65.2711105  25.4915738  70.7477856
  94.0439049  99.2139903  56.6108847  93.1354109  99.4220701  56.8289948
  94.0398172  98.2719055  56.4414978  95.6710652  92.0657340  66.8838024
  96.4403251  91.7220465  66.4295435  95.3932098  91.3520244  67.4579525
   6.4026058  37.0622110  79.8276806   6.2460226  36.1887717  80.1865864
   7.2429442  36.9881845  79.3753719  39.5794249  27.2794700  70.6458330
  39.8690557  26.4355111  70.9923553  38.9958286  27.0534587  69.9215651
  51.8068521  38.9148561   1.1798497  52.6646869  38.9058999   0.7552739
  51.2423591  39.3889991   0.5693075  17.1035159  29.5458364  60.1904917
  16.3535655  29.7722530  59.6404552  16.9640064  28.6269021  60.4192448
   0.5586679   1.2957281  90.1035690   0.9697150   1.7118886  90.8612537
  -0.1232749   1.9106209  89.8332119   4.5617956  32.8246689  88.6251926
   4.1170961  32.3624301  87.9146957   4.5900568  32.1912432  89.3422794
  16.5309978  33.9033246  88.3022213  16.0810792  34.6594524  87.9252911
  15.8317280  33.3777881  88.6908913  15.4867280   1.6856499  82.2785378
  15.7844412   2.4163178  81.7365742  15.6073320   0.9131504  81.7263317
  54.2364101  82.9047564  14.3701764  53.5006921  82.6081852  14.9059030
  54.9945156  82.4421576  14.7272607  64.9271731  68.7795440   5.0200960
  64.3148713  69.2872516   5.5525895  65.3996496  69.4354478   4.5074674
  49.3727684  51.3406420  82.6071739  49.8019600  52.1644258  82.3760796
  48.4373999  51.5267086  82.5253296   1.8290444  89.9409858  71.2473965
   1.7268391  90.6218687  70.5824280   0.9331818  89.6960262  71.4790392
  61.3921766  62.6837877  35.3407308  60.9890966  62.7742330  34.4772645
  61.9653253  63.4464613  35.4185792  34.2387271  40.5026817  69.0477514
  33.9648581  40.0423622  68.2544470  33.5425663  41.1399746  69.2072868
  68.2075214   1.9670644  63.2717085  68.4989882   1.2362351  62.7265787
  68.4789801   2.7483755  62.7899456  17.2435296  13.6233282  71.8043852
  16.8496013  13.6117303  70.9320784  16.6120994  14.0967345  72.3460627
  37.9444027  37.7960396  64.2215586  38.8839722  37.6527071  64.1079998
  37.6773381  37.1371269  64.8624468  14.0647495  10.4825795  62.6384258
  14.0266144  11.0705543  61.8840647  14.9536538  10.5860913  62.9780817
  41.7380814  76.0715894  26.2695428  41.1501749  76.0360674  27.0240899
  42.3047601  75.3068880  26.3712426 106.6424946  89.9479929  59.3971491
 107.3834590  90.3959766  58.9890909 107.0237378  89.1619209  59.7882748
  55.7803488   4.4917315  77.9089880  55.9019756   4.5838445  78.8539505
  56.3779068   5.1344585  77.5268126  53.8655901   4.7652295  61.2011290
  54.0458441   5.4634732  61.8305683  53.5788631   4.0266711  61.7383003
  16.9306894  66.4502112  73.5831881  16.8022294  67.3095981  73.9846659
  16.0455461  66.1416117  73.3895016  62.6587896  59.2935763  12.1998617
  62.6648717  59.6011112  11.2934324  63.2721906  58.5587911  12.2076055
  87.3047976  45.5824659   0.1206323  87.6201587  46.4128498  -0.2360800
  87.5498586  45.6106076   1.0455056  98.0493525  86.1618594  50.9596062
  97.3861412  85.6783620  50.4670477  98.8758138  85.7378927  50.7284212
  97.1808008  99.2405609  41.9229794  97.8520111  99.1267738  41.2501049
  96.3523487  99.1841999  41.4468241 103.2417396  93.1007007  61.3936520
 104.1892723  92.9657808  61.4080715 102.9886369  93.1210855  62.3165560
  62.7806740  64.2697052  12.0459863  62.8192167  63.9008121  11.1635705
  61.8631487  64.5162062  12.1626684  27.5860333  10.3299785  70.1838350
  27.2359133  10.4224181  71.0698938  28.3209729   9.7240949  70.2787066
  93.5353919  12.1784520  88.7540150  93.7130424  11.2787688  89.0283108
  92.8572508  12.4831879  89.3569183  35.1162529  27.7469873  70.3059721
  35.2586007  28.5485673  70.8094025  34.3180728  27.3701477  70.6762838
  56.2650339  44.2030738   8.4011384  55.5955474  43.5643510   8.1560823
  56.4577751  44.0081272   9.3182393  44.5175982  32.6395798  66.2535143
  44.4187260  33.0887771  67.0929670  43.9102173  33.0909395  65.6673431
  99.8245791  98.8860819  21.8920779 100.7810644  98.9125094  21.8661714
  99.6205739  98.3357969  22.6482511  47.0793009   6.4493680  47.9911089
  47.0436239   5.5580413  47.6439810  48.0036640   6.5896654  48.1963110
 109.6662334 102.0874167  90.0950527 109.4796804 101.7825938  89.2070770
 109.2209438 101.4583698  90.6627274  15.5988848  15.7754743  64.8595524
  15.2643037  15.0922906  65.4405403  15.0477517  15.7172620  64.0791035
   2.4557514  41.9589806  51.8286753   2.1034342  41.1216688  51.5269899
   3.4055471  41.8441439  51.7981243  14.0620673  11.6870737  48.2268095
  14.3568480  12.3145604  48.8868093  14.6659935  10.9492481  48.3111906
  89.5615439  61.2153337  18.3105108  89.8758178  60.3332446  18.5089513
  90.3550343  61.7493073  18.2720872  17.1248221  18.1217968  77.5312996
  16.1904788  18.3194566  77.4667597  17.1853614  17.4787581  78.2377481
  26.9538975  24.0918589  62.6702547  27.0500660  23.1917977  62.3590088
  27.6475048  24.5757246  62.2219086  11.6194355  12.6475608  62.0290470
  11.1481667  11.8899822  62.3757648  11.3614571  13.3716977  62.5994015
   3.7331584  29.9575067  73.2769775   3.1018808  30.1144648  72.5747776
   4.3512678  29.3272495  72.9069138  17.5593936   4.9067605  55.5826855
  16.6086149   4.9387169  55.6886578  17.8013241   4.0220842  55.8566380
  77.3027091  89.4956116  32.7261087  77.0506339  90.0803689  33.4407731
  76.4720588  89.2137650  32.3429414  46.3238859  36.7973971  90.6035519
  45.7189989  37.1577048  89.9550724  45.7984114  36.1680698  91.0975742
  25.2594423  37.3726439  48.9315987  25.1535010  37.5699878  49.8622227
  24.4247675  36.9818377  48.6731052  22.2688270  47.5948954  76.7965508
  21.6267681  48.2917833  76.9319868  22.5471067  47.3507547  77.6792669
  45.6857847  78.4856776  14.8678514  46.5426867  78.3784989  15.2807256
  45.6602453  79.4055418  14.6043607  84.9204831  95.9836654   6.2956163
  85.4696755  95.2460507   6.0300084  84.5190291  95.6998328   7.1169015
  29.3946815  27.0640802  83.2669544  29.4724703  28.0179405  83.2486534
  29.4459701  26.8019104  82.3477936  14.0893789 103.3301007  78.9587355
  14.0076204 103.1991458  79.9034023  14.1575189 104.2790544  78.8534927
  55.8580065  40.5503798  79.7148323  56.1011600  40.4267311  78.7973261
  56.0664845  39.7147608  80.1325703  40.9802341  12.4528456  57.7490187
  40.2540302  12.5256312  57.1296883  41.7622519  12.4180686  57.1981382
  24.5553732  26.7139673  88.4229279  25.3215790  26.7288399  87.8493977
  24.5251274  27.5910854  88.8050079  25.3788467  94.5223001  75.4966354
  25.3451486  94.1676835  74.6081829  24.9291082  95.3650412  75.4353666
  49.6626139   2.9568043  73.0868483  48.8165379   2.7598697  73.4888506
  50.0006294   2.1049336  72.8106356  -0.0709448  41.3421106  86.5528679
   0.1548370  41.2768984  85.6249619   0.1631570  40.4883528  86.9169044
  79.0430550 102.6099709  14.7748491  78.1495433 102.3773459  14.5223543
  79.1113334 103.5446576  14.5800897  14.4701564  53.4211206  78.6314011
  13.5568345  53.2473850  78.8591957  14.4290864  53.8126564  77.7589083
  17.9222489   8.3828009  41.3880082  18.7704421   8.8254059  41.3580533
  18.1250526   7.4964130  41.6870424 103.5485365  34.4959831  47.4296379
 104.3533554  35.0092363  47.5008297 103.2870098  34.5864940  46.5133190
 110.6265449  10.7223046  67.4072886 109.7425588  10.4522336  67.6560068
 110.8891125  10.0930607  66.7354679  26.5761971  22.5189328  78.2229090
  26.6434264  23.3184004  78.7449837  25.6966472  22.1876836  78.4042835
  62.3469691  70.9139649   3.3623430  63.1604271  71.3069848   3.0460283
  62.6184158  70.3544382   4.0899965  67.4370289  24.2277718  55.5986881
  66.9885635  23.5272741  56.0724115  68.1910658  24.4434309  56.1474609
  41.8308401   4.6836406  70.1206446  41.6739607   3.7403125  70.1625013
  42.5632048   4.7778493  69.5115423  23.8189387  34.8099971  71.4489746
  23.3097100  34.3207002  72.0951223  23.1671429  35.1406240  70.8308506
  80.5673032  62.1013371  10.9034082  80.4052453  62.5966624  10.1005288
  79.9532037  62.4683587  11.5393468  50.5478334  39.2191362  83.7045860
  51.1755896  38.5016823  83.6184502  50.9142208  39.7768688  84.3908310
 104.5508199  74.9824528  39.4926187 103.6756139  75.3698353  39.4793817
 104.6431069  74.6293739  40.3775235  88.1017785  89.7263555   1.1047002
  87.3786740  89.1105131   0.9859868  87.9349379  90.4179625   0.4643270
  34.7768869  92.4342088  28.2911607  34.1565578  92.8309611  27.6795980
  34.2932765  91.7085222  28.6857816  29.7165251  23.8372588  70.8896828
  29.8969531  23.6394644  71.8086767  28.8762665  23.4137702  70.7140350
  94.3018250  73.1163315  22.3130723  93.9117007  73.7313251  21.6919347
  93.6485581  73.0304173  23.0074045  23.1452966  23.3135176  61.2308073
  23.7782812  22.7042723  61.6107845  22.6638126  23.6585331  61.9827175
  26.8465233  57.1433830  64.4268274  26.6511583  57.8962231  63.8688850
  26.9263005  56.4086962  63.8184690  75.1780658  62.0190213  17.9403039
  74.9338322  61.1053977  18.0881997  76.0332589  61.9721536  17.5128862
  32.7781200  42.8339005  68.8559723  31.9589663  43.1784058  68.5002565
  33.4625220  43.2951021  68.3710814  86.7531209  79.6041183   0.4934331
  87.5208525  79.6084861  -0.0782279  86.3694005  78.7355761   0.3725168
  72.5528860  31.7800641  83.5752296  72.6152134  30.9403253  84.0303993
  72.1637106  31.5647531  82.7276325  52.1167564  41.4894438  76.6032743
  51.2529039  41.0803986  76.5515995  52.1717119  41.8206120  77.4996805
  41.3711834  38.9620733  44.6423149  41.2721300  38.1445885  45.1303101
  41.3868618  38.6924434  43.7240124  66.9764619  73.8997296  24.4913503
  67.0336203  73.0937556  25.0045415  66.8387155  73.6018661  23.5921689
  22.9215717  28.1177211  45.3576326  22.0684862  28.3389282  44.9840784
  23.5206294  28.1310368  44.6111822  41.4280367  40.7177067  61.0076046
  40.7527161  40.8064365  60.3350735  42.0766068  40.1302147  60.6197357
  55.1279068  14.5935321  46.6232967  55.4865026  14.6614397  45.7384062
  54.8910093  15.4914689  46.8552876  10.6060016  26.3020658  82.4748421
  11.1778128  26.8699837  81.9583797  10.2856922  25.6521058  81.8493938
  29.6187234  41.5854120  85.0758171  30.5444646  41.4287281  84.8895836
  29.6222472  42.2451830  85.7692909 101.9707875  87.8435878  37.0094415
 102.4493460  87.2748307  37.6125451 102.5770240  87.9859380  36.2825033
  43.1882477  24.3452954  58.2019711  43.8766813  24.3687153  58.8666153
  43.3970499  23.5789752  57.6677608 108.2306539  22.3715854  61.2841320
 108.8553674  21.9166040  60.7193661 108.3893212  23.3006501  61.1171150
  59.1379929   7.3634934  56.6578722  60.0860071   7.3077613  56.7778540
  58.8587570   8.0445498  57.2697735  25.9457509  74.7280268  28.1487008
  25.7730286  75.6327561  28.4092065  25.9669463  74.7541145  27.1920892
  64.4343042  15.5937099  91.0307693  63.7074184  14.9944115  90.8613491
  65.1880503  15.1813364  90.6088066 102.2657736  53.4186316  38.2676983
 102.6057830  53.0714512  39.0923762 102.7539565  54.2304182  38.1301761
 102.7251487  61.0441271   7.3583528 101.9126897  61.2403379   7.8248807
 103.1307320  61.8990044   7.2137185  49.3312263  39.5627069  65.0806570
  48.4147549  39.4596148  65.3369570  49.4628048  38.9091659  64.3937778
  63.1355333   2.2463191  60.8194447  62.7686167   3.1271023  60.7431269
  64.0757561   2.3873276  60.9304905  19.9873710  17.4407899  88.3308983
  20.8967781  17.6057458  88.5799026  19.6544158  16.8573034  89.0127468
  47.0264292  32.4694681  79.9545336  46.4951468  31.6757798  79.8910284
  46.7551422  32.8739834  80.7785511   8.7397218   0.4316943  23.6840820
   9.6043986   0.0828258  23.4676170   8.8922894   0.9972891  24.4410872
  98.2452636  99.9921540   6.9057962  98.6051850 100.8707265   6.7841455
  97.6695018 100.0723723   7.6662561  47.1491718  43.9932728  86.9772434
  46.9314432  44.2826366  87.8632927  46.7685270  43.1175184  86.9109631
  83.0960898  79.5472030   5.9910222  83.2340579  79.2446975   5.0934240
  83.9694314  79.5409588   6.3827821  20.1809764  11.9206715  47.6361179
  19.3200493  12.3352146  47.6925850  20.7970595  12.6522708  47.5982428
  13.5905910  46.9232845  59.1436052  13.0958688  47.5632048  59.6554470
  14.2545962  47.4418020  58.6892176  14.5194383  89.7455982  46.2099457
  14.9066777  89.4350139  47.0283651  13.6595149  89.3264071  46.1776161
  27.1628070   3.9017808  43.3213758  26.3262367   4.3345842  43.4918594
  27.5052238   4.3406656  42.5426817  35.1898289  10.0186694  45.3432274
  36.0790873  10.3672397  45.2803802  35.0180602   9.6434480  44.4795465
  39.2935205  32.2879457  90.6975651  39.5329428  32.8764772  89.9816513
  38.3517218  32.1532798  90.5921364  69.0481739  92.6168899  17.4123689
  68.6631541  93.2789830  17.9865094  69.3853383  93.1133393  16.6666623
   7.1444316  89.8255757  72.0581913   7.1259542  89.9858943  71.1146975
   6.7538161  90.6105486  72.4422121  87.8603511  44.2527501  25.5487081
  87.0129018  44.1089962  25.1275274  87.6939397  44.9407641  26.1930486
  95.0546555  82.3043875   7.5739881  95.0747447  81.9000296   8.4413549
  95.7695203  81.8831591   7.0967408  37.2923474  49.3480892   8.7625810
  37.3562463  50.2001049   8.3310434  37.4178604  49.5402554   9.6918508
  57.5812960  27.1382952  55.4187155  56.8613911  26.5149999  55.3214312
  58.3715630  26.5997481  55.3777504  18.7731707  44.9283743  67.4978828
  18.7913644  45.2132702  68.4115219  18.9168942  45.7295799  66.9942522
  51.0616589   3.0977097  87.1146965  50.8982086   2.4573785  86.4222431
  50.6056595   3.8872558  86.8233013  52.9769993  22.6478815  70.6432962
  52.1181536  22.4667478  70.2614450  52.7888870  23.1891394  71.4100313
  11.7289710  22.1754575  84.6150684  12.2205520  21.3543415  84.6336555
  11.6757596  22.4017835  83.6865330   1.8860484   4.3807686   3.5338422
   2.8314329   4.5072306   3.4532949   1.6681148   3.7563312   2.8418847
  56.3158941  42.2395611  81.7318726  57.0565224  42.7772141  81.4514637
  56.1416626  41.6645432  80.9867382  70.4489326  33.1612682  76.1906338
  69.9787617  33.2723498  75.3642988  70.4340887  32.2174883  76.3496590
  12.3257768  42.0876551  85.8522987  12.6815331  42.0283604  86.7389488
  12.9064476  41.5398645  85.3241158  74.7705917  35.3117565  30.3775903
  75.5764179  35.8276943  30.3514215  74.0855985  35.9235934  30.1080152
  57.6455788  85.3074602   3.1357213  57.4988203  84.4971827   2.6477262
  58.5643534  85.2643899   3.4007284  97.0174222  98.7253169   1.2232419
  97.4944691  97.9024199   1.3304731  97.2488599  99.2389277   1.9971105
  23.8633871  11.8916225  83.0056763  24.5841885  11.2619472  83.0193329
  24.2323709  12.6690066  82.5864410  34.0000319  32.3562264  88.9671516
  33.1897950  32.4816847  88.4731865  34.6616364  32.1740985  88.2998180
   7.5955302  10.6968188  84.0008259   7.6300836  10.5434954  84.9450302
   7.8981769   9.8754382  83.6135674  31.7625953  14.0353334   5.9386178
  31.3382436  14.6052921   5.2972909  31.5976144  13.1488502   5.6174299
  79.8277760  11.8004704  50.1323843  79.2507362  12.5635803  50.1020432
  80.1742458  11.7975140  51.0246754  22.3366904  37.5714993  77.7381945
  23.1601095  37.5584316  78.2260895  21.8795204  36.7786646  78.0186272
  80.6745868  84.3987612   3.6708852  79.9723534  84.8818473   4.1064569
  80.3095059  84.1622738   2.8182336  19.5108616  44.9173164  87.6072884
  18.9451730  45.3059435  86.9400597  19.3394911  43.9774036  87.5487328
  70.6490116 101.5814809   1.6051408  71.2064056 102.3226098   1.3679334
  70.5511598 101.0855655   0.7922956  11.2517400 104.4714518  63.8759804
  11.1940761 104.5314835  62.9224062  11.4829965 105.3564051  64.1581297
  15.3959334  22.1688414  89.1001797  15.8632326  21.9180298  88.3033371
  14.9378502  21.3727975  89.3698120  56.8212652  30.5631638  73.0831909
  56.3858271  30.3217101  72.2656775  57.6943636  30.1772380  73.0125666
  54.3297987  58.2537989  15.4971238  54.4930057  58.9276753  14.8372098
  54.5260970  58.6820356  16.3303777  26.9730544  23.0250788  70.8185053
  26.4068460  22.3827076  70.3907204  26.4162946  23.7948751  70.9354067
  46.1125422  18.3105290  79.5119858  45.7377243  18.8981879  78.8559389
  45.6124020  18.4901869  80.3081131  17.3083270  32.7349758  78.6353827
  17.4841261  33.1406832  79.4843435  17.0675159  31.8328905  78.8462973
  36.8280005  74.4881678  55.9062052  37.6539111  74.0175629  56.0186100
  36.7517734  75.0292635  56.6921043  41.0356665   1.2187499  65.9894705
  40.6581259   1.6260907  65.2098751  40.4607773   0.4759578  66.1738443
 109.6257452  96.3357279  73.0435705 110.4092196  96.0368738  73.5051823
 109.3116192  95.5605057  72.5781775  40.1164103  31.8567562  76.5640116
  39.6171761  31.2136984  77.0674706  39.4512677  32.3746920  76.1106253
  23.3623981  58.1264544  83.5914707  22.6779842  57.8972483  82.9627609
  23.2100630  59.0514803  83.7847233  21.7321372  72.4545813  90.0896263
  21.2682414  72.5063658  89.2539501  21.9778299  73.3591413  90.2836323
  75.1771836 100.0461034  11.9126626  74.5415501 100.5062703  11.3645288
  75.6925301 100.7431916  12.3185178  28.5847378  30.3250790  54.3366623
  29.5347071  30.3089952  54.4529867  28.3320570  31.2225223  54.5534039
  59.9811316  29.2862415  56.7062855  59.3833542  29.0982413  55.9827232
  60.7043219  29.7649860  56.3012743  30.3500509  10.2585304  87.6733303
  30.4058194  10.1355457  86.7257023  29.9792004   9.4387150  87.9998398
  20.1442409  36.8693328  88.2373714  19.7699273  36.9023681  89.1177273
  20.7439661  37.6146173  88.2039833  30.4387951  44.0504408  73.1045866
  30.8160472  43.3392715  72.5867462  29.5453095  43.7625504  73.2917595
  13.1320584  31.9263983  88.5077477  13.8603950  32.1638703  89.0816498
  12.9491007  31.0109639  88.7192535  40.9259987  20.6000805  53.3392191
  41.2572575  20.1647258  54.1246939  40.3772783  19.9412942  52.9136181
  88.1096128  99.4352285  78.3175087  88.6190490 100.1474658  78.7040663
  88.5289077  98.6378691  78.6409950  56.7606640   0.0788214  82.8500175
  57.3603106   0.5787271  83.4038639  57.1238136   0.1615300  81.9682503
  32.7772999  30.4662442  77.0003271  32.7530289  29.6663952  77.5255775
  32.8000426  30.1574111  76.0946035  49.4731665  27.9881048  31.6537523
  50.1727962  28.3963895  31.1438012  49.6655464  28.2288218  32.5599957
  91.9161420  88.7544302  14.6327230  92.1479039  89.6671895  14.4613000
  92.7439599  88.3381680  14.8728868  14.6049869  14.3526006  59.1059303
  14.2991388  14.9288440  58.4054756  15.1245379  14.9212587  59.6741962
 100.6249901  24.9315166  50.8116007 100.7269820  25.6919312  51.3839626
 100.8674868  25.2515292  49.9426842  46.8774033  56.3267946  86.9147968
  46.7892790  55.9523439  86.0382938  47.8203726  56.3324499  87.0791340
  10.9471273  28.9827514  76.1131001  10.9192264  29.9006271  75.8429956
  10.6837201  28.4952831  75.3325748  41.6816854  27.8374410  89.3963337
  42.4822187  28.3601928  89.4422626  41.5398645  27.5371814  90.2940845
  88.1754260 100.8333711  29.1361829  88.1268554  99.8809794  29.2187806
  87.2644286 101.1241797  29.1779825  87.5258002  12.6782072   7.7839776
  88.2530603  13.0032194   7.2532388  87.0381090  12.1023882   7.1950647
 104.2318501  13.0346286  83.4674549 104.8377826  12.5831687  84.0550423
 104.0756591  13.8801849  83.8880157  46.0944557  30.8056307  63.4297037
  45.1529455  30.9431553  63.3253813  46.1980009  30.5407929  64.3436909
 100.4669365  11.7437041  84.5345211 100.1843902  11.6872084  85.4473209
 101.4193930  11.8254614  84.5832443  33.4897470  47.4641562  69.5093346
  32.9261923  47.0704985  68.8432455  33.7719870  46.7267990  70.0505114
  76.4652452 100.9144831  64.2065620  76.6819776 101.3471780  65.0324154
  75.6622613 101.3455001  63.9138603  17.6047277  25.3886390  53.2238960
  16.8509316  25.3062701  53.8080502  17.6615763  26.3256764  53.0369139
  16.3967192  52.4226475  87.7904224  15.7124329  53.0436182  87.5406647
  16.0163665  51.5625668  87.6120281  71.6317038  92.0458654  12.3071977
  71.0718374  92.6457099  11.8142816  72.2152095  91.6677073  11.6493627
  43.5649920  11.4775741  63.0717230  42.7795076  11.6821742  62.5643921
  43.8969946  12.3300278  63.3533764  68.6413460  74.4617681  13.2756063
  69.0715627  73.9204482  12.6136991  67.8342299  73.9906720  13.4826490
  14.4772048  99.9261159  80.5041695  14.6144290 100.4912702  79.7439051
  15.1613517 100.1849109  81.1215878  72.3269920  73.8825087   2.9095479
  71.8919306  74.6699480   3.2364961  71.6225819  73.2412938   2.8153249
  25.0273991  18.2971764  82.2086716  24.1829324  18.7465394  82.2430420
  25.5971122  18.8946772  81.7242622  52.3047702  97.2567681   1.7583009
  52.8570907  97.0169620   2.5023862  52.6531153  98.0979041   1.4627096
  90.5413918  72.3542289  15.1067277  90.2686934  72.1268670  14.2178174
  90.5628638  73.3111648  15.1132985  16.9073331  40.7142019  79.7803640
  16.6568303  39.8134041  79.5753098  16.2004566  41.2479019  79.4174337
  54.1735506  37.4845457  80.0079155  55.0480795  37.8290296  80.1889133
  54.1250706  36.6749692  80.5163097  23.4969640  35.6716776  89.4463634
  23.6347389  34.7283673  89.3602562  23.1235623  35.7803416  90.3210068
  88.2429890  51.7431734  12.3969098  87.2980408  51.7451004  12.2442743
  88.5810666  52.4234591  11.8145486  18.8773370  39.9370265  61.3139725
  18.6799073  39.4367242  60.5221701  19.3841720  40.6871843  61.0031509
  41.1026573  52.9371309  86.9466305  40.5397749  53.7012196  86.8218803
  40.5988455  52.3595667  87.5200653  14.4946766  20.0959754  81.6459084
  15.4463100  20.0736356  81.5452671  14.2208636  20.8750486  81.1618614
  89.7482387  81.6658584  54.2823887  90.3795234  82.3598853  54.4722176
  88.8959686  82.0997325  54.3226576  52.7744150  46.4615822  85.7432747
  52.9749155  46.3264561  84.8171139  53.4654474  47.0459080  86.0551548
 103.1163844  25.6867218  75.8099604 103.5333624  24.8621607  75.5600452
 103.8428523  26.2536216  76.0689974  54.1417138  67.5597695  12.4207612
  54.9228101  67.0089785  12.3683282  54.4589763  68.4435944  12.2352144
   1.2293041  53.4178162  88.3921814   1.6991332  53.1764460  87.5939083
   0.4075281  53.7973595  88.0809498  11.2286167  67.1828011  14.0153333
  11.3510279  67.5886706  14.8735448  11.5606670  66.2914447  14.1223832
  32.0403934  19.7292662  61.7346001  31.3520646  19.0643477  61.7167616
  32.2444105  19.8379374  62.6634693  17.2083950  39.2239118  88.7883663
  16.8988907  38.5343456  89.3756771  18.0577934  39.4807768  89.1472149
  87.7331881  95.9121207   8.0710431  87.4515920  96.3391332   7.2619745
  87.7424435  94.9788360   7.8586122  97.8392367  68.7725834  43.4474202
  98.5884909  68.9853291  44.0038320  97.8999524  67.8264812  43.3153745
  25.5121613  40.5546904  77.2808266  25.5276942  40.5939817  76.3245583
  26.0967708  41.2597179  77.5590324  49.8286247  26.4134121  73.1281853
  50.4549408  26.9734907  73.5867310  48.9815283  26.6344953  73.5152054
  83.9244238   0.7493627  43.4576436  84.6802983   1.2861097  43.6959478
  83.7338272   0.2407253  44.2458078  40.2834845   0.6506130  61.6895056
  41.2100840   0.5317863  61.8981409  39.9570823   1.2354384  62.3733711
  17.8807159  93.2948247  78.1684399  18.7707372  93.2230464  77.8235579
  17.8097482  92.5783208  78.7991667  78.8404469  75.2864222  27.0124837
  79.2245011  74.7534780  26.3162729  77.9411845  75.4441742  26.7249509
  26.9374728  46.1115885  63.4061527  27.4419546  45.5825377  64.0240765
  26.3538599  45.4863930  62.9763222  54.8106437  75.8067326  17.6406022
  54.6520727  76.2354831  16.7996141  55.2598195  76.4688233  18.1660672
   2.9543570  20.2880645  58.2649899   2.0159975  20.3670049  58.4366894
   3.2011041  19.4528723  58.6622334  12.3201991   1.4239681   1.7100831
  11.6127730   2.0322168   1.9241353  13.1026984   1.8234337   2.0900174
  24.4224072  30.3048754  70.5583048  23.5045838  30.2903008  70.8296347
  24.8939538  30.6285763  71.3258266  30.7987189  22.5672174  60.0832605
  31.3926077  23.1811714  60.5152178  30.9815073  21.7245603  60.4988861
  66.9484620  36.4691404   3.9161130  66.2395434  36.8899051   3.4296724
  67.7265100  36.6121272   3.3772012   0.7740874  98.3613256  62.2100449
   1.6190524  98.6565862  61.8707991   0.4377861  97.7717761  61.5350866
   4.5556017  78.1668500   0.8194753   3.6421057  78.1484512   0.5341455
   4.6418759  78.9939932   1.2934133  16.0234543  52.3095866  13.2548829
  16.9177815  52.5065127  13.5335084  15.4880234  52.9827286  13.6749193
  72.7255206  94.4824771  13.2198926  73.1382732  93.8490561  13.8069650
  72.0784478  93.9718131  12.7333280  15.1488185  43.0496836  84.1429043
  14.9846005  43.1330633  83.2035923  14.5692444  42.3422527  84.4255066
  53.9837360  24.6390605  90.1306915  54.6941519  25.1735663  90.4854393
  53.9732885  23.8574028  90.6830788  82.6884179  77.0739297   2.2365876
  82.6817136  77.8501133   1.6764757  81.8170361  77.0566157   2.6323434
  68.3304977  27.2978473  49.5652246  68.0495644  27.2487998  50.4789543
  68.6673784  26.4232039  49.3709469  65.6803565  56.7066995  23.3879873
  66.3380198  56.2727649  22.8444692  65.1486091  55.9915546  23.7373372
  21.3383055  17.5848567  17.8529942  21.5743375  18.5008788  17.7066243
  22.1218634  17.1945500  18.2402027  52.0936346  41.1292458  58.5389757
  51.4293289  41.4825106  57.9472589  52.4396181  41.8959856  58.9957476
  28.1350254  92.9574946  22.3032781  27.9274337  93.1360940  23.2204648
  28.8909827  92.3713926  22.3385450  41.6008186  44.5180511  83.5124683
  40.9380484  44.0525484  83.0022907  41.6899633  44.0040541  84.3150234
  32.3252511  38.0216146  85.7543945  33.1124449  37.5223160  85.9717846
  32.4323893  38.8518167  86.2186337 101.8306069  64.8819427  36.1392232
 102.1258168  64.5373360  36.9820329 101.7640309  64.1112796  35.5754110
  20.6995177  18.0970359  53.0827379  21.0244727  17.7479696  52.2528028
  20.4277587  18.9913595  52.8764248 101.3469168   7.8551507  46.1927462
 101.0652884   6.9510996  46.3327789 100.5317672   8.3485353  46.1014509
  68.8665771   0.3488318  61.2439919  69.7242212   0.0819475  60.9131527
  68.4621286   0.8150813  60.5123758  57.6152563   7.8665280  83.4313869
  56.7528296   7.5957274  83.7462234  58.2307434   7.4692488  84.0474892
  22.6426148  40.1687908  76.1274338  22.9178166  39.2527580  76.1645365
  21.7057371  40.1298141  75.9351492  21.3288784  31.9154310  78.2431602
  21.8490505  32.3016167  78.9477968  21.4362741  32.5187731  77.5078535
  98.8047223  75.7166413  13.8354226  99.5205455  75.0867514  13.9194986
  98.1497435  75.2652172  13.3030244  80.5627732  84.5987872   8.7688848
  81.1469798  84.6303228   8.0112954  80.3159480  83.6769179   8.8427945
  48.2012701  33.4644747  67.7181625  47.8208828  34.0408087  67.0553064
  47.8714228  32.5937390  67.4962330   5.4092431  15.1946676  51.8266678
   4.7828251  15.2604687  51.1059046   5.4529744  14.2584801  52.0212746
  39.2958546   8.3141327  60.1065159  40.1488256   8.6148572  59.7930908
  38.7858105   8.1680912  59.3097973  17.8487980  67.6281118  24.9340343
  17.4905396  68.4822750  24.6925998  17.1902585  67.2478104  25.5153489
  24.3815970   8.7970161  49.8984385  23.8426638   8.2328391  49.3439245
  24.1150427   9.6864802  49.6659851 102.5438026  97.4998579  59.6177149
 103.4093264  97.9084012  59.6315622 102.5696448  96.9094602  58.8647223
  42.2731209  17.5161743  86.0757256  42.2761297  17.5049424  87.0328522
  42.2477436  16.5926242  85.8254337 109.0538935  92.3484901   8.8609239
 108.6208014  92.7798203   9.5975515 108.3378033  92.0848993   8.2830259
  43.6793804  45.2617884  78.2333660  43.1060648  45.9049416  78.6503792
  43.1911659  44.4397879  78.2801533  83.5625318  31.0140980   4.2354604
  84.4676015  30.8395851   3.9773485  83.1278149  31.2743938   3.4233686
  23.4419131   9.3210644  74.5504189  22.5550985   9.3422127  74.1907740
  23.8348889  10.1467299  74.2674351  16.0201030  60.5340944  25.3231641
  15.8645229  59.7554068  24.7886773  16.9637828  60.6821505  25.2617093
  57.6991367  10.3291225  86.4205551  57.2949409  10.8855224  87.0863438
  57.7526569   9.4656962  86.8302727  83.7085109  82.2841791  17.4333211
  83.8081221  81.4041189  17.0702668  83.3814435  82.8090528  16.7027208
  22.4349475  52.5683451  79.9735928  21.9416881  52.6288795  79.1555071
  21.9987392  51.8725634  80.4653645   4.1349317  17.6462877   3.6019441
   3.4008170  17.9881037   3.0915853   3.7241651  17.1429480   4.3049070
  35.5323482  19.7423542  67.2233677  36.3873076  19.5668161  67.6163816
  35.4265428  20.6910682  67.2939348  33.7745929  49.3490553  40.8003235
  34.6851444  49.1251373  40.6080103  33.2881403  48.5429287  40.6278419
  14.7185565  14.4062126   4.6482774  13.7870027  14.2763412   4.8259755
  14.7492744  15.1784552   4.0835401  87.7859979  96.6488198   2.9788038
  87.0232730  97.0015172   3.4371587  88.5138898  97.2004012   3.2654401
  21.0802984  32.8358054  69.5044851  21.4119911  33.3044839  68.7386179
  20.9414625  31.9404507  69.1957903   4.7631832  72.1526412   8.7156793
   4.0515085  72.2407500   9.3497106   5.5561730  72.3392085   9.2182657
  40.0608158  24.1425681  79.3931437  40.0629330  24.2294264  80.3463936
  39.6926212  23.2737207  79.2326212  30.1863813  43.3119106  65.5446482
  29.9258876  43.4865904  64.6402931  31.1149669  43.5421896  65.5751610
  72.8932381  78.9067650  69.8339748  72.1324539  78.5966825  70.3251839
  73.5555649  79.0806150  70.5028009  12.3470700   4.4609734  45.1404333
  12.9775739   3.7409839  45.1227665  11.9990909   4.4527861  46.0320997
  15.5441142  17.3614920  33.6656781  16.3134767  17.5958193  34.1847249
  14.8025943  17.6860607  34.1765901  85.2882724  86.3032512  31.9082662
  84.5742898  85.7252625  32.1773168  85.1443772  87.1088151  32.4048444
  61.7953348  23.6680770  49.5753145  61.5329981  23.3677959  50.4455137
  62.2093534  24.5171905  49.7296715  46.9965696  23.5353947  79.6544552
  46.4347363  24.0110993  80.2662373  47.8356314  23.9944100  79.6933556
  26.7366649  11.5331352   7.2264978  27.6542474  11.3221491   7.3989984
  26.4122058  11.8860567   8.0550023  63.9527655  69.4121122  82.5947762
  64.6645260  69.3906736  81.9551086  63.2798576  69.9566126  82.1861839
  14.6968751  98.4291247  11.0548326  15.6466465  98.5423593  11.0914441
  14.5050244  98.3146123  10.1240751   3.3627191  40.4309750  80.7864285
   4.1822252  40.1189232  80.4026699   3.5430798  41.3386869  81.0308933
   7.2395703  77.5379995  41.5119382   7.2018048  77.0643357  40.6810018
   7.0938584  78.4532980  41.2727090  95.7857403  17.5072468  12.8488084
  96.3449773  16.7967832  13.1630155  96.2712392  18.3049906  13.0588647
  35.5505610  40.1219225  64.7075701  35.2960277  39.6622181  65.5076456
  36.3750005  39.7111106  64.4472599  39.2721391  36.1413169  53.7153673
  39.8641610  36.7733932  54.1230679  38.8786292  36.6184211  52.9847813
  50.6295109  32.2401857  71.6484642  50.2889776  33.1183910  71.4781094
  51.2751055  32.3644233  72.3441696  12.3335172   8.4444607  10.7403203
  12.5066806   9.3635786  10.5366727  13.1355954   7.9877270  10.4867574
   0.8256098  84.9942903  46.4464017   0.0487181  85.3515581  46.8765470
   0.4827067  84.5153598  45.6918927  47.2161674  43.0067539  41.1568403
  47.6149511  42.3804379  41.7609406  46.2767172  42.9391479  41.3274002
  55.8210783  99.6132545  31.2209817  55.3219073  99.7346715  30.4133245
  56.7242770  99.8156432  30.9770509  80.4540305  83.4339813  41.7011186
  80.7175736  84.2389134  41.2551805  79.6538930  83.1620888  41.2515756
  27.7691078  72.5276518  81.6079521  27.9236841  73.0758667  82.3772335
  26.8634534  72.2324800  81.7022610 105.6235728   0.4165209   9.0869161
 106.4273080   0.8383263   8.7830755 105.0301561   0.4637945   8.3373472
  52.2661547  76.9757394   3.9350244  51.9730465  77.0071749   4.8456975
  51.5583210  76.5287761   3.4708902  26.3511658  58.7407207  70.5736494
  26.9636917  58.0117607  70.6719398  26.9095826  59.5149708  70.5033493
  17.3063136   8.9212358   9.2123052  16.6905118   9.6532238   9.1774484
  17.9101230   9.0814722   8.4870740  23.0509186  40.8529329  66.2796116
  22.1928763  40.7887983  66.6989946  23.6456633  40.4051876  66.8812990
  71.0689883  90.1101474   2.4386426  70.7121186  89.7137217   3.2334539
  71.8979649  89.6537189   2.2947618  59.2419958  37.1305871  70.2080011
  59.8196363  36.9680405  70.9537506  59.0148020  38.0577445  70.2786493
  24.3518353  77.5643730  49.7970772  25.1983905  77.4757433  50.2349377
  23.7445998  77.0697498  50.3473902  61.4131641  23.6012316  78.2164621
  61.5657234  22.6579714  78.2732058  60.5903006  23.6821866  77.7341986
  38.3751321   0.7764546  81.2045383  39.1406488   1.1317548  80.7528973
  38.2067275   1.3962293  81.9142914  99.1080336  91.1318711  45.3708097
  98.8533883  91.1852173  44.4496461  98.3035998  90.8864526  45.8278486
  59.3780088  39.4862962  71.3661289  59.2720604  40.4143333  71.5752888
  59.9167871  39.1403985  72.0776796  90.6221537  85.8455996   5.6631395
  90.6090836  86.0821632   6.5905591  90.7248311  86.6795567   5.2046605
 109.0276026  23.6931586  76.6958666 108.8592937  24.4771552  76.1731291
 108.2573404  23.6102104  77.2580481  67.6246648  69.8190443   6.9438001
  67.6569824  70.7708291   7.0402070  67.5874381  69.4885198   7.8413507
  51.5975475  39.1448832  24.6413565  50.7736015  38.6577344  24.6357036
  51.3436317  40.0424719  24.8560500  69.4854069  22.5131416  67.1769285
  68.8940907  22.2214699  66.4830256  70.3226757  22.0989752  66.9679260
   8.1042814  40.8782721  79.3090200   8.8866407  40.9461260  79.8563242
   8.4305835  40.9631491  78.4131670  17.3881602  21.2334895  67.3693275
  17.7355063  20.3790069  67.1135092  18.0893540  21.6326404  67.8843403
  43.0746222  16.1659837  44.4704771  43.0465317  16.3987935  45.3985071
  43.7877464  15.5309165  44.4043350   7.8421737   4.0287245   4.6214792
   8.6706973   3.9634264   5.0963708   7.2239877   4.3752659   5.2648946
  49.6683216  23.2199597  66.4377165  49.3455267  22.3228931  66.5231943
  48.9955759  23.7574387  66.8557644  60.6316328  15.7742715  75.7705736
  61.2679482  15.0811589  75.9464502  59.8342800  15.3088927  75.5178308
  72.7557564  54.6148920  80.7267475  73.1517410  53.7469292  80.8046150
  73.0796671  54.9518633  79.8914194  61.5595298  94.6861485  11.9536420
  62.2319465  95.3632621  11.8787977  61.8976955  94.0851144  12.6174470
  47.0540428  32.1326947  74.4174385  47.6525736  32.8745222  74.3297672
  47.4426842  31.5912747  75.1044989  17.4424398  25.3907156  83.4501076
  16.6681206  25.8118320  83.0768490  18.1647611  25.6805944  82.8929234
  33.5631275  55.5448771  91.1636543  34.2047501  55.0622988  90.6424332
  32.8100538  55.6472063  90.5817318 104.7559294   2.3318708   2.9765626
 105.4772434   1.7558086   3.2297250 104.7596368   2.3139131   2.0195409
  57.1323633  36.0083032  66.9756937  56.7768240  35.2367067  66.5347147
  56.7135143  36.0065269  67.8363848  98.7712340  79.5710591   8.7913534
  99.4747453  80.1384953   9.1065141  98.3849387  80.0523428   8.0596658
  47.7771092   8.0927265   6.6366407  47.2753621   7.2869051   6.5136358
  47.5706864   8.6232317   5.8671018  37.0012736  43.0109549  66.9947863
  36.6706657  42.6200485  67.8035641  37.5140190  43.7651682  67.2854519
  15.9273553  30.3049445  54.8389578  16.4275169  29.8324060  54.1735411
  15.6379390  31.1039948  54.3985176 104.2173581  82.3691777   5.5427762
 104.3573623  83.0706099   6.1788770 104.8214917  81.6773514   5.8122751
  35.7694459  19.3014240  62.3826694  35.9548855  20.2031398  62.6448774
  35.2702069  18.9372718  63.1136847  53.8384962  33.4670520  82.1593475
  54.6786213  33.0809426  81.9116879  53.5137272  33.8704944  81.3543701
  51.2080240   2.0383772  60.5563879  51.6626692   2.3573890  61.3359785
  51.6255951   1.1992429  60.3621674  55.8862543  33.1411171  88.4302807
  55.8245564  32.1995831  88.5913372  55.6377029  33.5432744  89.2625809
  22.1100187  38.4031630  73.7228584  21.3254786  38.0551887  73.2990170
  22.1620226  39.3105435  73.4225416  81.1565165  88.5986475   2.9271337
  80.4853158  88.0590729   2.5093099  80.6649785  89.2812685   3.3839246
  34.8497677  49.5720816  86.7798805  35.5873013  49.2133999  86.2863064
  35.2487254  49.9595261  87.5589561  40.4783516  80.5767135  17.9849931
  40.0611852  80.0515369  18.6679193  41.2374668  80.9700159  18.4154435
  94.3599991 100.9573681  52.9191303  94.4318274 101.6935540  52.3115921
  94.3836764 101.3600165  53.7872028  86.6187863 103.6607293  29.3482801
  87.3857264 103.4761695  28.8060876  86.3828473 104.5624522  29.1304323
  94.1005902  90.3510455  24.8063489  94.6672015  91.0816244  24.5584699
  93.4552483  90.2985481  24.1013547  52.0923139  26.8783272   5.5178853
  52.4580098  26.1219919   5.9766313  52.7564622  27.5608910   5.6140252
   0.8745859  44.8816586  83.4912872  -0.0284662  45.1559114  83.3315563
   1.4037909  45.4832411  82.9675770 111.5088281  18.4771145   9.4846841
 111.5982375  17.6788748   8.9640542 110.6138072  18.4437979   9.8224088
  51.2915850  28.4376550  87.2560024  51.0835791  27.5537515  86.9532108
  51.3636875  28.9548635  86.4538002 111.0400204  99.1387443  41.4585992
 111.1178021  98.4199409  42.0859071 110.9987788  99.9264554  42.0008584
  63.8166046  37.8215480  78.6656284  63.1689310  37.1273088  78.5440350
  63.4631157  38.5666585  78.1797457  13.0118275  49.3260002  55.7974625
  12.1888018  49.7564077  56.0290003  12.7476788  48.5713148  55.2712440
  28.4892917  20.8882594  76.1894131  28.4967256  21.5972710  76.8324375
  27.5646091  20.7732177  75.9704161  62.3383093  31.7422247  58.2811975
  62.7504063  32.6029873  58.3553171  62.3292780  31.5611386  57.3413229
  41.1667204  38.4333777  87.0385647  41.0675764  38.1833386  86.1199284
  40.3552961  38.1426334  87.4548340  83.4152894  96.9941548  23.1562635
  82.6813655  97.1283463  23.7559148  83.0131297  96.9655446  22.2881242
  34.9268341  42.7659369  65.0143385  35.0810790  42.0962000  64.3480825
  35.6613660  42.6737785  65.6211329  10.4386712  23.9791572   9.6149751
   9.6988631  23.7148321   9.0681192  10.3127910  24.9183071   9.7505590
  41.8592119  28.6486077  76.2812567  40.9453058  28.5217762  76.0264540
  42.3518610  28.0644727  75.7047844  41.8157053  33.6705256  51.3576317
  42.2022820  32.8227091  51.5767145  42.5018358  34.1282821  50.8719206
  32.5225401  37.2766209  67.8138494  32.2839141  36.5523958  67.2352409
  32.2863889  36.9712090  68.6897421  27.3136401  36.9622278  76.5267467
  28.2070661  37.2925496  76.6211319  27.1382928  37.0109630  75.5870056
  41.0259104  42.1420622  81.5624046  41.4875031  41.5147734  81.0059261
  40.3958511  42.5628519  80.9774303  27.1468234  30.3031564  78.7100077
  26.8348956  30.1268816  79.5976210  27.7539253  31.0363197  78.8106728
  27.3727369  11.4893556  35.8342171  28.1981111  11.1101019  36.1361408
  26.7416716  10.7726312  35.8997416  19.3410563  31.8326640  76.0981321
  19.8703647  32.5780678  75.8145189  19.3309414  31.8956733  77.0532036
  30.5854655  12.0113409   1.4706155  31.0794545  12.4521768   0.7793351
  30.2102042  11.2414778   1.0431501  37.2904325  71.9461155  89.1127491
  36.8858480  72.7159119  88.7127972  38.1922436  71.9556189  88.7919998
  30.9276677  28.7835491  47.0534917  30.2701284  28.0890453  47.0142385
  30.4275657  29.5761288  47.2483083  18.3939076   7.1057403  11.1022207
  18.8787604   7.8485191  11.4619848  18.0981875   7.4063242  10.2429029
  18.1443072  12.7513588  18.2466718  17.6016856  12.1003902  17.8016683
  17.9445697  13.5746372  17.8010866  54.6567965  56.9354343  46.7655659
  54.3068933  57.5910282  46.1622429  55.3896570  57.3743296  47.1974468
  77.7391438  87.2322659  40.3110811  77.7692275  87.5920633  39.4245836
  78.2370095  86.4166216  40.2555486  11.8749852 103.0583863  77.0166826
  12.4763246 102.9584437  77.7546740  11.3370795 103.8159323  77.2469234
  68.9319086  37.7016735  80.3605747  69.1200542  37.1973777  81.1521053
  68.0412245  38.0274272  80.4901981  97.7641778  71.7208663  27.2357770
  98.3300500  71.0519997  27.6213094  98.3699326  72.3544590  26.8512555
  71.7217784  77.4020866  30.8947202  71.4214091  77.3565272  31.8024274
  71.4335780  76.5765218  30.5053445  45.5127192  10.5606592  70.5257654
  45.4913235   9.8352909  71.1499548  46.2637568  11.0882962  70.7973814
  58.2693577  33.8322568  72.1159554  58.6927319  33.4939289  71.3269520
  57.4029160  34.1127729  71.8213081  51.2058258  31.3140035  66.7527819
  50.3753042  31.7882323  66.7131567  51.0791111  30.5604720  66.1762714
  97.6469951  89.6459965  15.1979371  97.4688821  90.2841166  15.8888170
  98.3970361  90.0074033  14.7256490  70.2991056   5.0860655  87.6500225
  70.3434181   5.4410714  88.5378456  69.4289303   5.3326625  87.3366261
  69.5695591  35.7865715  73.7473965  69.5163822  36.0597706  74.6632385
  68.8811350  36.2859201  73.3081388  53.7794590  41.3010120  82.4292946
  54.6896267  41.4770555  82.1908855  53.7522793  41.4242077  83.3781433
  27.2571254   3.4187636  60.7243729  27.6887989   2.5666627  60.6626177
  27.2800612   3.6318269  61.6572762   7.1256852  16.1685550  65.0220728
   7.9827905  16.0633826  64.6091080   6.5074021  16.1786568  64.2914200
 106.9159751  90.8813886  10.5802652 106.9231610  91.8367270  10.5210325
 107.1877723  90.6950788  11.4789506  28.7751079  57.2362995  71.0772610
  29.5570278  56.9953156  71.5740108  29.1025257  57.7918148  70.3698492
  22.3278237   1.4361418   5.5463620  22.2359801   2.0467317   6.2777826
  21.4636136   1.0336817   5.4603692  50.1008749  29.8645258  73.2316780
  50.3645897  30.6463885  72.7465200  49.2705250  29.6040273  72.8330612
  45.8238935  41.4885378  70.6099415  45.4865265  40.8892393  69.9441671
  46.7545509  41.2744761  70.6753922  30.1808786  43.9265776  68.2374191
  29.7850943  44.7879744  68.3700132  30.1343250  43.7845755  67.2919559
  59.1477394  37.8634286  83.4970379  58.8278294  38.7652230  83.4714127
  59.2968082  37.6884794  84.4262314  79.2632298  90.2224092   4.4490548
  78.6129384  90.8897571   4.2299768  80.0121407  90.7175950   4.7809526
  23.8276935  42.3289680  87.7056885  23.8495040  41.4981461  87.2308254
  24.1025519  42.9807234  87.0607758  58.4428310  19.5024705  65.4103136
  59.3070412  19.3875301  65.0151443  58.4057283  20.4311585  65.6392050
  28.5745072  68.0379915  71.7603111  27.9251027  68.2484913  72.4312782
  28.2802606  68.5148144  70.9842396  66.2942553  27.5928283  82.5261307
  66.9456720  28.0617714  82.0046139  66.6800117  26.7288017  82.6706409
  24.1233344  88.0919353  77.7669287  24.9230428  88.6132196  77.8374100
  23.4148545  88.7199584  77.9079103  67.7996969  46.5235043  71.7196465
  68.6977386  46.5698051  72.0476866  67.8229618  47.0000267  70.8898163
  39.3440914  41.3472700  38.1338525  38.7873626  41.5386248  37.3790884
  39.3582726  42.1632719  38.6340261  84.9312496  44.8381233  73.7902689
  84.5030785  45.6934071  73.8275576  85.8511353  45.0222969  73.9803219
  16.0471702  65.2534485  82.8349209  16.9537187  65.3275490  82.5367355
  15.5665195  64.9464417  82.0661831  62.4228124  92.6890162  31.9731160
  63.0803137  92.0114116  31.8157026  61.6542892  92.3952798  31.4839097
 100.0792602  87.6662508  88.5799980 100.1990656  88.6055044  88.4397030
 100.3409437  87.2650043  87.7512836   7.1247602  57.2377682  78.5864973
   6.6301382  56.5554762  79.0404367   7.5741136  57.7130127  79.2853928
  23.0651689  15.3775442  89.4854069  22.2138309  15.3328311  89.9206734
  23.2980895  16.3056576  89.5096016  53.1229877  30.9359503  60.7873297
  53.6651134  30.2051377  60.4902697  52.2341871  30.6973696  60.5240059
  30.1610852   6.1546982   0.0652334  30.7158090   6.6549528   0.6637784
  29.2876483   6.5295732   0.1783773  42.9431725  81.3874054  81.3232613
  42.2057629  81.1806107  80.7490635  43.0176640  82.3408699  81.2834835
   1.7215038  22.4276960  24.7794458   1.8067409  22.6625622  25.7034608
   2.3976542  21.7652309  24.6373483   7.4710370   1.3585747  21.5547201
   7.8273488   0.9852875  22.3608991   8.2342816   1.4830387  20.9906312
  88.4606171  90.6395340  75.3986740  89.2595673  90.7305717  75.9179306
  88.6475945  91.1108971  74.5868301  79.6155600  90.4729990  38.7990495
  79.0666346  89.7788052  38.4343454  79.1031031  91.2722901  38.6775800
  69.5040369  51.7602444  68.2084894  69.9316216  51.2494421  68.8958693
  69.6122932  52.6705074  68.4840488  88.4667683  75.8301353  63.7659836
  87.9634571  75.3424883  63.1139803  89.3404007  75.4402256  63.7348270
  53.2222367  18.6860359   3.5178491  52.5169755  19.3331993   3.5135576
  53.0060483  18.0914200   2.7995702  23.1653501   3.9351213  22.7794763
  22.8062154   4.2170179  21.9381830  24.0289641   3.5823429  22.5651285
  91.6966729  94.9910907  20.1909562  90.8747773  94.5015601  20.1581117
  91.7314105  95.4571513  19.3556043   5.9037300  97.1369580   4.0242025
   6.1196896  97.7313737   3.3056947   5.3826710  96.4460496   3.6150953
  17.7858354  46.9825256  10.4108354  18.6243487  46.9707096  10.8723375
  17.6064540  46.0626018  10.2164384 106.2504678  98.2661227  18.2616540
 105.9494786  98.9978055  17.7228853 106.3970141  97.5543336  17.6386663
  25.7872535  14.5732916   1.5112611  25.1383735  13.9390552   1.8161126
  25.7812215  14.4829262   0.5583593 108.6129050  79.0673617  16.0476419
 108.0972390  79.4967941  16.7302152 108.1330018  79.2435221  15.2383920
  31.6131927  30.4009521   2.4335405  31.9818021  31.2713230   2.2825166
  30.6686641  30.5467976   2.4867364  72.8845787  40.5972481  87.3376560
  72.0696115  40.1559734  87.5771046  72.6072788  41.3318586  86.7902184
  20.2623368  32.9033268   0.8877488  19.5040275  32.6553619   1.4166280
  19.9009849  33.0806148   0.0192853  85.6262736 102.9991034  24.9935552
  86.5763144 102.9476432  25.0984784  85.2775340 102.4540452  25.6989118
  18.3364202   1.9159449   6.9889947  19.1250278   1.4810789   6.6646024
  17.6853276   1.2169493   7.0499440  17.2849190  95.9818363  54.7827959
  16.9039965  96.8496418  54.9171257  18.1425524  96.0287094  55.2052879
  12.9404923  93.5280255  17.1480008  13.2184502  94.0860871  17.8743192
  13.5978600  93.6749057  16.4679166  52.5692225  82.4450016  75.1625919
  52.0365286  81.7636013  74.7525120  53.4470034  82.3101807  74.8054457
  94.4054799  98.1719188   3.4685537  95.1416592  98.7820128   3.4232637
  94.6668534  97.4393348   2.9106637  93.7869458  93.6420087  21.7964479
  94.6169333  93.4367875  21.3660642  93.2792525  94.1043738  21.1295911
  58.3666325  87.8935146  82.3097610  59.1846704  87.6523781  82.7443886
  58.0963707  87.0986748  81.8499756  12.6420876  90.5677442  18.8665601
  13.1137272  90.7397632  18.0515786  11.9273945  91.2044863  18.8686582
  54.6111441  65.7384920  85.1054668  53.7781429  66.1861897  84.9574661
  55.1771164  66.0452986  84.3971062   0.2562476  37.5512207   3.8114473
   0.6276394  37.6115883   2.9313012  -0.3458094  38.2931602   3.8687631
  34.9857045  12.7577579  16.2798997  34.2473413  12.5173319  16.8395826
  34.7535420  13.6196411  15.9342309  63.7762403  83.5859585  85.8093643
  63.1543446  84.3135929  85.8130741  63.5730553  83.1012917  85.0093365
  27.3484660  43.7710655  18.2476732  26.8193484  43.2577694  18.8582441
  28.2498170  43.5054100  18.4299680  42.0532370  74.1981077  57.8165722
  42.8353930  74.6084023  58.1855249  41.3686752  74.3607807  58.4655285
  78.9566660  91.5333366  79.8360252  79.5702696  90.8972263  79.4684792
  78.0967808  91.2362289  79.5384455  42.5451946  63.4856081  71.3643885
  42.8620195  62.9943705  70.6063986  42.3451281  62.8152275  72.0176840
   8.9640523   4.1749704  30.8091184   8.2642509   4.8253668  30.7500383
   8.9938975   3.9388121  31.7362520  64.8878193  95.8208179  72.6483250
  64.9063444  95.8577728  73.6046314  65.6329203  96.3551712  72.3735094
  64.0009260  67.7064514  73.9346552  63.0882120  67.4722862  74.1030359
  64.0115833  67.9856682  73.0191469  73.0896711  54.7448587  83.5265446
  74.0007114  54.4514513  83.5386372  72.8722000  54.8126554  82.5968456
  63.0782938  60.8059549  69.0763998  62.2087240  60.5296278  68.7870598
  63.0459356  60.7382679  70.0306511  75.1242113  79.1836119  74.6696138
  75.2015686  79.4719887  75.5790567  74.1858435  79.0449190  74.5413208
  45.0722504  73.3890009  63.6641645  45.8114624  73.4665871  63.0610275
  44.3029642  73.5729694  63.1251001  14.4405361  67.1103517  18.3491918
  15.3915306  67.0089272  18.3885976  14.3055722  67.9042307  17.8317281
  77.3657846  29.1991901  86.9608307  77.5388098  29.8255444  86.2580013
  76.5987015  29.5515013  87.4121571  30.5551768  16.9799316   1.5212461
  30.5973626  16.0934246   1.1626836  29.8611404  16.9393957   2.1791955
  99.1317329  31.8347443  23.6461278  99.7235975  31.1543262  23.9670106
  99.7107777  32.5451744  23.3700391  71.6135550  76.3407660  85.9234905
  71.4737749  75.4476166  86.2380981  70.8442211  76.5284491  85.3857803
  76.4331388  66.9030190  69.2162609  76.7937040  66.6080809  68.3800554
  76.8531990  67.7486706  69.3732834  95.7251029   1.7105969  86.2226582
  94.8085694   1.4409741  86.1634827  95.8173423   2.0521268  87.1120930
  68.2962370  47.6038933  69.1486406  67.4260807  47.2211885  69.0363789
  68.8250065  47.2030592  68.4587383  38.4781266  28.8443077   9.3521329
  38.0562879  28.0879009   9.7597333  38.2458926  29.5813167   9.9170419
  11.6722203  38.7530125   5.1334878  11.4851857  37.9563606   5.6300756
  10.8175040  39.0424717   4.8142644  63.8597202  45.4863548  67.3885536
  63.8341808  44.7012329  66.8416023  63.2643700  45.2932072  68.1127691
  74.8079395  61.2502384  75.7039165  75.6708717  61.6577482  75.6296396
  74.3734074  61.4569855  74.8764706  12.1563340   6.3250721   4.8314687
  11.9418050   7.2522581   4.9341222  12.3132564   6.2179840   3.8933107
  65.2346659  60.2638054  89.5082283  64.5404720  60.7776976  89.9208355
  65.7702208  60.9103251  89.0484142  35.5295682  75.9469366  84.2494297
  35.3730106  75.9074450  85.1929092  34.7787189  75.4962587  83.8629723
 108.2909966  53.0474091  38.7391090 108.0024052  52.3086500  39.2750025
 107.5050831  53.5816813  38.6245775   7.3479744  86.9874314   1.8863317
   6.5168282  86.5139441   1.9215986   7.5769898  87.1379403   2.8034612
  37.4987841  57.2890568  67.7859783  36.7565179  56.7184353  67.9851437
  37.1709228  57.8810215  67.1089888  60.8366871  13.7075961  87.9106045
  59.9011898  13.5104895  87.8633976  61.2427902  13.0886292  87.3038197
  21.2115189  81.0508541  20.6953832  20.3153893  81.1885742  20.3884527
  21.1155316  80.8215837  21.6197416  35.5936193  67.3212385  67.9293633
  34.6837711  67.1595001  68.1788540  36.0584354  66.5261364  68.1901121
  54.6602440  66.1942625  73.5173368  54.3398046  65.8569336  72.6808214
  54.2820120  65.6080151  74.1726923   8.7897397  10.6946028   8.5552808
   8.2108403  10.2840841   7.9129621   8.5650540  10.2724922   9.3844816
  86.7928314  76.6282892  82.2591209  86.8712902  76.3563967  81.3447094
  87.0412827  77.5526762  82.2562981  22.1194793   9.2956722  17.5762578
  22.7024890  10.0537336  17.6171895  22.5601913   8.6862743  16.9841119
  32.2503902  29.5507133  10.1997014  32.1598579  29.6762550  11.1443063
  32.3209668  30.4373253   9.8459169  61.4174414  68.6329651  85.8741188
  61.3488245  67.7155447  85.6097889  60.9755230  69.1169214  85.1764584
  27.0713616  38.7103928  34.1170999  27.3330594  39.4441593  33.5609266
  26.5920640  39.1163528  34.8393842  24.9934102  16.7527855   7.4438974
  24.3308354  16.0621870   7.4613782  24.8329259  17.2588861   8.2403489
   2.3823930  26.1499584  27.8567144   3.1704427  26.6067350  27.5625058
   2.1129061  26.6208971  28.6452791  19.2096421   2.7528771  91.0643196
  18.6479946   3.4538754  90.7335758  19.2937466   2.1461591  90.3287506
  38.0013824  93.1590462  44.3727493  38.8667679  93.5629177  44.4377613
  38.1185436  92.2816944  44.7371101  47.5385475  83.8223457  82.5031853
  47.6718473  84.3184471  81.6955090  46.6354465  84.0142059  82.7558327
  67.3985720  56.6423082  86.8744469  66.5846300  56.4360380  87.3340034
  67.9834414  56.9690323  87.5581169  69.1360235  66.9169855  78.0432558
  69.5668650  66.8651676  77.1900749  69.6483183  67.5614834  78.5315275
 106.6175661  31.1121643   4.8067590 107.3651132  31.0199154   4.2160817
 106.4469227  32.0536983   4.8318883  99.0671115  97.1420316  43.5341760
  98.6809878  97.6012305  42.7883359  98.8380151  96.2232093  43.3944627
  86.2832245  42.3369110  16.6596624  85.7399687  41.5488327  16.6537782
  86.4065835  42.5496948  15.7345983  53.0262756  76.7050171  83.2648277
  52.8822994  76.3913822  82.3719978  52.2540522  76.4124727  83.7488937
  45.1245023  12.1565473   4.0422651  44.2426396  12.4948824   4.1974183
  45.7037355  12.8054846   4.4417783  26.8578816  33.0026710  16.5883657
  27.6101924  33.5415256  16.8331071  27.1211768  32.1092976  16.8092557
  57.6270914  95.3206539  90.2902031  58.0575895  96.1695099  90.1884174
  57.7804327  95.0824451  91.2045193  53.7392139  92.3126125  49.2324543
  54.2030239  92.8376484  48.5801840  53.7516928  91.4237976  48.8773727
 108.5992241  48.7594509  79.2990398 108.9792156  49.5269966  79.7264910
 108.8027287  48.8767815  78.3711100  91.0229874  91.1805630  90.6407452
  91.7653751  90.9357452  91.1931515  91.2990379  91.9918251  90.2142715
  32.0478463  61.5860653  86.3031673  32.4459362  62.0173836  85.5470467
  32.7829313  61.1776352  86.7604065  89.4998932  70.4045343  90.6531811
  89.9065018  70.8676672  89.9207878  90.2309513  69.9849892  91.1067867
  33.4138347  25.1187838   7.7273103  34.1750861  24.8899067   8.2605478
  33.4481717  24.5119226   6.9878694  59.0339470  65.6539726  73.8825607
  59.3134260  64.9704885  73.2734823  58.1896830  65.3484678  74.2143965
  58.1730653  29.1724384   7.1821042  58.2330705  28.4213627   6.5917608
  58.2280160  29.9348820   6.6060087  85.5336761  63.0728674  50.8324862
  86.3482666  63.3113718  50.3899956  84.8587036  63.5799026  50.3813219
   0.4794289  20.2195871   0.9865781   0.1651074  20.1935423   0.0828286
  -0.3086447  20.3645695   1.5101644  21.2494465 103.1670741  15.7362195
  21.3860222 103.7229995  14.9690648  22.1324249 102.9385070  16.0266324
  82.6272540  97.2107390   6.1330339  83.4849934  96.8808440   5.8652898
  82.2487693  96.5007571   6.6515848  88.9885426  66.4534664  87.6370430
  88.8977718  65.9550428  86.8249035  89.8377037  66.8880510  87.5577164
   4.5462128   8.6660298  84.7348022   4.6680828   8.9438065  83.8269329
   4.3594261   7.7291020  84.6755791  67.9302121  22.1987284  16.0026094
  67.6466466  21.7853105  15.1871892  68.6484433  22.7751959  15.7417222
  40.3037882  69.0616369  82.4639034  41.0230637  69.5070457  82.9116631
  39.5284319  69.2786264  82.9815674  30.5526376  67.4598742  65.7718658
  30.0444579  67.5792503  64.9695396  30.4958439  68.3042002  66.2192106
  77.4116135  79.9731350  47.8854799  77.2947454  79.3950081  47.1315956
  77.6966476  79.3922520  48.5908604  24.3402719  91.0860157  82.9071617
  24.6810341  91.9260406  82.5997829  23.3978868  91.2280464  82.9964161
  27.2942926  19.9942482   6.2692758  27.0078755  19.1715515   5.8725854
  26.4958907  20.5177772   6.3379022  75.7756376  58.7170219  76.7165565
  75.4736757  59.5058012  76.2661362  75.8333254  58.9739609  77.6368189
  85.8342838  58.2718325  72.8116274  86.4364719  58.8936281  73.2202578
  85.2399445  58.8173056  72.2964191  60.9722404   0.2120027  80.4940987
  61.7117052  -0.2342216  80.0814152  60.8633261   1.0155972  79.9855804
  68.9722824  70.0782681  78.2054663  69.7921133  69.5871449  78.2594061
  68.6795092  69.9571514  77.3022223  33.1407714  73.5407495  50.5160427
  32.3284221  73.2079458  50.8975697  33.8340044  73.1276417  51.0308266
  44.4947338  89.3740749  77.0564318  45.2396727  89.9388599  76.8507099
  44.4427252  88.7676525  76.3176632  49.9602985  67.3038721  63.7946653
  50.2773809  68.1079721  64.2058945  50.4349566  66.6030216  64.2415857
  41.7075062  78.5355663  81.5175629  40.8331347  78.3710051  81.8705940
  41.8732357  79.4586802  81.7089367  42.1475316  31.0917080  12.5453302
  42.7824498  31.6737068  12.9629251  41.3000012  31.5059269  12.7076265
  51.8432714   0.2821815  38.8033506  52.4875642   0.5398405  39.4627019
  51.0645295   0.0478065  39.3081876   4.2045642  19.9047411  13.9036390
   3.6673785  19.1592253  13.6355707   3.7312175  20.2877653  14.6421930
 105.4421806  36.6104245  75.3965616 106.2957191  36.6136456  75.8298159
 105.3102589  35.6994176  75.1340818  64.6465158  76.6402435  63.7882328
  64.9801397  75.8829165  63.3072042  65.1176548  77.3862457  63.4171009
  67.4692726  68.8435078  72.6869392  66.6331434  68.7963581  72.2233629
  67.8597736  69.6666670  72.3934317  86.1511421  53.7852573  87.0210552
  86.0303593  54.6519804  87.4089146  86.5207672  53.9595985  86.1554813
  81.3318920  47.2457600  69.6618271  80.6738567  46.7334414  69.1919804
  80.9360790  47.4181461  70.5161428  17.2443859  50.0490379  80.5940437
  17.8058330  50.8095646  80.7444382  17.0746509  49.6998787  81.4689732
  50.1541615  86.1901474  78.7592459  49.2601490  85.9596348  79.0119123
  50.5293369  85.3721428  78.4331322  71.8582249  96.9788265  81.6001701
  71.4503050  97.7689171  81.2457848  72.7960825  97.1702003  81.5942192
  19.6354390  24.0939987  19.5469972  18.7054778  24.2316568  19.7271653
  20.0636626  24.2116726  20.3949376  62.9310274  43.8299274  72.2558498
  63.7116051  44.3822575  72.2126627  62.3977661  44.2225170  72.9470301
  85.2575684  64.6764517  69.3570137  86.1674690  64.7779846  69.0777302
  85.3058147  64.1156101  70.1311970  77.3704720  73.6772251  85.2956200
  76.8710089  73.9740944  84.5349407  77.7139902  74.4812346  85.6852341
  52.8566122  79.4698429  84.6245861  52.5003099  78.6299849  84.9142838
  52.7577305  80.0461674  85.3824139  74.0340281  56.4167309  88.0612373
  73.2540607  56.9666529  88.1351852  74.7286510  56.9294500  88.4745789
  24.5094677   4.7917375  75.6607533  24.8611351   3.9015874  75.6748247
  25.2154919   5.3223809  75.2917480  57.9605198  85.4095268  74.2138529
  58.7575769  85.7429695  74.6258640  57.3461294  85.2947998  74.9388266
   8.4000965   5.1132878  82.2106457   9.1685959   5.4567346  82.6663589
   7.7255722   5.0570020  82.8874588  63.2653761  87.4020100  77.3411512
  63.6933994  87.6409912  78.1632900  62.3490191  87.6479053  77.4678898
  79.2818642  59.2901659  80.8662128  79.3637514  60.2437544  80.8804035
  79.8033094  59.0161943  80.1117229  62.2973680  57.6743364  86.0047150
  62.1951199  57.2034073  85.1776695  61.8302822  58.4989262  85.8701324
  79.3848705 100.5712318  49.8218679  80.1518440 101.1268520  49.6830320
  78.9490843 100.9508228  50.5849075  29.9417211  43.9345920  35.0386449
  30.7947684  43.5281361  35.1914140  29.8312903  43.9096153  34.0881654
  24.3405486   9.4906032  15.6547567  24.3285037   8.5351408  15.5983659
  25.1202584   9.7497023  15.1636907  10.3459598  35.7003200   2.6280423
   9.7440387  35.9788692   3.3182164  10.7428123  36.5128220   2.3140642
  45.3131533  62.5428057  90.4690647  45.3171921  62.4081564  91.4167404
  45.9246635  61.8883133  90.1315403  41.4395238  21.0154426   3.0265828
  41.0552407  20.1936663   3.3319494  42.1628762  21.1808575   3.6312505
  43.6358453   7.9986132  34.7743436  44.3481160   7.4068296  34.5320817
  42.9978181   7.4375904  35.2152559  37.8219748  88.7289238  72.1257448
  38.0351925  87.7961254  72.1001625  38.6468530  89.1688919  71.9202280
  93.4549384  94.5395116  30.7371923  94.1632943  93.9021138  30.8276864
  93.3805756  94.6826009  29.7936746  54.2249203  71.0525417  69.5077085
  54.9891996  71.5723991  69.7564173  53.7069368  71.6375589  68.9548302
  65.7939768  81.7392445  80.5497551  66.0605955  80.8430195  80.7544994
  65.7586813  82.1786594  81.3994026   9.6190215  45.5540169   7.3138734
   9.7185041  46.2189377   6.6325494   8.7490464  45.1845158   7.1627351
  21.4724779  34.6877193  86.9719982  21.9174933  34.2086959  87.6710892
  21.1470103  35.4820371  87.3955154  56.5780164  24.7322643  23.2950422
  55.8779527  24.1250360  23.5346624  57.1455766  24.7594536  24.0653535
 100.4173045 101.0553340   3.9574548 100.0430255 101.9192914   4.1298505
 100.5967192 101.0553197   3.0172178  53.0850316  30.6546677  17.4969217
  52.6836015  30.3374946  18.3059236  52.3538304  31.0046757  16.9879361
  24.3998576  38.8978279  14.8259088  24.1260816  38.5814369  15.6868287
  24.8771955  38.1626976  14.4412443  73.6666536  74.3148088  84.3167496
  72.7756405  74.0347815  84.5263004  74.1666555  73.5005188  84.2605591
  99.9641418 103.0199718  62.2316742  99.4890499 103.2156181  63.0392885
 100.3758621 102.1715260  62.3955345  54.6945953  76.7425632  88.1007957
  55.3116941  76.9788027  88.7933350  53.9533710  76.3518000  88.5635281
  81.2910800   2.2047337  59.6218395  81.9925217   1.7253980  59.1808796
  81.6754155   3.0571565  59.8265219  59.5473337  73.6405182  75.3750229
  58.8201809  73.8430500  74.7864199  59.2142916  72.9389048  75.9345388
  55.9441328  81.7619419  67.3683548  55.0925732  81.7165565  66.9335890
  55.7361221  81.7659950  68.3026743  61.9212056  10.0346983   3.6097547
  61.5150453   9.2388618   3.2663747  62.4997998  10.3306997   2.9070112
  54.5183086  70.5730581  74.1058207  54.1473198  69.8494053  74.6107197
  54.3679428  70.3296423  73.1923819  21.4413978  20.2570284  13.4013673
  22.0136977  20.4476059  12.6581403  20.7580615  20.9257210  13.3551141
  33.4428788  41.1078155  40.8393880  32.9419566  40.3550995  41.1535951
  34.2994596  41.0165680  41.2567254  47.8937960  69.8017550  56.4822006
  47.7363205  69.2055655  57.2143173  47.7243233  69.2733240  55.7022858
  26.9204831  93.9460754  65.9726334  26.6374493  93.7706852  65.0752115
  26.1064816  94.0727139  66.4600754  49.5780993  56.5230513  87.2739697
  49.8236609  56.5837002  88.1971359  50.3454351  56.8442583  86.8004131
  77.1778822  70.8470631  65.2681112  77.4540329  70.1513910  64.6714449
  77.6038599  71.6350698  64.9307346  69.0861464  66.5081167  90.8360958
  68.6247444  67.1392250  90.2837944  69.9503803  66.4241505  90.4332542
  85.8385181  90.9719467  76.8639612  85.8385849  91.9209862  76.7392445
  86.5588474  90.6584644  76.3170671  48.3913613   2.3845709   6.1004754
  48.6300374   1.4795626   6.3010427  48.9911843   2.6408279   5.3999254
 107.6142979  73.0334520  75.4155207 107.4502850  73.9621639  75.2517414
 107.7803516  72.9819107  76.3567972  70.2425861  65.0165224  87.9896641
  69.9111271  64.9962521  87.0919132  69.6950150  64.3889189  88.4613800
  74.9655867  61.9209909  72.9220390  74.9257088  61.3176250  72.1800232
  75.5181837  62.6403236  72.6163912  43.4307241  72.9817057  32.5546122
  44.1815090  72.6321840  32.0746279  43.7579489  73.1199026  33.4434628
 101.3981438  93.9754295  57.8874207 102.3541260  93.9272118  57.8867865
 101.1901093  94.6147728  57.2061110 102.4269676  73.4563065  56.9450283
 101.8777943  74.2401075  56.9622421 102.7493477  73.3699799  57.8421640
  76.1062908  66.2729216  61.9889784  75.9500217  65.5794048  61.3480091
  76.2260151  67.0632267  61.4623690  75.9329367  79.6073389  78.1252480
  76.2839937  80.4352093  77.7971983  76.5426826  79.3451500  78.8149548
  67.3540258  73.1174517  73.7210226  67.3990202  74.0220118  73.4112167
  66.5327787  73.0725622  74.2106819  63.4962277 102.1640805   5.2673360
  64.2660909 102.4830560   4.7963830  63.2743745 102.8726748   5.8714124
  78.5368586  65.3411531  83.2863235  77.8884220  64.8821115  83.8202190
  78.6818314  66.1688805  83.7446690  34.4728971  73.4822464  56.5105152
  35.2795982  73.8169384  56.1187983  34.6517491  72.5559950  56.6727018
  11.6277171  40.2686870  37.6270028  12.0572043  41.0292137  37.2353669
  11.6169454  39.6138466  36.9289419  27.3794986  32.4224842  12.1366998
  27.8528405  31.7551029  11.6399213  27.3220922  33.1691063  11.5404722
  74.8394251  77.1542263  77.5170040  75.2158356  78.0167150  77.3418903
  73.8955593  77.2807026  77.4203014  40.1562071  46.7223787  83.0022717
  40.0440168  47.5640154  83.4441948  40.9853029  46.3833141  83.3397102
  28.4037353   7.2575939   1.8966123  28.4618951   6.8998325   2.7825376
  27.5011445   7.0862568   1.6278955  34.7053052  20.2811849   6.3774606
  35.6532098  20.1512611   6.3486501  34.5309926  20.5757511   7.2713777
  65.2862835  62.5217342  69.6270704  65.8456278  62.1415901  68.9496803
  64.4286585  62.1223402  69.4814777  95.3542042  37.4597502  83.3306599
  94.7619724  36.7174745  83.2101536  94.7750187  38.2044291  83.4926128
  66.1768246 102.5965786  60.7198858  65.7461357 102.3602581  59.8983717
  66.3402510 103.5365772  60.6428766  98.0143056  28.2684791   0.1284143
  98.2154164  27.3418653  -0.0026492  98.6060533  28.5453785   0.8279821
  94.1699600  70.6412697  70.6011915  93.3699417  70.5536270  71.1193800
  94.8670006  70.7341290  71.2506151  91.4160161  99.3181876  11.8297216
  90.5756717  99.2462377  12.2823545  92.0689826  99.2713098  12.5280591
  52.3149586  76.8912697  80.4775524  51.6679382  76.2056828  80.3115177
  51.8023586  77.6298666  80.8061028  88.4063148  33.7186933  90.2235985
  88.7487984  32.9038811  90.5910492  88.2488918  33.5178566  89.3010426
  81.8698597  89.1755199  70.9690142  82.1712685  89.9491405  71.4453650
  82.3642731  88.4508038  71.3518667  51.7640972  82.1373749  71.6742086
  50.8256674  82.2132874  71.8468857  52.1481752  82.9060841  72.0958757
  27.6820947  19.0259159   9.5800515  28.4976293  18.9746368   9.0815469
  27.8761722  18.5781658  10.4035112  44.0347863  23.8786638   2.4204370
  43.3722688  23.5007084   1.8421193  44.5166970  24.4910419   1.8645688
  10.9707786   9.2641151  24.5455667  10.0649453   8.9578379  24.5020219
  11.1477662   9.3560970  25.4817506  13.3207508  16.1914452  89.8521805
  12.8983113  16.9657811  89.4804478  14.2383572  16.4444741  89.9532032
  59.6743488  84.0554428  43.8719893  59.9333715  83.3364391  43.2956505
  59.7583818  83.6964989  44.7553492 110.7623672  81.1885262  62.8812790
 111.0579205  80.2999306  62.6830959 110.0728416  81.0714436  63.5347843
  52.5342465   1.8988932   8.4009477  53.2921792   1.9292200   8.9847680
  51.9241429   1.2999761   8.8314172  19.9548818  13.7939251  20.2695104
  19.3293239  13.2948435  19.7443219  19.4122029  14.2808617  20.8896943
  70.1550341  55.7366276  89.9633980  70.5906296  55.4640675  90.7709885
  69.2346287  55.5121994  90.1002121  87.7277279  95.2216816  81.5801334
  88.3726978  95.0746822  80.8882904  87.6681709  94.3813229  82.0345402
  92.3466778  59.1477299  76.3197279  92.8283978  58.3341885  76.4691448
  91.4297962  58.8774347  76.2696600 100.8335876  69.8596764  59.5943117
 100.5025673  69.7207308  60.4816341 100.1031017  70.2647686  59.1268539
  23.7379170   5.5027569   0.6227800  24.5367814   5.2520311   0.1589032
  23.4478141   6.3029659   0.1849004  60.9263420  41.3374329  90.3144455
  60.3957939  40.8465385  89.6869278  61.0431910  42.1965694  89.9089050
  39.5786548  62.5714731  67.8671312  38.8470936  62.1422482  68.3107662
  39.8858619  63.2280779  68.4922123  27.8382970  12.2808874  11.7651864
  27.5773574  13.2018030  11.7574140  28.7828065  12.3008621  11.9192334
 101.6926770 104.5461396   1.9422551 102.0780663 103.7141828   1.6673871
 100.8774047 104.6084765   1.4445802 110.5264950  78.9238548  70.8834600
 111.4257526  78.9010286  71.2106228 109.9840355  78.8478279  71.6684389
  57.0474958  82.1569538  82.9597378  57.5649071  82.5131130  83.6820126
  56.5354395  81.4523125  83.3565998  22.9880954   2.8481329  48.6463758
  23.5515023   2.3493278  49.2379781  23.2903386   2.6097095  47.7699968
  59.9235773  82.8953075  89.2860985  59.3535280  82.8784370  90.0548553
  60.7150745  83.3432484  89.5846176   2.5613447   0.4139432  66.2916088
   2.6728293   0.7430467  65.3997040   3.3544966   0.6912717  66.7501211
  40.4769517   0.7894123  17.9136297  39.8812629   1.3420332  18.4195920
  40.0094415   0.6193197  17.0958730  30.8016301  29.0137947   5.9930250
  31.6254092  28.7751186   6.4180585  30.8804465  28.6651409   5.1050779
  50.0651647  13.6871660  19.4691488  50.8460046  14.1756809  19.7296926
  50.2420522  13.4154737  18.5685273  45.9024526  30.1628483   5.8776113
  45.0967408  30.6001366   5.6022283  45.6406213  29.2558945   6.0360452
  59.7219515 101.7649269  30.6357956  59.1375303 102.0170116  31.3507342
  60.5498981 102.2004890  30.8383441  79.3020391  82.6751614  62.8693867
  79.4268799  83.5670757  63.1936312  78.7812328  82.7804470  62.0732069
  68.5688734  56.7043447  84.2321968  68.3407164  56.8166924  85.1549911
  69.5148659  56.5583229  84.2354202  82.1931748   3.2855710  68.3708286
  82.8806023   3.7688836  68.8291836  82.4107318   3.3811387  67.4435902
  65.5686760  57.3035812  80.9870815  66.4732170  57.2833109  80.6746292
  65.1536560  57.9971933  80.4743576  77.7410698  45.8552361  84.9902344
  78.3654308  45.1359272  84.8953438  78.0224371  46.3137436  85.7819653
   4.2270609 102.9763679  17.4758645   3.8974329 103.8362149  17.7370950
   4.3719002 102.5143985  18.3015939 102.4198136  36.3726032  16.1935445
 102.6537952  36.4319599  15.2672883 101.7090735  37.0045174  16.3020154
  42.0416118   4.1437519   3.8782331  41.5836431   4.9818314   3.9424344
  42.6078797   4.1205395   4.6496126  65.9603215  12.7732361  23.1040593
  66.8310071  12.6247394  23.4729692  65.3605081  12.6064480  23.8311311
  94.9721341  99.0296678  36.8234083  95.5533366  98.7156037  37.5160810
  95.5617575  99.2899875  36.1157247  32.1132350  72.8911400  61.7482281
  31.9289064  73.2132244  62.6305676  32.2538948  71.9510651  61.8609428
  33.1144452  65.1752901  86.7897129  32.3146129  64.8577118  87.2088146
  33.3897209  64.4551754  86.2223530  18.6800004   1.6639412   2.9707738
  18.5102321   2.4298656   3.5192033  19.0533353   2.0235575   2.1660825
  82.2949505  84.1364956  81.8684483  81.6702271  84.6488571  82.3817158
  82.0265865  84.2721558  80.9597111  69.9140644  75.5894470  88.9095402
  70.8639288  75.6902456  88.8476181  69.5723248  76.0735226  88.1577969
  25.9616853  39.0935028   7.7548143  25.0158883  39.1566074   7.6217099
  26.0815717  38.2757748   8.2377073  56.4535522  67.6837921  78.0349445
  55.5835247  67.7772713  78.4229565  56.3043833  67.7560139  77.0922041
  71.4859772  79.7484875  53.8374567  71.8243265  80.5282688  54.2775583
  71.8335915  79.8059511  52.9474640  56.9752741  81.8525600  90.2796078
  56.1754894  81.4687061  90.6390953  57.4547195  82.1682262  91.0455799
  76.0423665  19.2637547  52.5922823  75.9943895  20.1282987  53.0003262
  75.1548819  19.0998658  52.2733164  11.7743541  24.9061335  15.6828615
  12.1009399  24.3132151  16.3596364  11.2774945  24.3423641  15.0899621
  39.2551900   9.7096479  11.3846322  38.3299495   9.8999632  11.2299272
  39.2860175   8.7620724  11.5164872  36.1327077  32.8257263  10.4385778
  35.9116984  33.4456909   9.7435781  36.3714410  33.3766830  11.1840078
  63.4886312  84.3838310  61.7356873  63.9804506  84.9466133  62.3337030
  62.7405310  84.0824509  62.2511959  36.4704181  24.4187344  12.2622701
  36.6815997  24.7512949  13.1346437  36.5439368  23.4678829  12.3441430
 104.2230992   3.5125359  77.0098639 103.6137538   4.2436704  76.9079542
 105.0900798   3.9107045  76.9321060  76.7636395  91.8237972  86.2369633
  77.6836586  91.5597725  86.2463284  76.6962576  92.4312115  85.5002594
  74.2443705  97.0825863  66.2918425  74.4105959  97.9992676  66.5115976
  74.7335052  96.5864372  66.9482088  78.0700731 102.0450974  79.0267467
  78.7688065 101.4729118  78.7095690  78.4782457 102.9085064  79.0911674
  84.6161842  61.6405678  60.3990364  85.5355549  61.6426802  60.6654644
  84.1987705  61.0082150  60.9839487  77.5983238  73.1981134  77.3922157
  78.3123970  72.6202440  77.6612759  77.1257353  73.3881998  78.2026243
  60.6611490  82.8504372  68.6625910  61.4159155  82.7746773  69.2463875
  60.2138376  82.0076275  68.7388182  71.1915113   7.1903408   0.6717416
  70.8677102   7.6148785  -0.1227072  72.0299913   7.6175630   0.8468648
  21.5876199  14.6152866   1.5218183  22.1832515  15.0098074   2.1588537
  20.8011437  14.4071806   2.0261785  22.3320819   9.3637789  30.4410573
  21.7230512  10.0537622  30.7041856  22.6622821   9.6479929  29.5887586
  60.6320810  62.2326040  67.3568296  61.0329676  62.4770212  66.5226936
  60.6166267  61.2756157  67.3438358  50.9744453  97.6150513  58.0390358
  51.3311815  96.8857574  57.5319767  50.9678745  97.2982025  58.9422512
  63.5298443  62.1753311  76.3296938  63.5314369  62.9104090  75.7165956
  63.3825445  61.4054966  75.7802534  12.6260329   7.4370897   2.0392915
  13.4091617   7.1917189   1.5466138  12.7615930   8.3582580   2.2613355
  61.2691593  74.4678640  82.2116375  61.7466927  74.3530178  83.0332184
  60.8242846  75.3098059  82.3088551  84.5644093 101.5164089  88.1702805
  84.1429806 100.7902527  87.7105808  84.1340637 102.2993660  87.8267479
  80.4693985  48.0539131  72.1252680  80.8418179  48.9275551  72.2448111
  80.0905228  47.8364611  72.9769707  21.4498092  63.2226265  17.7074930
  20.9018708  62.8273189  17.0294591  21.5830518  64.1235054  17.4127122
  18.8530351  53.7127102  62.7464505  19.5887281  53.8817013  63.3350393
  18.5849334  54.5800579  62.4430295  14.3436338  39.0005768   3.8262960
  14.0972138  38.0845917   3.9546987  13.5101796  39.4697941   3.7885686
  48.5699559  60.4504574  12.6018831  49.2370130  59.7876251  12.7805444
  47.9195596  60.3281963  13.2934591  21.2838079  48.9846599   1.4944669
  22.2403623  48.9745891   1.4607450  21.0120297  48.4618938   0.7400914
  41.8816329  36.3239372   6.4515039  42.0308209  35.5672920   5.8845350
  40.9318877  36.4430797   6.4469644  96.9564056  68.6681604  75.2166224
  96.0228443  68.7026596  75.0080442  97.0690918  69.3101120  75.9176445
  95.0760083  14.2865952  65.8198977  94.5785479  14.7002992  65.1144791
  94.6364693  13.4484586  65.9633207  50.3107072  15.7217253  24.9549791
  50.0676538  16.4563215  24.3914815  50.6931115  16.1314047  25.7309648
   9.1967674   5.2854737  64.7421503   9.6138188   4.4846066  65.0598001
   9.6589180   5.4899796  63.9292383  94.1776657  93.7459469  65.1704979
  94.6475983  93.1798649  65.7828236  94.6102905  93.6000729  64.3291998
  85.1835632  92.3487186  42.8618383  86.0633278  92.1133041  42.5671768
  84.9053860  91.6082764  43.4008932  56.5437413   8.0321730  18.5660001
  57.2364141   8.4327829  18.0406877  55.9622003   8.7587917  18.7897416
  49.7804165  71.1764145  58.8134909  48.8607550  71.2251616  58.5525703
  49.8240423  70.4187775  59.3968487  46.7565154   0.9147939  57.2299480
  47.4075930   1.4182767  56.7412472  47.0467393   0.9679898  58.1405354
  67.0835829  51.2255716  89.4311523  66.2386227  50.7779884  89.3870163
  67.5317907  50.8185434  90.1725578  31.1999227  19.5914019  29.4766256
  32.0401002  19.1612280  29.6356317  31.2008716  20.3445566  30.0673791
  93.5774040  98.2457542  89.8883820  94.5266533  98.1269741  89.8559284
  93.4302711  98.7884235  90.6630325  62.5793505  84.7723866  55.6353426
  62.2877026  85.4780674  55.0581217  62.0614243  84.8853779  56.4323473
  71.2634611  66.8315935  72.1871996  70.3547525  66.6712332  72.4416828
  71.2545395  67.7105761  71.8083382  88.2023430  69.4765472  66.5219450
  88.3995247  68.6888885  67.0288420  87.9008961  69.1472435  65.6752348
   1.1797992 101.6211319  74.0245152   1.0118667 101.6408920  74.9666643
   1.9991867 101.1340523  73.9374399  40.3147222  37.9196251  15.4360315
  40.7012130  38.6814201  15.8679124  39.6508218  38.2865036  14.8521921
  92.5059986  72.3903942  61.4499474  92.6561642  71.7630625  60.7427406
  91.6842556  72.1071672  61.8508816  64.2881490  28.6924351   1.3526174
  63.6089994  28.0958736   1.6674253  63.8123132  29.4812668   1.0926935
  75.8344650  52.6820183  67.8592491  74.9089575  52.7718782  68.0863762
  76.0899639  51.8355370  68.2258797  78.5375786  89.1947365  89.0204144
  78.1558180  88.4180355  88.6114979  79.2886257  89.4115829  88.4680271
  67.4597168 104.4919491  80.7060337  67.2203827 104.6825981  79.7990608
  67.4538231 105.3452396  81.1397362  42.0375156  70.7911205  48.4029245
  42.8983593  70.5757236  48.0440617  41.7666483  69.9991798  48.8673544
 100.8908806  24.5578325   1.4092275 101.2166032  25.4420841   1.2412092
  99.9995217  24.5606172   1.0603734  87.9254627  95.7529545  53.7094307
  87.2307396  96.3326645  54.0217066  87.4822521  94.9242401  53.5276794
  51.8634415  82.6240540  58.1611872  51.1275434  82.0532036  58.3821154
  51.6771126  82.9211903  57.2705555  86.8894005  65.1741409  83.6743927
  86.6179657  64.7533083  84.4901466  86.0695553  65.4378986  83.2566357
  96.8436718  79.1217136  79.1937590  97.3442078  79.8742437  78.8784933
  96.2152100  79.4941902  79.8122501  32.4543429  21.9413269  14.6258088
  33.0072642  22.7134025  14.5057889  32.7296067  21.3397253  13.9340421
  84.8667812  85.3340435  82.4287510  84.9892712  85.3090763  83.3777523
  83.9561653  85.0697517  82.2977448  62.9394054  95.8421516  77.2566319
  63.0074692  96.7170048  76.8742228  63.6913919  95.3670406  76.9030619
  43.9716149  26.1603296  27.5219175  44.4987680  25.8147180  28.2422658
  44.0627481  27.1105373  27.5928613   3.5093490  76.3051319  55.8950090
   2.6327888  76.6287613  56.1027002   3.5005752  76.1821270  54.9457836
  51.8927479 103.9332771  67.1312761  52.7676678 103.6853123  67.4300385
  51.3511658 103.8968563  67.9196882  76.4645196  32.9718101  12.7252122
  76.8617440  32.3009098  13.2804891  76.0218812  32.4793613  12.0339795
  48.4428979  18.4667290   0.2452966  48.2818223  19.3876684   0.0399705
  48.6537934  18.4628332   1.1789724  28.9872600   5.4157913  18.1232950
  29.3137218   5.2041757  17.2487279  29.5245887   6.1553753  18.4070607
  70.5082278  99.7006539  31.2219449  70.7077317  99.5824651  32.1506330
  71.0758238  99.0738706  30.7733842 101.0279803  17.1080407  79.7736454
 100.6273751  16.2456807  79.6637106 101.8738894  16.9286069  80.1841068
  77.1829510  76.5172243  80.0730038  77.2610998  76.2222147  79.1657639
  77.7140141  77.3125982  80.1128197  46.5201187  34.0866542  70.6720781
  47.4612904  34.1499162  70.5095148  46.3882685  34.5498586  71.4992952
  68.1021738  89.7102737  43.4385443  68.5146046  89.6588802  44.3008041
  67.1791124  89.8824310  43.6244297  51.4153195  47.0863045  19.1053411
  51.1628247  47.0496929  18.1827661  52.1162225  46.4396370  19.1876813
 108.6841774  72.3291445  78.0735016 107.7680016  72.1355104  78.2719040
 109.0541458  72.6175308  78.9078760  33.0110646  16.6839683   3.1105634
  33.0914594  15.7301796   3.1182500  32.1636106  16.8495739   2.6974889
  64.0625955   5.1865995   9.7241422  63.1656838   5.2674377   9.3997308
  64.0540792   4.3908489  10.2560636  41.5771914  93.9965725  67.0949459
  41.3909292  93.3655834  67.7902174  40.8742714  94.6426868  67.1632671
  43.8287020  68.1682634  83.3405209  43.7198782  68.9340591  83.9043903
  43.2478189  67.5080204  83.7185192  37.0307899  76.1028862  36.9516397
  37.4705958  76.9225073  37.1775198  37.7413392  75.4692507  36.8523479
  58.4058475  67.5365400  82.1370316  58.1863785  67.9524755  81.3033199
  59.3297815  67.7462292  82.2734165  83.5138087   3.0012425  47.1261454
  83.4765773   3.1877717  46.1880350  82.6124005   2.7829846  47.3629141
  76.0086966  73.6523771  67.9726982  75.7953358  72.7348328  67.8029251
  76.9502068  73.6513710  68.1452847 109.3854141  86.8567181  44.8080444
 108.8825989  86.1248493  45.1654959 109.6975708  86.5412807  43.9599323
  82.8953075  88.8766575  75.1550388  82.2738934  88.8991070  75.8827543
  83.6719322  88.4494019  75.5163527 103.5266113  67.0187664  81.6632366
 103.9522457  67.6710367  81.1068153 104.2501068  66.5511513  82.0805264
  62.5765800  91.4540577  34.7725415  63.3305979  91.9288349  35.1222277
  62.6317692  91.5811062  33.8254189  42.4814702   5.3550709  18.2719442
  42.6043702   4.4237221  18.4555551  42.1650649   5.3814543  17.3689386
  60.5708170  94.5592213  76.9988489  61.4583778  94.9068832  76.9117022
  60.6955910  93.6458111  77.2564220  67.7655916   6.9128045  59.4423389
  68.2953458   6.1584767  59.1843033  66.8969278   6.5484914  59.6124411
  96.2141228  54.6942043  89.7245979  95.4100704  54.5145369  89.2373085
  96.4396381  55.5946493  89.4909668  51.8759155  62.9053497  48.8115644
  51.0871935  62.3686600  48.7333536  52.5822115  62.2743464  48.9501524
  85.1605086  -0.1564399  54.0425873  84.8862653   0.7573232  54.1204214
  86.1081271  -0.1120654  53.9149904  92.2273731  84.2037582  82.1738148
  92.1520996  85.0932884  82.5191975  91.9718552  83.6406898  82.9045010
  77.6668119  57.2973251  62.9879189  77.5810051  56.4338255  62.5838900
  77.4230576  57.9112101  62.2951269  31.1110970   0.9563836  47.6422215
  31.1889645   1.6190251  46.9558764  31.2245938   1.4428052  48.4587622
 101.5840340 103.3674240  82.8239727 102.5117302 103.4847164  82.6193905
 101.1246490 103.8602352  82.1440125  68.8622379  96.1236572  80.3013039
  68.7543344  96.3875008  79.3875265  69.7207737  95.7013130  80.3288651
  61.2586403  80.6957626  79.7635555  62.1182156  80.4096508  80.0725842
  60.8176470  81.0202217  80.5487156  91.2657790 102.0718173   1.7669126
  91.4692073 101.2113217   2.1335145  91.0465102 101.8965367   0.8517953
  37.2519422  70.3272295  77.2647953  37.7949595  69.9105978  77.9339600
  36.8597007  69.5971251  76.7859173  58.1306887  85.0666904  67.9035378
  58.6214447  84.2712879  68.1102467  58.8005972  85.7439995  67.8102255
   1.9862934  21.8358716  42.8635168   2.3110481  22.6301106  42.4393082
   1.5258595  22.1509179  43.6413240 100.0649452  96.0912132  70.6337070
  99.8953247  95.2984715  71.1426449 100.7913113  96.5172005  71.0888672
  34.0232230  50.6247890   2.9639741  33.8490678  50.6153000   2.0228025
  33.5566331  49.8602474   3.3016130  24.6068383  47.7000702  24.0817663
  24.8528482  48.5643757  24.4114515  24.2613174  47.8676117  23.2049676
  87.2768402  83.9863110  52.7910089  87.1409225  84.1633892  51.8601990
  87.6913929  84.7805977  53.1278849  40.4184246  87.4529362  89.4914818
  40.2917528  88.3617783  89.7638512  39.5337725  87.0897198  89.4503021
 100.0062995   4.6877870  75.2708054  99.4295649   3.9791211  74.9854851
 100.5014186   4.9241456  74.4864416  79.9738550  96.0355759  82.9617786
  80.2541161  95.7967186  83.8453102  79.3501520  95.3525352  82.7154732
   1.6740700   7.4638852  54.4671869   1.4141651   8.3644113  54.2728949
   0.8476063   6.9865903  54.5405149 100.1122284  72.4595785  55.7988501
 100.2753830  71.5510559  55.5454731 100.9346581  72.7495480  56.1935139
  96.9478130 100.0062275  50.6998062  96.5400982 100.3617477  49.9101210
  96.7079449  99.0795803  50.6967878  64.4695330  78.4374952  87.0072174
  65.3070974  78.4384441  86.5438461  64.1433096  79.3325663  86.9141579
  10.2172843  91.5253735  62.3682785  10.4741947  91.2442875  61.4900827
   9.5745269  90.8743000  62.6496887  48.6923314  35.8928860   2.6783677
  48.3567525  35.1948059   3.2407876  48.8082219  36.6392792   3.2663175
  55.5420400  51.6913879   2.4354574  54.6751214  51.6217506   2.0356485
  56.1514855  51.6055286   1.7023584  72.0521927  69.4625998  84.0592670
  72.5434542  68.6449909  83.9791965  71.9682360  69.6001577  85.0028038
  71.5170336  72.8460550  55.0348473  71.5256262  71.8908215  54.9741077
  71.0649204  73.1324530  54.2412472  94.8989391  41.8727446  89.2915726
  95.5398178  42.5698948  89.4311714  95.1659107  41.4632559  88.4686089
  78.8454390  60.2582788  74.6725512  78.7002611  59.3211126  74.5426416
  79.7976494  60.3513288  74.7019672  68.1424379  99.8347282  74.0198803
  68.9826488  99.5036793  74.3371868  67.6209211  99.9630833  74.8122025
  58.6630249  90.6140423  61.6782379  58.3663654  91.0434246  62.4806452
  58.4068775  89.6982861  61.7878580  30.3776265  33.3302105   4.6585580
  30.0578357  34.1719234   4.9833413  30.8704139  32.9620731   5.3919526
  54.5813275  56.7627514  26.3337346  54.2978955  57.6556862  26.1373349
  55.1305581  56.8516529  27.1126291  26.2599803  18.7486303   0.0071260
  25.4214383  18.8272798  -0.4477290  26.3583280  19.5787847   0.4733869
  73.8608122 105.1238537  63.8167620  73.2859707 104.7130966  64.4625711
  73.8010454 104.5568180  63.0479145 108.0393319   7.2425565  77.5759554
 107.6152520   7.1947488  78.4327507 108.5017161   6.4087876  77.4907160
  21.6094543  39.0800369  12.8071996  21.3559485  38.3878887  12.1965429
  22.5226356  39.2680443  12.5904390  65.0122309  90.4489422  59.6683645
  65.6920290  91.0996628  59.8435163  64.8846722  90.4850483  58.7203884
  30.3958845  95.3187275  74.2377281  30.1777911  94.5425606  73.7217569
  31.0496068  95.7798290  73.7121105  73.0963612  96.2906361  87.1220684
  73.1283998  96.7953300  86.3093662  72.2925425  96.5812397  87.5529480
 110.0597000  88.9542866  90.8194923 109.6221066  88.1200123  90.9889603
 110.7731438  88.7332726  90.2208424   0.2386376  10.7170400  78.4684896
  -0.6495861  10.5090341  78.1786251   0.5046316  11.4524850  77.9165888
  99.9761868  75.1316023  69.6449757 100.6548691  75.6946421  69.2726755
  99.4183064  75.7274628  70.1449203  90.5017376  65.7137489  61.9288683
  89.9448299  65.3186512  62.5996780  90.9989643  66.3854790  62.3955393
  77.0793009  80.7277203  66.1224747  76.6200113  81.4996338  66.4532852
  76.6172457  79.9873257  66.5155983 103.8399506  45.5906057  82.7428150
 103.5196495  45.1019526  83.5010052 104.7731876  45.3820610  82.7002716
  68.9900064  58.4755659  88.4184933  68.6888313  58.5511684  89.3239212
  68.5338354  59.1778660  87.9549122  51.3931990  71.6104269  84.1673374
  51.5539360  72.4430275  83.7232971  51.7163515  70.9473467  83.5573196
  86.3616710  17.3449620  74.8952436  86.5563111  18.2447537  75.1573849
  86.2888436  17.3837480  73.9416075  46.9375325  30.7177437   3.1181070
  46.9148637  30.6173027   4.0697500  47.5293160  30.0276459   2.8184530
  69.6837807  96.5440083  89.0969276  70.0490046  97.2888947  88.6194420
  69.0403986  96.1670017  88.4967995  97.1169376  75.1984310  87.6126099
  96.1847019  75.2417660  87.8254509  97.1892452  75.6342506  86.7634583
  92.4765401  24.1503533  78.2944202  92.3196273  24.8967656  78.8727570
  92.1905474  23.3903798  78.8012457   6.6538235 105.0275735   3.6620065
   7.3468205 104.4672183   4.0112706   6.0242649 104.4180421   3.2768174
  29.0986301  31.3786686   2.1483346  29.4229365  32.2344292   1.8677541
  28.2725669  31.5695084   2.5926706  32.9068662  39.3711174   3.2466050
  32.3127986  38.9234531   3.8490316  32.3531533  40.0054920   2.7914163
  39.0557194  67.4356031  62.2276545  39.0011954  67.7364111  63.1347227
  39.9593282  67.1357298  62.1286678  31.1961552  17.8686437  80.7249451
  30.3027340  17.9184064  80.3850269  31.5190598  17.0185098  80.4262352
  49.5176507   1.2442816  21.9576284  49.4260694   2.1206081  21.5836068
  50.0423242   1.3746345  22.7475377  91.2283134  55.7997370  89.3535900
  90.9741116  56.0560846  88.4670830  90.4055691  55.7799292  89.8423958
  50.9635305  98.6296463  79.2701149  50.4349422  99.3101406  78.8532686
  51.8518639  98.9861107  79.2755413  47.0688915  83.6251259  31.6721511
  47.7093077  84.1851425  31.2334275  46.2531662  84.1250420  31.6421103
  46.6245080  66.7264831  10.1914522  47.4672128  66.9954288  10.5571672
  46.0746671  67.5072182  10.2574083  70.9020424  60.3210068  71.6877651
  71.2960291  59.5150089  71.3540411  71.5187407  61.0096931  71.4395142
  94.9523640  89.6983528  87.4720955  94.9424934  90.2120304  88.2797241
  95.7427216  89.1625023  87.5387096  77.8113036  11.6001233  53.8844109
  77.5084500  11.2097939  53.0645609  78.4560256  12.2541341  53.6145163
  73.0462074  83.3160305  71.1767769  73.7017870  83.0890369  71.8362617
  72.2212124  82.9911518  71.5374231  78.8883448  54.2654562  82.8382397
  79.2010069  54.5830154  81.9911098  78.1258154  54.8107052  83.0318356
  71.5153504  53.6523807  17.7999421  70.8494569  53.9375675  17.1742555
  71.1146070  53.7943352  18.6575528 102.6595116 104.4957733  75.2797794
 101.7225838 104.3035316  75.2418852 102.7155590 105.3198433  75.7635069
  86.7717891  93.9129666   5.9334585  87.0383601  93.3934812   6.6919538
  86.3393025  93.2859591   5.3537675 103.2271863  10.9126223  32.2612020
 103.6120225  10.8498228  31.3870260 102.5734616  10.2138555  32.2858735
  41.4922286  35.5163372  10.3870412  42.1680547  35.7247055   9.7419950
  41.2290860  34.6202362  10.1772901  62.4896002  72.0968199  74.5266294
  61.8775558  72.1376657  75.2614546  62.1081066  71.4502144  73.9328289
  10.2157819  80.9637928  81.8571091  10.0874603  80.0343609  81.6675472
   9.4445157  81.2131023  82.3662567  13.3351804  25.2941692  10.8888265
  13.0172826  25.9520471  11.5071889  12.9470922  24.4733227  11.1918565
  59.1107656  44.1368759   7.3361799  59.3531991  43.2228554   7.4845811
  58.2000447  44.1931141   7.6254102  71.6658401  78.4532261  63.9814043
  71.5301275  79.0630960  63.2562351  71.9828606  79.0013790  64.6992207
  30.9040834  30.5729282  20.0067159  31.2000180  31.0023010  19.2040368
  30.9758473  31.2490452  20.6804773  91.5518570  77.4257898  87.1762562
  91.7677212  77.3007250  86.2521362  92.3782063  77.2806263  87.6370144
  57.0182180  70.8320570  81.5676975  56.5436363  70.5692959  82.3563480
  57.2379398  70.0073004  81.1344242  15.7124139  53.4365547   0.5268308
  16.6064740  53.2032764   0.7767698  15.2200557  52.6197613   0.6084367
  78.0855656  61.1503983  72.0107985  78.6791277  60.9073305  72.7213144
  77.5745201  60.3583860  71.8441153  47.1100045   9.7754085   4.4317647
  46.5302373   9.0899074   4.0998193  46.9084645  10.5409086   3.8935968
 109.2322350  95.7383633  83.1943893 108.3625412  96.1360931  83.1535625
 109.8355770  96.4655113  83.0411911  29.7410060  18.9020622  15.3600618
  28.9396573  19.3716848  15.1287099  29.9257279  18.3535231  14.5976850
  15.1255981  70.0215912  78.0133915  14.1790286  69.9979401  78.1536484
  15.4914943  70.2037954  78.8789272  72.8624868  63.6526871  78.6003542
  72.1359539  64.0267229  78.1018829  72.9061508  64.1840219  79.3953419
  90.7215595  74.2670298  63.4914446  90.1808548  73.5681105  63.1234980
  91.0948944  74.7079945  62.7282858  76.1430597  95.7598972  75.6823349
  76.0169697  94.9567795  75.1770306  77.0907164  95.8946991  75.6853151
  71.1838579  89.2756844  78.4528208  70.9324408  88.4253311  78.8132763
  72.1354008  89.3060684  78.5521746  37.0637699  14.9155244  78.6298990
  37.7201744  14.3707379  78.1956577  36.5633579  14.3033704  79.1694212
  47.4562455  19.6668184  30.0558206  47.7802850  19.6776617  30.9564420
  46.6868497  19.0981186  30.0849363 102.9600143  84.4637203  40.8521938
 102.1460056  84.2509842  40.3957176 103.0324554  85.4155636  40.7816553
  37.9792782  11.0196790  85.2708244  38.4128090  10.3892144  85.8459759
  37.5620743  10.4822263  84.5975399  42.8403712  30.5702007   2.3512479
  43.5680677  30.6592834   1.7358228  42.5784160  31.4703834   2.5443384
  68.9078283  96.2665939  60.7434177  69.7884226  96.0789776  61.0683584
  68.4614038  96.6764355  61.4843369  15.8719250  97.1016053   6.6376802
  16.5347954  97.7763251   6.7846032  16.3590237  96.3626508   6.2731096
   8.0374619   2.2943219  89.3862820   7.6612564   2.8572091  90.0629425
   7.4385830   1.5494355  89.3341446   7.8977104  26.0469350  46.3145590
   8.8455101  25.9173306  46.2813711   7.5603005  25.2458009  46.7152691
  31.3762355  92.3512077  80.1179123  31.3794255  92.5361347  81.0570717
  31.6793036  91.4457130  80.0510693  61.0203552  81.8695641  82.4878502
  60.2199745  81.3601780  82.3608303  61.7281389  81.2338543  82.3822975
 103.6338715  90.4894356   3.7842771 103.6837582  91.3043574   3.2846280
 102.7326875  90.1898436   3.6645147  46.0749245  72.0316792  76.9274569
  45.7137012  71.2951565  77.4206924  46.9275951  71.7209530  76.6231060
  39.6891881  39.7269810   1.6384240  39.2003823  39.7193897   0.8154794
  40.6066848  39.6654785   1.3726159  91.6180992  66.8742228  70.2910137
  91.4774609  67.8140926  70.4054356  92.5030518  66.7223406  70.6227207
  66.2414598  69.3756914  81.0558987  66.9353962  69.9811029  80.7948112
  65.9664774  68.9598227  80.2387810 109.1311646  99.5332813  57.3730326
 109.9623013  99.6873951  56.9239283 108.6836624 100.3789902  57.3455667
   4.0032379  82.5289249  80.8170795   4.9297229  82.7530575  80.7297516
   3.8286773  81.9412136  80.0819874 109.5362525  10.0769528  42.0400953
 109.8491721  10.7152757  41.3991117 109.2720609   9.3208989  41.5158749
  54.2574310  72.5263691  90.3504944  54.3543196  72.4355984  89.4025517
  55.0881958  72.2121716  90.7073402  35.7588005  62.3277140  67.8855562
  35.1282167  62.6186419  68.5443068  35.2311563  61.8571615  67.2402620
  60.4623842  60.7895184  79.8309565  61.3106298  61.0921097  79.5066929
  60.6088638  60.6181383  80.7612324  33.7407971   3.1973446  30.2798101
  33.3305265   3.4149301  29.4428178  33.0180932   2.8934181  30.8289548
  29.7904488  36.2537583  78.5528278  30.1291462  35.7644662  79.3025684
  29.9794480  35.6964120  77.7979279  86.3308525  61.0814905  89.7889614
  85.6803989  61.3122654  90.4522038  85.9071732  60.4023409  89.2640972
  94.7308922  66.9436169  76.5186167  93.9519978  67.3212337  76.1100149
  94.4066334  66.5373325  77.3223686  48.9434339  31.7919147  18.3738920
  49.1679193  30.8975971  18.6308404  48.8948918  31.7615593  17.4184057
  71.3076210  80.7946777  62.4632120  71.9937754  81.1823463  61.9199419
  70.4961681  81.1857128  62.1393728  90.8679676  93.8388538  72.7079153
  90.0608253  94.0765572  72.2515726  90.9183121  92.8865623  72.6252317
 106.6362286  76.7161846  89.4327545 105.9368992  76.0655260  89.4945526
 106.9577122  76.8081856  90.3296471  18.6516758   1.1892709  77.2712088
  18.1130882   0.8691415  77.9948568  18.1081196   1.0621938  76.4936304
  85.1455402  70.9655094  81.7488480  84.4630146  70.5300188  82.2594738
  84.8164749  71.8548727  81.6185284  88.4521008  71.1881685  69.8484516
  89.1541004  71.2503004  69.2007065  87.6524162  71.1100721  69.3282318
  67.8644277  37.6933659   7.0224210  68.4097673  38.2089126   7.6166078
  68.0832864  38.0220879   6.1504861  96.4972115  62.3540497  80.5514336
  96.9369888  63.0474567  81.0433865  96.7651081  61.5447140  80.9866905
 104.2484240   9.3928346  60.5287647 104.2800050  10.1677045  61.0898399
 104.3856435   8.6582478  61.1269236  22.9493428  50.8016479  22.0991441
  23.3775331  51.6459072  21.9573613  22.2801162  50.9804523  22.7597448
  49.8274137  28.9823902   5.7941839  49.9311448  28.0310333   5.8141538
  50.2994443  29.2583454   5.0085279  32.3537823   8.6544999  27.3475838
  32.6024815   8.9277944  28.2305861  31.4426609   8.3733758  27.4315763
  12.8751079  63.7951136  68.9896345  12.5797454  63.2802773  68.2386780
  12.7097885  64.7035027  68.7371826  48.1173802  39.6221435  18.3748361
  47.5014497  38.9916599  18.7481328  47.5659181  40.2413452  17.8965875
  14.8171760  68.5366905   9.9064561  15.4406167  69.0292824   9.3726941
  15.1683188  67.6463974   9.9244996  48.9367581  58.2839764   1.6490861
  48.7266542  57.6869095   0.9310361  49.7703267  57.9619873   1.9921991
  68.7141895  89.6055603  89.0890980  69.5292950  89.7092819  89.5800972
  68.9762068  89.6799946  88.1714725   6.3110439  70.4645538  62.7560949
   5.8273117  71.0994434  63.2844353   7.2316066  70.6532240  62.9382849
  49.1388513  43.9487923  22.0281812  48.4643174  43.6351669  21.4257833
  49.9590207  43.6163605  21.6634389  71.5609598  72.8808784  67.6871252
  70.6469250  72.7099562  67.4600649  72.0635462  72.4653053  66.9864607
  76.0607672  69.3983316  40.5335093  76.5401411  70.1072407  40.9623194
  76.6991997  68.6892080  40.4574728 102.8208160  95.4796410  76.0986662
 102.9691887  96.1932850  76.7190886 102.5665188  95.9174633  75.2863407
 106.4757189  40.1723278   0.7009240 105.5379090  40.0122822   0.8064290
 106.8841753  39.6814526   1.4139673  69.4759750  82.0512295  60.9311867
  68.9869213  81.5877533  60.2512932  69.2086983  82.9655552  60.8373499
  56.3632394  31.6894806  32.8529950  56.8687058  30.9478844  33.1858083
  56.4850141  31.6558254  31.9041749  36.8622256  86.9665707  21.8048211
  36.0421659  86.7157829  21.3795587  37.5067712  86.3441742  21.4680311
 103.8442612  93.1397724  69.6101570 103.6463833  93.2581425  70.5391693
 103.8499260  94.0272331  69.2515135  25.5812641   8.0396947  83.1748581
  25.9886929   7.6951608  83.9695454  25.8328434   8.9630803  83.1577015
  76.6548729 101.4628983  88.0240059  77.0923853 100.9414768  87.3510075
  75.9532833 101.9166660  87.5570011  37.5963875  34.6361455  78.3123827
  38.1625553  33.9203080  78.6009455  36.8860718  34.2035779  77.8384924
  59.6188642  45.6644810  16.3290330  59.1590978  46.1469639  15.6419679
  58.9258195  45.3713596  16.9206353  35.7134677  76.4059437   2.1120950
  36.4074994  76.0629356   1.5491601  34.9825479  76.5723026   1.5168592
  38.1008959 104.8310947  70.5157328  38.0680275 105.4989910  69.8308516
  38.2386231 104.0101051  70.0432444 104.0856747  21.6411218  84.8032570
 104.4801001  22.4864777  85.0177956 103.4275918  21.5040215  85.4847050
  76.3836861 101.0263729  76.4771271  76.8362617 101.7264938  76.9474697
  76.7708969 100.2198982  76.8175745  89.6883392  94.6992207  79.7983265
  90.0655079  94.3293095  79.0001154  90.3910351  95.2319431  80.1706982
 101.1853504  86.6269112  83.0164242 100.8015347  85.7685947  83.1958771
 100.9020042  86.8345642  82.1260166   7.0586864 102.6648998  69.9464321
   6.1470024 102.9108524  70.1031542   7.3301307 103.2096767  69.2076683
  96.1764050 103.6812782  60.6818962  96.9861698 104.1916752  60.6819487
  96.0841751 103.3783245  61.5851974  89.6324444 100.6120968  71.5081406
  88.9067459 101.1880016  71.7488337  90.3993225 101.0068893  71.9231892
  50.0242520  62.3064506  23.7838575  50.5493547  62.2351826  22.9867193
  49.4814969  61.5180099  23.7844201 108.0306582   2.2843656  65.3168488
 108.2812218   2.4121770  64.4019079 107.0884709   2.4524602  65.3328800
  92.4971867  91.2619877  74.5350075  93.2404423  90.8707142  74.0759706
  92.8560066  91.5413857  75.3772783  54.5907497  97.0471096  67.5091219
  53.6428213  97.0178890  67.6387787  54.9255466  96.3122368  68.0230284
   7.4466225  16.2384328  57.5376320   6.9581600  15.7249555  58.1810427
   6.8917938  16.2353429  56.7576408  44.4139482  73.0071056  11.4372178
  44.1035272  72.7348125  12.3007699  43.8626863  72.5243652  10.8213540
  69.9378061  75.7878590  83.7830830  70.3745651  75.6303596  82.9460239
  69.1148949  75.3031826  83.7187862  48.4017469  55.0607288  26.9989129
  47.5317479  54.8160065  27.3142644  49.0015031  54.7216976  27.6634332
  72.9822160  70.0939834   4.5309564  73.5902406  70.8125484   4.3571588
  72.7928353  69.7263801   3.6676904  50.1984025  13.0608070  12.1326467
  50.7878209  12.9437101  11.3875982  49.6447469  13.8016355  11.8859311
  97.9097366  85.8587646  79.6213770  97.1878815  86.0248184  79.0150976
  97.6414585  85.0774956  80.1049709  45.9017469  37.5739754  26.2611696
  45.9229184  37.8374851  27.1811315  44.9710465  37.4697197  26.0632440
  23.3865253  85.7045650  36.6960263  23.7802783  86.3550377  37.2774673
  23.7254516  84.8662567  37.0100355  61.2980080  72.8056526  85.0765038
  60.4970551  73.3297157  85.0687218  60.9981203  71.9077492  84.9348450
  30.4305411  24.1840923  13.1708070  29.9182797  24.1598356  13.9790365
  31.3410283  24.1402424  13.4629079  76.7547321  85.2122974  63.7166309
  76.7241526  85.6203270  64.5819664  77.6515150  85.3573132  63.4150028
  11.2587162   2.3821267  77.7370071  10.8479210   3.0605420  78.2729530
  11.5129372   1.7038258  78.3627129  96.2394433   7.8078183  79.3311310
  96.3362555   7.7310666  80.2803230  97.1358971   7.7851876  78.9963388
  42.0998384  62.0747078  13.4086343  42.6986314  62.8202236  13.3650800
  41.2737132  62.4486339  13.7151166  42.1306420  36.5350044  28.7604162
  41.4004708  35.9267891  28.6457750  42.3125411  36.8597973  27.8785726
   4.5832964  14.3995007  82.0601463   4.8581883  13.4836492  82.1035862
   3.9389845  14.4897374  82.7622509  51.2428762  35.4944122   1.5695306
  51.2791730  34.6627033   2.0419427  50.3659822  35.8336819   1.7489072
  77.8583432  82.3940456  41.3515588  77.5632669  81.8679035  42.0947477
  77.6205159  81.8765152  40.5822583   4.8421093   8.3371266  76.4795113
   5.1220032   9.0357884  75.8880997   5.1901528   7.5367745  76.0863924
  11.3723084  12.1589955  84.7834682  10.6091114  12.0374593  84.2186737
  11.0124775  12.1847257  85.6700802  10.4204174   0.5815038  70.2423143
  10.7680699   0.4022893  69.3686771   9.6569535   1.1375531  70.0868559
  90.5787277 103.2871628  84.4751740  91.5186882 103.1962872  84.6314907
  90.3589916 104.1483784  84.8304939  23.7979508  40.4075325  34.5614549
  23.7327148  39.4791878  34.3375226  22.8914786  40.6875503  34.6884748
 108.0790043  57.3270082  78.4896946 107.2859669  57.7061176  78.8686371
 107.7705193  56.5613699  78.0050659  52.5751496  44.5796287  23.5213491
  51.8507577  44.2859066  22.9688855  52.7954675  43.8153065  24.0538045
  76.4996434  65.2200878  46.9012185  76.8093968  65.8468712  46.2474557
  75.9726525  65.7440460  47.5045415  84.4821072  82.8360558  64.2965031
  83.6579132  82.3516464  64.2486429  85.1339817  82.1767139  64.5342875
  32.0895287   1.8863019  84.3312836  32.1134182   1.3636598  83.5297203
  31.3009735   1.5909013  84.7864151   5.4995295   1.2553796  39.8224497
   5.0363203   1.1730775  38.9888453   6.2048336   1.8774518  39.6441412
  86.4451504  81.4366341  81.5166855  85.7564735  81.0709476  82.0718765
  87.2144508  80.8986282  81.7036438 102.3584747  80.7654953  72.7852154
 103.0113125  80.2843094  73.2936382 102.6347160  80.6554031  71.8753815
  58.3853818  31.6379059  11.4995023  59.0415193  30.9410179  11.5077325
  58.5148431  32.0788658  10.6598493  67.4749088  63.4354162  85.7801628
  67.6911640  64.3652916  85.7108879  67.7720594  63.0580807  84.9521732
  75.6516457  95.9986973  68.8982439  75.4857206  95.0566483  68.9336348
  74.9810934  96.3814163  69.4640303  23.8245007   5.3104409  86.6606331
  23.1427189   5.0424870  87.2767639  23.8016602   6.2671765  86.6793442
  73.9247751  97.1166801  84.2522430  74.1864300  97.1883202  83.3342934
  74.4754410  97.7528667  84.7086048  67.1523953  15.7309568   3.3096620
  67.0193196  16.4661396   3.9080163  67.4683190  15.0211990   3.8688394
   6.2450405  -0.0328628  88.7338924   5.8503720   0.4496488  89.4602871
   5.4997774  -0.3448573  88.2205963  15.3330609   0.7243737  89.1455936
  15.0484558   1.6365918  89.0898991  15.9745022   0.6301793  88.4413910
  34.8506066   9.3594750  89.8715782  35.5314347  10.0312718  89.8344326
  35.1913925   8.7066564  90.4830742  65.9465314  64.7295368   6.9296666
  65.6311608  63.8511742   6.7169114  65.4930402  65.3030098   6.3118478
  28.6121169  70.2930403  84.9125862  27.9615585  70.6919289  85.4904270
  28.8051216  69.4472122  85.3170109   0.4804126  70.3055191  85.7284260
   0.5529205  69.4618654  86.1747646   0.3452484  70.0788641  84.8083210
  83.7202550  63.3518398   1.9156286  84.3048955  63.5653675   1.1884233
  83.8970948  64.0265263   2.5711843  79.7950268  77.2947598  67.7859783
  79.3508244  77.7244616  68.5169172  80.6257629  76.9937754  68.1541109
  82.5089073  79.8047543  44.3988180  82.1300983  80.6558323  44.6188116
  82.0891190  79.5618439  43.5735941  34.6066948   9.1164788  57.5621223
  35.0691315   9.9431905  57.4244976  33.7053963   9.3752965  57.7542114
 102.4494076  62.1705532  45.8843040 102.6948929  62.3334932  44.9735785
 101.9753742  61.3393402  45.8595467  43.9864064  43.5903919  17.8693315
  43.9202882  43.1990040  16.9983121  43.6900235  44.4926441  17.7496167
  96.4340973  85.5745316  76.7232561  97.2431183  85.7292938  76.2356567
  95.8495235  86.2806034  76.4476299  90.5771732  93.3462429  77.7914572
  90.9766865  93.7383556  77.0150137  90.6542873  92.4027157  77.6499176
  80.3446584  10.9221276  70.8778811  79.6066718  10.3325280  71.0327053
  80.5642752  11.2637051  71.7446709  14.0814587  15.2563962  83.5800171
  14.1399952  14.3366727  83.3213520  14.8306175  15.3900536  84.1606426
 107.6529603  36.4218053  67.3714590 107.4342065  36.8386182  66.5380049
 107.5838284  37.1255311  68.0166101  89.4252162  27.9821118  81.6682053
  89.2353110  28.8501367  82.0241547  88.8990073  27.3848637  82.1998501
  46.0891485 104.2409039  55.8520412  46.3061571 105.0331211  56.3434887
  46.7472649 104.2017269  55.1580858  68.8353634  82.4986267  82.6380444
  68.6937189  82.3289490  81.7067146  69.6143055  83.0543041  82.6644993
  68.5561849  49.8989380  20.2933046  68.4450341  49.5714176  19.4007703
  69.4069482  49.5579994  20.5693361  47.2556162  79.9927378  84.5217705
  46.6391468  79.3078995  84.2625523  47.0350647  80.1807308  85.4340458
  54.8371888  34.6481502   0.4906293  55.5649186  34.9714554  -0.0405005
  54.2686940  35.4094398   0.6067678   6.2148949  31.7092046  77.3183537
   7.1545502  31.6537389  77.1445894   5.8287665  31.9443330  76.4746380
  80.7133007  97.0965862  61.3364792  81.6600037  97.0666790  61.4747095
  80.5736923  97.8792381  60.8033800  95.1042800  49.3870076  66.1784077
  94.8193984  50.2095708  65.7803249  95.4017739  49.6349629  67.0537663
  25.7942964  96.3916386   0.6642934  25.7913686  96.7325580  -0.2301291
  26.4121390  96.9530666   1.1325857  28.5950943  33.3509931  54.2040968
  29.4374844  33.3332166  54.6582794  28.2062908  34.1894349  54.4532633
 104.4161606  52.1177197  89.3634224 104.0127563  51.7995501  88.5557938
 104.8250294  51.3425827  89.7484303  40.0302840  75.7475269   9.0418168
  39.5740272  76.5858162   8.9687845  40.8432103  75.9565819   9.5019075
  73.4749365 103.4878445  61.2973738  73.5156822 102.6106739  60.9163904
  73.0683947 104.0254974  60.6177568  62.2558309  31.3631618   3.6036607
  62.4269486  31.3397587   2.6621744  62.6243878  30.5440605   3.9345189
 105.1392941  25.9273442  28.2540011 105.5476050  25.8084020  27.3964643
 104.9119954  25.0413140  28.5360122   8.2616039  12.0592507  68.2783413
   8.2577893  11.1026963  68.2434511   7.5144478  12.2816476  68.8337898
  82.3073959  64.2385483  64.8085117  82.9374218  63.6317778  65.1972675
  82.4600887  65.0666046  65.2637482  67.7447510  90.3956413  83.2364941
  67.2540712  90.3701115  82.4150181  68.6349297  90.6327343  82.9764843
  32.1751209  15.2286729  45.8930254  32.8045269  15.8107289  45.4672241
  31.7373177  15.7816323  46.5401602  84.8881054  85.3706074  66.5213871
  85.1025867  84.4696236  66.7631674  85.7312393  85.7666969  66.3012552
 109.9201922  19.9169167  71.4582491 109.7532515  19.0090188  71.2051010
 109.5367055  20.4368695  70.7519770  54.8694135  49.9317825   4.8329946
  55.4598905  49.2525185   5.1588365  55.3116990  50.2830685   4.0602037
 101.8972397  98.1012440  85.7141876 102.1658039  98.7618732  86.3526917
 102.7186775  97.7780437  85.3440285  83.4659864  48.0395401  29.8950025
  83.4000588  47.7313793  30.7988378  82.5583650  48.1639183  29.6175500
  69.7646524  54.7393406  26.6643068  70.6632615  54.9909771  26.8773862
  69.4318200  55.4645431  26.1355897  48.7937451  17.2778309   5.8163472
  48.4050370  16.6792334   6.4541646  48.0602075  17.8113783   5.5105993
  72.0031929  98.7720966  84.9097347  72.3426485  97.8885841  84.7668743
  72.1977758  99.2378521  84.0964413  48.5786200  89.3879032  79.4297266
  47.8923273  89.9532890  79.7840977  49.3421221  89.5647240  79.9792957
  26.5297028  23.7596711  87.3658466  26.2899491  22.8572568  87.5765419
  25.7792851  24.0992459  86.8782043 107.0696263   8.4522923  66.2890053
 107.4640708   8.9959725  65.6070566 106.2164359   8.2035836  65.9334183
 105.6200981  82.0372295  90.2683640 106.2836552  82.5177002  90.7633972
 105.6213379  81.1611176  90.6539249  23.9869686  12.5564488  79.3559074
  24.6935078  12.5548180  78.7101221  23.8868233  11.6373166  79.6036768
  28.6396409  62.7513206   7.7626535  28.9388515  61.8679321   7.9779359
  28.4261943  62.7113617   6.8304178  94.7042656 101.8555355  55.8238363
  94.6032143 100.9430981  56.0948944  95.1389408 102.2786236  56.5642977
  39.0295216   2.5784978  44.1076422  39.3383309   3.1940946  44.7724056
  39.8067185   2.3803529  43.5852098  59.6722412  93.1952667  86.2327957
  59.2097569  94.0121078  86.4201927  60.5729866  93.4655285  86.0543442
  18.0667687  16.5348614   0.5664655  18.6834813  15.8170259   0.4229184
  17.8720571  16.4996756   1.5029928  89.1681199   5.1181706  71.1913300
  88.7136273   4.8495492  71.9897699  88.9529757   6.0457715  71.0938072
  66.9861604  47.0884598  17.6566430  67.6965524  46.8705166  17.0532628
  66.6991616  46.2438476  18.0037710  38.1484410  36.2002953  86.4024639
  38.8445564  35.5649098  86.2353039  38.3434578  36.9295987  85.8139801
  79.3778610  81.5144062  74.1239309  80.1712418  81.9881344  74.3736553
  78.7850904  82.1932411  73.8013697  87.7401161  65.3929567  75.2353287
  87.4599648  64.7868395  74.5494938  88.4667397  65.8779621  74.8441601
  11.5072814  91.2765884  52.1099806  11.6021625  91.1866570  51.1617517
  12.4050514  91.2726879  52.4419689  71.1475945 103.6594009  69.4826555
  70.5434656 104.1735649  70.0182819  71.4652157 104.2749405  68.8220024
 106.5091376  11.3711938  78.1368542 105.9751468  12.1382626  78.3434963
 106.1372332  10.6694707  78.6711788  63.2403708  98.3569431  35.9916091
  63.0221939  97.4281120  35.9147263  63.1455612  98.6996078  35.1028848
  68.0010033  75.9223413  90.9463120  67.2140694  76.2915993  90.5455399
  68.6145592  75.8194780  90.2188492  90.3118420  90.2745342  77.6718283
  90.6564426  90.2329826  78.5638762  89.7561073  89.4991302  77.5933933
  63.9928865  71.0373592  52.3609686  64.9171066  70.9149361  52.5778961
  63.5820913  70.2017021  52.5826740  47.0631887  16.0171974  18.5282251
  47.9891683  16.2504185  18.4618493  46.7542459  16.0030067  17.6223680
  67.5720597  69.8537720   4.3239042  67.6914216  70.0089729   5.2608701
  68.4586812  69.8703564   3.9635297  35.2474093  94.0984249  86.3006115
  35.0177526  95.0230408  86.2079716  34.4175911  93.6335945  86.1930847
  64.0983106  29.4596470   4.8486348  64.6987248  30.1756561   5.0561544
  64.6142770  28.6658752   4.9898168  20.8573338   6.1135396  54.1760254
  20.5040928   5.7229241  53.3767319  21.4867207   5.4690656  54.4996643
  37.3746201   1.0006722  71.4196634  37.8277870   1.0607728  72.2606516
  36.6099831   1.5679273  71.5185452  35.1654812   4.3306550  60.3384924
  35.8861347   3.7173375  60.1944828  35.5945107   5.1532182  60.5742121
  91.4772515  56.7249593  61.6319656  91.9381623  57.3219975  61.0426283
  90.9407954  57.2969159  62.1808815  18.9941021   8.4210404  62.6592731
  18.1480499   8.1199750  62.3279428  19.3953320   8.8723477  61.9165945
   8.0160328   4.5012101  69.7214508   7.3923775   4.9430188  70.2977419
   8.6755940   5.1670655  69.5269299  54.6583081  42.0941246   7.5329706
  54.3371774  41.5873516   8.2788202  53.8957692  42.5893295   7.2337457
  16.2121102  15.1114377  88.2872295  16.1870953  14.6823415  89.1424942
  15.4950615  14.7097024  87.7966404  55.9277296  75.9435892  50.3689241
  56.6830540  76.1737537  50.9099770  56.1162090  76.3345289  49.5157671
  81.4226151  96.4363194  75.4206467  82.1389294  96.4099979  76.0550213
  81.8413258  96.6857147  74.5968056 101.7635398   2.1164044  59.3806887
 102.0960765   2.6007375  58.6249971 100.9308486   2.5399693  59.5891190
   3.6466929   6.4725884  47.2435427   4.4022604   6.2750253  47.7970028
   3.1682821   7.1484670  47.7236843  85.9867053  77.0918802   5.5711576
  85.2952819  76.7737488   6.1516401  86.7756276  76.6376547   5.8669778
  42.0740223  12.8928030  42.2882509  42.2389650  12.3312628  43.0456829
  42.6104784  12.5170803  41.5901947  25.8898234  15.7463288  86.6497612
  25.1710463  15.3829265  87.1669960  25.8231330  15.3043711  85.8033276
  46.6236734   8.6244583  79.5583200  46.0351992   9.3793714  79.5639753
  46.2462997   8.0314600  78.9085722  84.4453721  58.4869764   4.6525308
  84.4169478  57.6196281   4.2486306  84.9555878  59.0189491   4.0418645
  43.1089354   9.5406580  31.0596251  43.0255175  10.4282129  31.4082217
  42.2065878   9.2443717  30.9404039  16.2261331  37.4298358  60.0981283
  15.8642364  37.9310203  60.8289337  15.5304241  36.8169594  59.8602104
  48.0406666  11.4116764  73.2851410  47.4040747  12.1263003  73.2679129
  47.9381895  11.0204864  74.1527224  32.0987844  14.1399181  74.1742373
  31.2954283  13.8268757  73.7584782  32.3486161  13.4360540  74.7728968
   5.8212276  76.4952007  82.6068401   6.4919658  75.8130637  82.5747395
   5.1143260  76.1117736  83.1259823  39.3659759  24.7570992  75.5476284
  38.5893321  24.4449091  76.0119486  39.6442080  24.0104389  75.0172329
  29.4138193  17.3346829  17.5301600  29.7957993  17.9795277  18.1255567
  29.3620920  17.7871537  16.6882420  24.5367360  26.6730499  79.5656061
  25.2444887  26.0434103  79.4282293  24.6312523  26.9441843  80.4787254
  23.4978056   5.7080001  78.0149841  23.7135887   5.6823671  77.0827770
  22.9591298   4.9297237  78.1576252 104.0215210 104.6737031  65.4350281
 104.5598677 103.9239642  65.1814365 104.5875171 105.4329821  65.2958298
   8.3842464  75.3431479  86.5608692   8.5412975  75.6650177  85.6731987
   9.1234012  75.6752864  87.0703506  21.5855432   1.5533604  59.7784948
  21.0754514   0.7446484  59.7335148  21.6909075   1.7182772  60.7154751
  76.3302231   6.9213653  70.9547138  76.1980772   6.3883275  70.1707268
  76.6351223   6.3014305  71.6172457  44.2933798  35.7837105  57.2264290
  44.1776133  35.7302213  56.2777662  44.9591780  36.4604640  57.3486900
  59.2125778  18.2340030   3.9766809  58.2847361  18.3728460   3.7867662
  59.2308836  17.4440388   4.5169088  86.6153888 101.3496069  39.8222494
  87.0217923 101.8398601  39.1076040  87.3359076 101.1612627  40.4235888
  96.4021925  99.7176066  58.5964441  96.6428570 100.6353459  58.7231970
  95.5093602  99.7493878  58.2528305  25.0417328  44.2232227  62.5247431
  24.7591329  43.9635611  63.4016371  24.2867565  44.0397453  61.9656563
  38.9602685  19.8095369  49.2123318  38.2200265  19.3915582  48.7723637
  39.0764880  20.6393313  48.7495518  95.4528527  61.0355071  14.7035810
  96.2879710  60.9956334  14.2375013  95.4430156  61.9051264  15.1034471
  32.3915219   7.5084668  45.5353165  31.4703798   7.2805953  45.4096079
  32.8679824   6.9002843  44.9702215  21.9568725 100.7364533  66.3604546
  22.4005027  99.8882965  66.3530731  21.7594190 100.8954418  67.2834778
 101.4661888  89.8716107  44.3686438 102.1017221  89.9420742  45.0809383
 100.6230501  90.0609974  44.7803259  63.5660267   3.4079763  52.5010538
  63.5353851   2.4810509  52.7379131  64.4743204   3.5583454  52.2390985
  92.7978043  44.7571073  16.8030473  91.8957381  44.5674346  16.5450975
  92.8773885  44.3899880  17.6834604  10.3006787  82.9715243  37.3154354
  10.0423951  83.0770651  36.3998008  10.8567519  82.1924225  37.3191571
  82.1285764  81.2040416  64.7390413  81.2478910  81.5248743  64.9331856
  81.9870666  80.3577796  64.3147230   4.1062207 100.1643357  73.8531637
   3.8179298  99.3957708  73.3607960   4.9882407 100.3412998  73.5261154
  62.0567231  66.4271215  15.2653714  62.2526674  65.4958562  15.1624986
  62.8111558  66.7799214  15.7371732  37.1772981  17.2469425  65.2275133
  37.9642868  17.7802801  65.1160145  37.5026822  16.4016938  65.5372095
  37.2994518  22.9880691  48.9201784  38.1122851  22.9061270  48.4213591
  36.8841362  23.7776446  48.5733175 100.7857159  94.0234855  61.1359930
 100.7904509  94.3734101  60.2450562 101.6604522  93.6526254  61.2523079
  40.8389282  12.5347424  71.6699076  41.7494917  12.2475564  71.6019011
  40.4040813  11.8379140  72.1614027  42.8257132  10.1766336  53.8228321
  42.3100758   9.5397788  54.3175697  42.1964264  10.5834365  53.2272243
  41.4719725  41.2428045  53.7804842  41.5739775  42.1688604  53.5608244
  41.7132711  40.7785368  52.9789448  34.8082328   8.4070444  30.8541918
  35.6470680   8.7093526  30.5060554  34.2041993   9.1301024  30.6851864
 110.6550459 100.0278101  70.6266880 110.3355483  99.8585371  69.7404003
 110.1525430 100.7873086  70.9214497  91.9619004 102.6587418  78.3227682
  92.3865644 101.9991413  78.8712358  92.3655442 102.5501597  77.4616575
  38.9359426  33.3096457  86.9270897  38.5512638  33.5692024  87.7642822
  39.5867562  32.6467395  87.1578121  38.4749913   3.6891764  76.8050480
  39.2161345   3.1379408  77.0562029  37.8990245   3.1056368  76.3111115
  35.9031415  11.7136073  89.8580933  35.2154303  12.0317757  89.2732334
  36.7197204  11.9365454  89.4111824   4.2565818 100.3997717  58.4344625
   4.5887990 101.1211437  57.9001522   5.0337548  99.8849461  58.6516953
  69.9858098  81.9374207  24.7968408  70.0519733  81.6158251  23.8977071
  70.8034711  81.6611914  25.2107927  50.0639772  21.4235497  34.6608973
  50.3222322  21.7774820  35.5119371  50.4027128  22.0548892  34.0261531
  19.2426772 100.6283451  40.2064657  19.7109456 100.8099702  41.0213089
  19.8942084 100.7686773  39.5194125  20.9628510  25.1946139  87.7472687
  21.3102460  25.7456183  87.0458794  21.7268395  24.7277308  88.0857563
  57.0455503   8.1250560  60.8144855  56.7926502   7.5477529  61.5348959
  56.5337896   7.8143662  60.0676250  28.4546590  15.3235769  58.2118845
  27.9961753  15.1207948  57.3964691  27.8765249  14.9942255  58.9000130
  92.2476534  94.7012905  46.6411304  92.3098878  95.6283400  46.8712139
  91.4844862  94.6480027  46.0658312  13.8295551  87.9632393  65.8721256
  13.3068986  87.3289183  65.3815126  13.1847091  88.5471932  66.2713814
   9.5407911  60.5285922  51.4223146   9.3996473  60.6156055  52.3650455
   8.8028426  60.0007001  51.1173677  23.1283426  19.6124315  54.4594288
  23.5484314  19.5484376  53.6017227  22.4921799  18.8972771  54.4685030
  15.2434440  82.0428482  67.3859692  15.5317540  82.5761834  66.6452503
  14.3178172  81.8719045  67.2121143  88.1159214 101.2381584  55.0346422
  87.6873807 101.7655585  55.7087612  89.0440658 101.4591679  55.1116705
  29.8199363 102.2428436  84.3107796  30.5201430 102.7620827  84.7061634
  29.7986741 102.5260435  83.3966827  79.9292121  99.1235289  37.3151851
  80.7999752  98.9211914  37.6573300  79.7831140 100.0379044  37.5576830
   8.7649484  99.3226347  34.6067977   9.2826410  99.1481623  35.3927946
   7.9512019  99.7044442  34.9358392  89.9147372  29.2574195   9.2887517
  90.3548150  30.0950006   9.4337388  90.1396327  28.7325577  10.0569745
  77.3793144  95.7117436  71.3172388  76.7673112  95.0238571  71.5789557
  77.4954445  95.5835221  70.3758049  96.8660501  53.1370441  56.4533520
  96.4004353  53.8863317  56.0818624  97.6942853  53.1082717  55.9743690
  26.9985104   7.2309452  85.3224564  27.1553206   7.0380676  86.2468147
  26.8564963   6.3742602  84.9197674  62.5137620  38.2423643   0.4400941
  63.4076433  38.5149900   0.2330228  62.6091318  37.3587600   0.7955953
  52.7381277  11.2623358  88.1452370  53.5058308  11.6456902  87.7210903
  52.9856014  11.1884761  89.0669346  68.0922274  45.3070293   5.2337762
  67.5386290  46.0694227   5.0649091  67.6758890  44.5960722   4.7465059
 105.2244834  89.5269338  71.0017729 104.3567041  89.2685572  70.6912374
 105.3817943  90.3777996  70.5924892  24.3042183  11.3625753  65.9205961
  24.8664594  10.6467140  65.6245232  24.1079688  11.1512113  66.8333054
  58.3284426  21.9950795  51.2175322  57.9441309  22.8067064  50.8861732
  57.6796865  21.3217592  51.0126162  37.2532177   9.4541073  65.3721428
  36.9920754  10.3601325  65.5369282  38.0910945   9.5257294  64.9149036
  38.9207220   5.2114123  52.9145002  38.1110883   5.6847274  53.1060743
  38.6726761   4.5736429  52.2452021   6.3457866  63.4929982  57.7925396
   5.9565635  62.6450339  58.0063057   7.2864814  63.3614102  57.9108858
  25.4776359  10.2092254  58.2860327  26.2993288  10.2065432  57.7950668
  24.9879241  10.9502995  57.9293489 101.9672732  79.0377764   3.4230539
 101.9548564  79.9520258   3.7062951 102.8805785  78.7688068   3.5218545
  94.0845183  92.0854226  55.4855680  94.3656901  91.1759237  55.5854988
  94.4202737  92.5270036  56.2656355  39.1388083  25.4833269  51.1448336
  38.9908957  26.1049438  51.8575382  39.3175459  24.6523523  51.5850258
  34.9786496  22.2931385  67.8533554  34.0515757  22.4835491  67.7101421
  35.2145433  22.8146672  68.6205530  97.7247456  90.8943895  88.3189297
  96.9343642  91.1024490  88.8171673  98.3921531  91.4828483  88.6717987
  39.8059888  97.3549477  64.7092772  38.9134116  97.0699761  64.5134974
  39.6966071  98.1918064  65.1608658   2.6844235  76.0916010  48.9936209
   3.1392951  76.9334141  48.9677143   2.7422590  75.8161656  49.9085093
  63.8432503   7.0140719  65.5335665  64.2781258   7.7981806  65.8686638
  64.1612530   6.3059652  66.0936499  99.0460686 102.8718849  71.2462854
  99.2368630 103.7520972  70.9221601  99.5852736 102.2952357  70.7050228
  19.3091488  15.1845539  61.0572147  20.2034020  15.4756856  61.2354946
  19.2526269  14.3206537  61.4655209  74.4645277  99.9964720  49.9637127
  75.0804639 100.4461596  49.3852377  74.4629497  99.0906868  49.6542263
  28.9485264  34.5720959  67.3239231  28.9717221  34.7091103  68.2709837
  28.8667655  35.4521894  66.9565248   6.8426414  92.4693624  72.5787687
   7.3114963  93.2681516  72.3372221   5.9196181  92.6827518  72.4419451
  28.0702567   8.7035096  51.1072302  27.6786327   8.0038655  50.5843925
  28.2588172   8.2944751  51.9518423  37.5673914  21.8861914  52.3809433
  38.3364415  22.4197435  52.1806526  36.9471002  22.4988818  52.7760124
  36.3724780  18.6045134  25.8416295  36.5430760  17.8514004  25.2759886
  35.4597735  18.8337123  25.6665063  97.8446440  59.8685399  88.2775497
  98.2536653  60.6986991  88.0330658  98.4675745  59.2008964  87.9904175
  95.0631074  91.8310121  84.5419502  94.1290084  92.0284394  84.4732761
  95.2581409  91.9171349  85.4751110  90.7384714  24.9289131  71.3084030
  90.8356699  25.2037930  72.2201204  91.6223940  24.9858570  70.9455395
  27.3863025 103.5954762  74.7030926  27.2095628 103.2311050  75.5704021
  28.2125373 104.0677834  74.8055458  82.3208237   5.7755172  64.2012405
  82.0721149   5.8284289  63.2784319  81.8045330   6.4592767  64.6280289
  17.1330257  99.0395984  78.9193058  16.7914767  99.9293104  79.0086746
  17.9315181  99.1404966  78.4011698  42.0164771 100.2960486  90.2513885
  41.9397779 101.0961783  90.7711411  41.4227815  99.6767959  90.6759930
  62.5485086   0.1564872  57.4739170  61.6693783  -0.0971681  57.1928024
  62.5709152   1.1068406  57.3618555  17.8035636  87.0117012  80.6925678
  18.7115522  86.7185513  80.6161022  17.3486896  86.5722493  79.9740934
  43.8503218  31.1889935  60.3791428  43.3130980  31.6185617  59.7134924
  44.6310854  30.8998799  59.9068594  69.1074657   3.9323261  61.3578510
  69.2812538   4.7514868  61.8215370  69.3279505   4.1218936  60.4458857
  58.2512569   8.2573611  68.3392906  57.7100086   8.3833915  69.1186476
  59.0263844   7.7950698  68.6581945  99.6188120  95.8020089  67.6561117
  98.6625508  95.8202240  67.6943302  99.8985962  96.0629717  68.5335207
  41.3452101   4.2493880  32.5757360  40.5871820   3.6662513  32.5360203
  40.9689999   5.1271671  32.6405549  26.4604135  97.0290038  39.1846681
  26.0078092  96.9614146  40.0253916  26.6883559  97.9555968  39.1091824
   0.6057949  95.4062692  41.1937857   1.1703201  95.7959107  40.5261612
   1.1138315  94.6716848  41.5380430  55.8994961   4.4730583  83.5321903
  56.2200832   5.0683057  84.2097855  56.5042686   3.7316009  83.5590649
  99.9854760  51.6368481   8.9597532 100.0421958  52.1636318   9.7569486
  99.0594487  51.6654520   8.7191507  31.2428403  21.9493937  46.4228964
  31.9747138  22.1772122  46.9962120  30.9211421  21.1153460  46.7651033
  10.1256216  36.4989448  54.5523357  10.0489616  35.6101251  54.8992586
  10.7710111  36.4267445  53.8491344  60.0288582  10.8512390  63.6989737
  59.8201084  11.5236211  64.3474770  59.3439865  10.1916158  63.8089085
   4.7556300  62.7161113  75.2432013   5.0980277  63.4860364  75.6973124
   5.1416774  62.7625505  74.3685341  32.5752115  25.4561114  58.8063908
  33.1485438  24.8627114  58.3212137  32.2273970  24.9223232  59.5207596
  53.5181713   2.2736293  69.6307373  53.4857702   2.8810865  70.3697777
  52.6000643   2.1031788  69.4203711  63.1241751  29.5606184  64.4083166
  62.4750710  30.2489662  64.2631388  62.8978872  29.1944933  65.2632904
  70.8056831   3.1505078  67.5790071  70.6282473   2.5379756  68.2928371
  71.6056681   2.8183496  67.1716690  48.9256191  31.3246846  59.7593021
  49.7603750  31.6969991  59.4750452  48.9296436  30.4334044  59.4102526
  88.6816120  26.4286685  59.1166306  89.1784668  25.6254816  58.9608860
  88.3375835  26.3291621  60.0043106  41.8518925   6.3285267  66.2559795
  42.0709944   6.8901312  66.9995070  42.5470400   5.6707031  66.2396622
  22.7288795  21.8430352  49.7961617  22.9561806  22.6145625  49.2772102
  23.1938481  21.9656038  50.6238174  53.5096312  33.3862948  67.9458523
  53.7382650  33.8794994  68.7337017  53.2264900  32.5320053  68.2718134
  43.0394936  30.1047206  65.9621763  42.9112959  29.7533131  65.0810957
  43.6705065  30.8152342  65.8471918  21.4665437  13.9186442  81.0994530
  21.9402003  14.3019819  81.8376541  21.4938068  14.5933461  80.4210281
  19.0724528   0.2584953  60.8564806  18.9320421   1.0894823  60.4026318
  19.5221984   0.5007109  61.6659832  24.1465521  22.2067404  52.0944691
  25.0469232  22.3812556  52.3685265  24.0872455  21.2519741  52.0607471
  27.3321700   7.3491675  43.9817667  27.2349334   8.2468098  43.6639357
  26.4367914   7.0144486  44.0316868  74.9444225  94.6267298  72.1030903
  74.2118873  94.0351275  71.9309521  74.6141373  95.2293405  72.7694273
   8.0898423  95.0120482  68.7487364   8.2927127  95.9118262  69.0046120
   7.1614785  95.0326238  68.5164547  89.1049198  77.3218409  43.0292654
  88.8769535  78.1098405  43.5225344  89.6814922  77.6341978  42.3319626
  96.2850575  38.7781278   9.9587461  95.9552102  39.6750740  10.0127717
  97.0519261  38.8388471   9.3891355  67.0967722  21.3837624  60.3532076
  67.4456167  22.1436286  59.8872232  67.3959160  21.4979029  61.2552691
 107.8883985  69.4756237  68.9464188 108.6907128  69.1693488  68.5236645
 107.9178218  69.0916554  69.8227358  52.0171165  31.3243961  69.6022654
  51.2511778  31.5648627  69.0809774  51.8338299  31.6759086  70.4735184
  99.2485074  63.4397164  88.9641666  98.7569240  64.2491809  89.1032600
 100.0877694  63.7278501  88.6052036  64.7745614  57.7103213  -0.0446204
  64.3170123  57.8906874   0.7765695  64.0750317  57.5692371  -0.6825713
  75.2068452  96.2317297  56.9977617  74.8537656  96.3773635  57.8754616
  76.0856295  95.8832595  57.1478939 108.6461762  83.3480373  48.1295395
 108.7422065  84.0886394  48.7283087 108.8256482  83.7150589  47.2639084
  77.7793235  85.5425147  76.6604614  77.4241982  86.3199977  76.2296057
  77.1074582  85.2921907  77.2946262 101.3910203  41.5599731  32.2609350
 100.9401755  41.3436285  31.4447519 101.9529061  42.3012249  32.0349809
  95.5904249  94.4977132  81.3393879  95.1179150  93.6661712  81.3781548
  96.4246634  94.2799941  80.9236050  98.8506869  78.3073155  65.0530434
  98.3163956  78.2123438  64.2645359  98.3865336  77.8005305  65.7193470
  90.9819416 103.6557528  66.2792921  91.6567591 103.0678577  66.6187525
  90.8694474 104.3130796  66.9659519   3.6339098  13.1871331  74.2404652
   4.4295907  13.5510170  74.6286821   3.8166127  13.1595957  73.3012676
  44.5725822   1.7853391  41.0316181  44.3239641   1.7288387  41.9542408
  45.2131701   1.0840818  40.9128046  12.3384090 103.9901953  73.9154196
  12.8224702 104.3101779  73.1541538  12.9458852 104.0963922  74.6474886
  59.2623615   4.8230219  56.3842916  59.3210745   4.7352344  55.4329348
  59.0615129   5.7478863  56.5275383  17.1917367   1.8438867  49.5647240
  17.3226511   2.1318537  50.4681444  17.7007973   2.4619101  49.0401888
  85.6183223  94.3554369  78.3500338  85.8275405  95.0550887  78.9688587
  86.2944475  93.6943284  78.4984207  12.9511399  99.9744469  86.5195560
  12.9114194  99.0792540  86.8561363  12.5467057  99.9228833  85.6535244
   5.0394446  10.7148933  86.8830585   4.7389215  10.1338220  86.1842918
   5.9879631  10.5887341  86.9081306 104.8305897  97.1807191  70.3064775
 105.1038460  97.9076228  69.7468567 105.5236772  97.1101323  70.9628916
  27.0207548   5.8925414  57.8714466  26.3374782   6.0757625  57.2266245
  26.8829513   6.5447867  58.5583353  52.2913504  16.6455793  84.0438461
  52.8207064  17.4165154  84.2479801  52.8575802  16.1053240  83.4927273
  66.7041397   4.8281714  65.3318739  66.3824224   4.9266180  64.4357491
  67.6548815   4.7665069  65.2396107 102.1019368  73.6692432   2.3554536
 101.6522412  73.3370952   3.1324216 101.9126706  74.6075396   2.3519536
  13.1249547   9.4736320  38.2680011  14.0133989   9.1221583  38.3260155
  12.7163005   9.2300355  39.0985990  95.3585056  66.9562951  89.0175819
  95.0014070  67.6861182  88.5115528  95.1798824  66.1833707  88.4819412
  73.0715140 100.9569076  45.0585079  72.9052972 100.4648349  45.8625412
  73.2838479 101.8408272  45.3582287  77.9970174  65.8220521  12.9328176
  78.4904914  66.4585058  12.4154683  77.0803146  66.0606030  12.7950307
  79.1820478  22.0016050  81.0363674  78.6423302  22.5997305  80.5194664
  78.5539675  21.4112568  81.4525890 105.1037768  67.8047887  69.8118401
 104.2604975  67.3662082  69.9247980 104.9100975  68.5552445  69.2501163
   8.2584281  97.5285313  73.0011892   8.9798494  97.8840706  73.5202074
   7.4846978  97.9974750  73.3136988   5.3614135 101.1987141  37.4284911
   4.6894546 101.8802143  37.4446988   5.7286544 101.2033862  38.3124256
  31.0827017  11.6095340  78.3397675  30.5107379  10.9395206  78.7141657
  31.6606188  11.8609369  79.0602112 101.5808467  96.7599974  90.4205227
 100.8339719  96.6989109  89.8249722 101.5959266  97.6776377  90.6924438
   8.5152574  99.5601950  49.0418243   8.8192506 100.3191728  49.5395947
   8.2075162  98.9449022  49.7073603 109.4409161  15.6442368  29.3295527
 110.3457556  15.8730352  29.1170716 108.9175960  16.3361394  28.9250302
  76.9900725 100.7713137  60.0884199  77.5783137 100.7755480  60.8435249
  77.4645690 101.2552056  59.4124508  39.7148609  38.5473037  32.0741916
  40.0471497  38.0815983  32.8416109  38.9548898  39.0308762  32.3979688
  16.0276933  99.1713760  42.6935673  15.6614204  98.8528815  43.5185766
  16.7702050  98.5922507  42.5217581  40.3232193  46.7939281  67.5965691
  39.6697307  46.7677736  68.2954979  40.1550293  47.6194477  67.1421909
  41.2653637  29.2618585  29.4353986  40.8969879  28.9489913  28.6091757
  40.8149767  28.7502313  30.1074266  14.3346067 103.9476362  62.1897221
  13.6196609 104.5737199  62.3042107  15.0673623 104.3299097  62.6725912
  65.8270864  56.0750491  19.4392892  65.2481417  55.5625416  20.0035497
  65.3449397  56.1616317  18.6169263   7.0149465  91.6301600  41.8313122
   6.2388606  91.6757074  42.3897409   6.9092460  90.8153001  41.3403273
  23.5172486  34.3797493  57.9752922  23.7491965  34.1606641  57.0728302
  23.6796904  35.3206563  58.0426598  29.1338778  10.0795293  75.5280828
  28.3463264   9.5741427  75.7295179  28.8996291  10.5890012  74.7523260
  32.3208737  29.9772668  83.1719875  32.4326897  30.2766156  82.2696972
  31.3848591  30.0797224  83.3440685  96.7353038  89.3451015  50.7759571
  96.5941218  88.4034256  50.6782579  95.9287051  89.7434262  50.4488945
  19.0899146  31.4942217  60.4575586  19.9231100  31.0491252  60.3029442
  18.4280682  30.8144546  60.3306389 109.4791429  15.0895548  36.7516613
 108.6232042  15.3877759  36.4439869 109.8024201  14.5245886  36.0498524
  97.9785446  94.8982594  83.5064411  97.5514272  94.9589262  84.3609142
  97.5521878  94.1562143  83.0777073 108.9983133  95.9059123  54.9007893
 108.5531262  96.7417834  55.0399303 108.9027170  95.7367388  53.9635181
  83.2255750  66.5567020   2.4958345  82.9652076  66.5349356   1.5749856
  84.1489796  66.3046686   2.4896642  85.7364277  89.3433038  60.0591087
  85.0276128  89.3056503  60.7012892  85.7643191  90.2604893  59.7866726
  36.0321236  20.8679891  81.8815994  36.8606591  21.3396716  81.7962933
  35.3607202  21.5393615  81.7603207  98.9667157  77.5351111  59.8775768
  98.2705311  78.1032148  59.5477009  98.9723829  76.7897764  59.2770147
  24.5962091  59.7331134  66.1566210  25.0223394  59.0660421  66.6948223
  25.0392194  60.5486909  66.3907480  45.5417967  11.0995209  82.7394199
  46.2245846  10.4307353  82.6869011  46.0068655  11.9268799  82.6152325
  75.5442266  46.8683092  14.0340253  75.2896051  47.5277520  14.6794244
  75.6012468  47.3501829  13.2089349  50.9297371   1.2146399  85.3141594
  51.8078279   1.1058305  84.9489880  50.4311180   1.6397032  84.6163559
  84.0699296  72.5271396   3.5676786  84.8478417  72.7951983   3.0785772
  83.3352856  72.8173021   3.0270025 109.3662456 104.3390294  38.8743496
 109.6453575 103.4249509  38.8215327 109.8042396 104.6784835  39.6548390
   8.5642333  87.8077022  65.0873947   7.6603503  87.9257456  65.3794479
   8.7843843  86.9126419  65.3455305  24.6276164  14.0470266  81.5700817
  25.2568793  14.7482419  81.4010906  24.5425963  13.5941827  80.7310677
  79.9523494 102.1004472  76.2790394  79.8070232 101.3905052  76.9044161
  80.8131973 101.9161463  75.9032679  39.4066668   6.6810983  62.4983168
  39.2633104   7.4498522  61.9463205  39.3288469   5.9383959  61.8995094
  38.9267683   1.4465828  59.4425535  38.9528632   0.8789760  60.2128601
  39.8111892   1.8074587  59.3808842  70.7698822   0.3469901  67.8812265
  71.1630440  -0.3588236  67.3679161  70.0032330   0.6136923  67.3739290
  12.2598739  87.1573106  52.6509285  13.0436559  87.4988440  53.0813599
  12.1220060  87.7418188  51.9055557  27.8692079  45.8819532  80.8525562
  28.3588433  46.5827322  81.2831402  28.5430074  45.3048801  80.4930973
  66.9326591   4.9675706  79.2505407  66.2698841   5.1711059  78.5905933
  66.4325142   4.6492514  80.0020504 105.3152374  90.8195499  37.6711583
 105.7633189  90.4577843  36.9065809 104.5931963  91.3309005  37.3059106
  39.0847158  16.0049415  86.2901688  38.8740325  16.4110518  87.1309566
  38.5726929  16.4995396  85.6503010  28.5492921  12.9582798  77.8340816
  28.3918953  12.5451827  76.9850731  29.4309926  12.6764309  78.0777931
  82.3589234  79.5790676   1.2455770  82.6840787  79.8746423   2.0959588
  81.8878608  80.3343371   0.8935758  99.5432524  98.1566260  24.5916510
  99.1894106  98.9678726  24.9562168 100.2835897  97.9419163  25.1591301
  95.7682996  66.9974259   3.9274427  95.0154071  66.4955846   3.6151239
  96.5218453  66.4347807   3.7490388  48.9618587  39.5102382  47.5118494
  49.3835974  38.6510468  47.5244474  49.5236111  40.0608110  48.0573225
   7.0660396  92.7034191  48.7907600   7.9987235  92.7450017  48.5795546
   6.6341443  93.1359795  48.0541515  35.7327533  28.9503193  77.7527189
  36.1568069  29.7327304  77.4002409  36.4150476  28.2792234  77.7343273
  13.0814786  90.7583550  63.3396626  12.2890706  91.2949673  63.3204556
  12.7945228  89.9203626  63.7025070  23.3916569  11.4153588  68.6203194
  22.5010657  11.5357935  68.2908106  23.2791328  10.9549177  69.4519234
  52.4629259  32.5420189  73.3848095  52.5808573  33.0843282  74.1646957
  52.6681185  31.6540027  73.6773109  44.6738386  70.3946829  47.7421427
  45.1266670  71.2003708  47.9912281  45.3219891  69.7036600  47.8785896
  16.6260433   7.5941610  61.2491512  15.7145655   7.3789984  61.4470053
  16.5711093   8.2976317  60.6023598  29.4730997  27.6860833  65.2145052
  28.9438772  28.4562755  65.0072384  30.3630280  28.0255103  65.3096294
  16.7829871  11.3199806  63.0498838  17.5487018  11.8497586  63.2718086
  16.6120982  11.5197730  62.1294975  62.0181751  37.1211553  56.2400198
  61.4950228  37.1601343  57.0406628  62.5013542  37.9473829  56.2291670
  90.0461006   9.7142267  52.7038145  89.7865772  10.6347120  52.7436352
  90.5991459   9.5877379  53.4747648  36.3847490 103.2939709  50.2844620
  37.0657058 103.9396350  50.0956726  36.8451972 102.4548108  50.2897263
  46.1096525  44.5242691  47.8039312  46.6886091  43.8529634  48.1650162
  45.2871370  44.0650749  47.6341009  40.9619331  42.7631044  46.6289806
  41.6398811  43.2889652  46.2046099  41.3460779  41.8892527  46.7000580
 105.9196595 101.0858795  60.2651310 105.1227764 101.6144649  60.3076649
 106.6324786 101.7226449  60.3165817  37.1569824  35.5094004  42.0556068
  37.3832583  35.6956553  41.1443806  37.9985309  35.4841042  42.5110054
  59.6863604  40.9972572  79.5276928  59.6781731  40.6509876  78.6353588
  59.8518610  40.2329588  80.0796795  64.8823977  26.8566012  64.4359303
  64.7451925  26.0127759  64.0053844  64.3229055  27.4653530  63.9536238
  27.0250750  32.7420449  49.6937561  26.3965893  32.3151517  50.2759933
  27.7644587  32.9629683  50.2600956  43.5155582  46.0004759  45.3976631
  43.8620377  46.0133314  46.2898588  43.5333014  46.9165277  45.1206064
  13.2782495  34.6949983  42.4426460  12.5332260  35.1931834  42.1065140
  13.5823500  34.1836500  41.6927910  34.0128660  53.0073547  64.9784088
  34.0957165  53.9022636  64.6490049  33.5606718  52.5355864  64.2789888
  89.3956284 101.5867499  16.6024133  88.5527329 101.8431214  16.2282106
  89.4628577 102.0941667  17.4112722  28.1462049  51.1881876  47.6002645
  27.5092292  50.4763889  47.5383234  28.9040375  50.8750772  47.1064138
  82.0386696  19.4171751  76.4063644  82.4757290  19.5293307  75.5621910
  82.4402142  18.6335385  76.7817354  71.2404633  25.0063801  67.5014162
  71.2657118  25.2435422  68.4284306  71.4110088  24.0645599  67.4904108
  72.1280956  21.6514087  61.0312080  72.5990915  22.1021700  61.7320728
  71.2947273  21.3972449  61.4275980  64.3169498  15.5779994  57.3438501
  65.1314974  15.4242933  56.8651915  64.3972445  16.4736593  57.6718378
  52.4413157  25.0754929  52.1136236  52.6762819  25.9596777  51.8321276
  51.5729380  24.9277139  51.7390490  83.2692242  24.5503163  71.2999821
  83.5268116  24.0670085  72.0850229  84.0863800  24.6771145  70.8178854
  54.9813318  42.8317118  77.7765226  54.5768261  42.7293253  78.6379910
  55.6056881  42.1085691  77.7176142  57.6468039  28.1300640  50.7414532
  57.6290131  28.2183719  51.6944075  58.2332230  28.8270426  50.4472351
  35.1008010  16.8750536  69.6888685  34.9244094  16.5128922  70.5571747
  36.0544252  16.8528140  69.6092844   7.0423599  72.9046110   9.6686670
   7.5081059  73.7386707   9.6081754   7.3818394  72.4980000  10.4659482
  51.5495014  30.0179839  85.1183796  51.1144352  30.8155680  85.4197216
  51.2840033  29.9316454  84.2027950  41.5642929  42.1463537  71.7420530
  42.2367859  41.6781855  72.2368336  41.3362265  42.8933191  72.2954607
  93.6569648 100.5915669   6.2798234  93.7370782  99.6791104   6.5577337
  94.5588116 100.9098748   6.2400075  27.4513049  97.4839071  42.3480320
  28.0136628  96.7177901  42.4622679  28.0222316  98.1434939  41.9540548
 101.5267567  92.2105245  11.3704988 101.1113314  91.4267735  11.0107919
 100.8030276  92.7181796  11.7375680  55.2016258   9.1734594  85.0461960
  56.0345173   9.6292621  85.1677132  55.3764963   8.2756913  85.3284550
  12.1386182  18.1336737  54.9865961  11.8032265  18.1431961  54.0901279
  11.4143419  17.7900660  55.5096531  41.6363144   8.2831675  79.3347454
  42.0906067   9.0387970  78.9620876  40.8711433   8.6558205  79.7727776
  54.0167379  12.9640734  86.1874390  53.6171150  13.3545554  85.4102230
  54.9196720  12.7823400  85.9268379  52.1369648  14.3080699  56.8325663
  51.4191628  14.1274714  56.2256241  52.0444202  15.2371907  57.0432806
  68.2275343  15.9216726  70.7333231  68.1938267  15.4649544  71.5738630
  68.3044624  15.2227271  70.0838709  26.6179299   3.0911726  81.1197281
  27.4555516   3.5475847  81.0402966  26.0366797   3.7279525  81.5355301
  49.3453789  23.7253642  28.8156962  48.9815950  22.8406596  28.7811685
  49.0687084  24.1303468  27.9937029 103.9266782  67.5493721  29.3501302
 104.6216969  67.9142992  29.8978635 104.3833737  66.9779161  28.7327977
  38.2274914  15.2939141  68.7418699  38.9193559  15.1865256  69.3945742
  37.6422906  14.5507991  68.8886690  47.1799517   4.7620192  84.7740936
  48.0975866   4.5578939  84.9544144  47.1547651   5.7168549  84.7117615
  18.1578505  21.0775065  44.8782444  17.2501242  21.2349415  45.1380110
  18.1517231  21.1594915  43.9245796  51.8579245  41.3285875  72.3620844
  52.6712942  40.9345388  72.6773453  51.2041759  41.0854340  73.0176163
  30.3731394  20.7264781  88.0328941  30.8403277  20.1524091  87.4259186
  29.9148297  21.3493252  87.4687576  14.5134258  13.4832835  86.5671349
  15.2653766  13.5808969  85.9829426  13.7570226  13.4549940  85.9812260
  42.2529221  38.7768173  30.4753184  42.2258186  37.8901100  30.1158094
  41.4337540  38.8626862  30.9629869  93.8033581   7.0113689  72.9358387
  93.7960625   6.1275035  73.3032084  94.3621635   7.5128925  73.5295010
  86.4572040  79.3892590  55.4462099  86.6600064  80.3102223  55.2820969
  86.0374240  79.3860546  56.3064480  32.5098319  87.1374479  88.3870888
  31.8175931  87.7947465  88.3163834  33.1090779  87.3425618  87.6694012
 102.8435328  22.9087353  63.6605883 102.6898547  23.3208227  64.5107651
 101.9948979  22.5392294  63.4166288  19.3123949  20.8202362  56.6010094
  19.6962845  20.0071859  56.9293594  18.5550618  20.9728599  57.1661520
  20.3544641  24.7411823  22.1746659  20.1926517  24.2656064  22.9894519
  21.2941337  24.6416998  22.0218372  48.6508894  24.8685479  89.8324871
  48.6500072  24.1733885  90.4905033  48.5309839  24.4108605  89.0003967
  17.8453696  16.6242743  58.6481333  17.1100461  17.0127070  58.1741571
  18.6226106  16.9677401  58.2074976  34.0554328  73.8606897  85.8066940
  33.6890931  73.2412354  85.1755810  33.3194633  74.0864602  86.3755608
  44.8374844   0.8966169  75.5235243  44.0825176   0.3136640  75.6036711
  45.1814842   0.9668124  76.4140129  52.1371317   7.2480440  59.1424513
  51.8002462   6.4281988  59.5038271  52.9968452   7.3539531  59.5497656
  40.1048660  33.3614802  81.7655373  40.1390314  34.2471290  82.1270561
  41.0128069  33.1600380  81.5390587  91.7800251 103.4276371  58.8245440
  91.3224283 103.9996881  58.2084322  92.0513777 104.0090040  59.5349073
  44.8681259  27.6608443  67.9337931  43.9406013  27.8178740  67.7569675
  45.3029442  28.4715915  67.6694965  39.5664120  17.7543056  72.1191072
  40.3156948  17.2201443  72.3826981  38.9206386  17.6199532  72.8127623
  39.6840477  14.7888601  70.8360720  39.9669313  13.9420497  71.1812115
  40.1872063  15.4314995  71.3361454  28.2408900  99.5835224  61.2321949
  28.9183946  98.9293394  61.0611248  28.4063001  99.8704294  62.1302795
  41.3718557  36.5372992  66.8444729  40.7650948  36.5642834  67.5843000
  42.2400856  36.5223908  67.2472000   9.5042510 100.0270930  72.3580742
   9.5813699 100.0843296  71.4057016   9.8309560 100.8688280  72.6758432
  54.3499851  32.4850941  57.2229004  54.8877764  31.9398022  57.7970695
  54.6022081  32.2222400  56.3377285  39.7170448  21.2941957  73.8551998
  39.2676449  21.7801785  73.1637573  39.1571879  20.5348253  74.0169191
  23.9763069  29.2806315  74.9725485  23.6708045  29.3467641  75.8772707
  24.6067953  28.5605145  74.9846792   7.6643033  83.1204644  58.8226748
   7.0268006  82.9469458  58.1300640   7.6241346  82.3465625  59.3845415
  99.2665509 100.3630627  63.8670874  99.9629048  99.9006331  64.3334389
  98.9853719  99.7502378  63.1876612 110.8504920  45.7170872  17.5128957
 111.6908126  46.1427192  17.6829835 110.6489091  45.9396265  16.6040155
  50.6634378  16.7815208  53.3984613  51.4466906  16.2363029  53.3243752
  50.6542253  17.2982597  52.5927782  67.4533987  22.6610446  42.3031044
  67.7913809  21.7879653  42.5024366  66.5885878  22.5024605  41.9247055
 103.4641366  72.3740057   9.5602914 103.3354478  71.5360311  10.0046655
 104.3903212  72.5758580   9.6932336  95.2125343  12.8470373  63.0779028
  94.6055444  13.4297621  63.5342264  94.7201356  12.0350981  62.9573679
  58.4974194  12.9059184  79.0105581  58.6419296  12.7244461  79.9392223
  57.5926590  13.2150340  78.9648819  50.6535959  35.5316067  58.9596176
  50.3945494  36.4158130  59.2190552  51.5749025  35.4683471  59.2114496
  92.9898314  57.7894060  15.4781457  93.7796168  58.0691341  15.9409829
  92.8578429  58.4567217  14.8047181  13.4683681  15.9903491  57.2151613
  12.8650272  16.5906119  57.6532221  13.0169475  15.7438004  56.4079046
  57.9491644  63.3573131   0.6793710  58.2045798  64.2365698   0.4002687
  57.1759586  63.4948901   1.2266084  36.0554981  27.5097990  57.1709061
  35.6417680  27.5660300  58.0322409  36.2530470  28.4175754  56.9403648
  87.4795246   2.4034680  67.2007656  88.1106186   2.3645799  67.9194069
  86.9817924   3.2049838  67.3622179  16.2642045  93.0521360  73.8168430
  15.3591294  93.3636860  73.8206816  16.7919870  93.8499347  73.7822962
  59.6292782  32.3633838  85.3015041  59.1520309  32.8339767  85.9848881
  58.9790201  31.7758894  84.9164772  37.4423218  38.5418963  68.1275654
  37.9852176  37.7835464  68.3429670  37.9163003  38.9833474  67.4227953
  62.2409391  43.0058861  53.6563015  62.4356079  43.9093304  53.4070444
  61.6643763  43.0859947  54.4161606  62.3433685  26.0611105  52.3495626
  63.2504034  26.2984419  52.5424147  62.2408438  26.2456083  51.4159250
  41.8526173  28.1178784  79.8040581  41.5807295  27.8043437  78.9415026
  42.0198679  27.3207426  80.3068829  34.8628902  35.4807997  68.1859636
  34.3952608  34.9625945  67.5309658  35.7794976  35.2243567  68.0844641
  54.5736361  13.3887410  56.6193438  53.6701059  13.6947048  56.5402794
  54.6714592  12.7466309  55.9162426  37.6321693 101.5903977  64.5046139
  38.5274406 101.5925330  64.8433113  37.7038140 101.9858450  63.6358643
  43.4663725  43.1126738  69.6470022  44.3373013  42.7281141  69.7461653
  42.9265404  42.6518631  70.2892399  19.3062015  97.9429374  65.4268742
  18.8718696  97.4392209  66.1152458  19.7809930  97.2884980  64.9145126
  21.3820739  91.0964838  86.6473007  20.7710834  91.7820493  86.3772583
  21.0798354  90.3122595  86.1891842 101.1094288 103.6508149  30.3875732
 101.5366486 102.8840402  30.7693744 100.5425195 103.2935885  29.7040272
  14.2514956  33.5146928  62.7807426  13.4163666  33.5545874  63.2467890
  14.5714331  34.4168329  62.7849054  24.7733307  21.3570189  62.0681524
  24.9939418  20.8912039  62.8747368  25.5954909  21.3919282  61.5792084
  68.0791426  23.7515545  59.5083284  68.5530472  24.3170977  60.1180887
  68.3316326  24.0692806  58.6414194   2.7199788  90.5873684  44.9241924
   2.1388431  89.9808982  44.4651651   3.2672782  90.0256148  45.4729414
  71.8710852  14.1770244  64.4735241  72.6876831  13.9995050  64.0067434
  71.2541485  13.5300314  64.1314363  76.1354517  99.1580800  56.8096018
  76.5917682  99.9990789  56.8365955  76.8102700  98.5273859  56.5584517
  42.4968624  16.4351547  66.2009525  42.1564579  15.8844626  65.4959011
  42.4345779  15.8877814  66.9837284  88.4299331  88.4555749   4.9486085
  88.9310937  88.9465145   4.2974111  87.9941993  87.7670840   4.4462606
  43.8242149   7.7844971   6.4214301  42.9531813   7.8426880   6.8140483
  44.3625498   8.3792233   6.9436634  11.5470596  99.4386241  84.2479038
  10.8752294  98.8084338  84.5081711  11.9150157  99.0771345  83.4415722
  26.7507482  38.9031529  86.6872311  26.2373614  39.6898222  86.5033436
  27.5613189  39.0251637  86.1929417  40.8359432  26.4678192  28.0483556
  40.5893326  26.8613791  28.8853288  41.7634392  26.2534690  28.1485105
  48.4629059  24.0831137  45.3892708  48.1162691  23.1941152  45.3133965
  48.5870743  24.2123318  46.3295460  14.2560811 100.2307430  89.7901058
  14.8186822  99.9847007  89.0558147  14.7445960 100.9152973  90.2472401
  40.1401515 103.5832938  85.0453854  40.1439948 103.3554461  84.1157055
  40.0001426 102.7502510  85.4955769  75.2846861  32.0393562  36.6470313
  75.0713921  32.9672432  36.5482163  74.4472742  31.6210890  36.8471003
  43.2999086  47.6280069  38.5597563  42.6507807  47.9233456  39.1982269
  43.5808706  46.7717457  38.8824105  52.9634857  10.1450634  76.2429905
  53.2941198   9.9637085  77.1227741  53.5773659   9.6987826  75.6597090
  64.5609665  29.7794747  68.3991957  64.7845268  29.4815683  69.2809582
  63.7068605  29.3851233  68.2225037  14.2645514  35.6325579  84.0771866
  13.6304200  34.9720526  84.3561840  14.9249983  35.6382346  84.7700119
  27.5323725  37.9913378  56.6116905  26.8526006  38.5371089  57.0070028
  27.8874230  37.4845290  57.3419762  17.0543003   3.8567457  89.5479965
  16.2234533   3.4790000  89.2595005  17.1216357   4.6821564  89.0680027
  41.4096255  91.4365891  68.9105844  40.7385726  90.7540396  68.9174938
  41.0261102  92.1546248  69.4141483  34.5532990  25.6169105  67.5182390
  33.7861705  25.0445485  67.5060606  34.9452114  25.4738593  68.3797312
  39.0568447  45.1302052  58.8278008  38.2339215  45.0287342  59.3060637
  38.7933278  45.4360914  57.9599142  45.0977325   8.9898300  68.3357286
  45.8922052   9.2102998  67.8494835  45.0486469   9.6505356  69.0265894
  56.2198973  26.0331631  73.6935282  56.1207247  26.6852736  74.3871784
  56.5040493  25.2405524  74.1487885  62.3862457  -0.1818889  60.3195333
  62.6115036   0.7247604  60.5280447  62.4417448  -0.2290460  59.3651056
  64.6825647  16.5806890  79.3124819  63.7811613  16.5581882  79.6337318
  65.0948763  17.2900724  79.8054361  39.4710302  30.7920790  82.7842903
  39.6091723  31.6497993  82.3824692  38.8674426  30.3442907  82.1914959
   4.9811304  39.6244979  60.5938864   4.6947095  39.5150423  59.6871281
   5.8153450  39.1573501  60.6396055  36.1578441  51.4405966  82.9624462
  35.5690217  51.7136049  83.6660004  36.0632944  52.1192741  82.2940922
  73.5692787  20.4839921  64.3134642  73.6028433  21.4391804  64.2613029
  72.7348042  20.2510738  63.9064837  47.2414112  35.7496166  65.6992579
  46.9459438  36.6302419  65.9304047  48.1932545  35.8260226  65.6330395
  90.7874446  92.3344282   2.5114747  90.2334266  92.9283122   3.0180284
  90.7208018  92.6537780   1.6115876  76.5893078  14.6605170  74.1083241
  76.6203880  13.8004804  73.6892748  76.0424471  15.1900733  73.5280275
  85.3705311  14.5024335  45.7634497  84.8759747  13.7164044  45.9953928
  86.2703896  14.1953480  45.6530523  25.5829711 101.8331695  36.4098096
  25.0731178 102.6430297  36.3895631  26.4321037 102.0754230  36.0403347
  39.7128439   5.0413829  65.2469206  39.0886664   5.7650656  65.1928854
  40.4705954   5.4119337  65.6994009  43.2756567   5.2661067  83.8082886
  43.6406612   4.4019338  83.6180019  42.3440552   5.1827127  83.6048412
  58.5625648   7.6340306  73.5642719  59.4766235   7.5203937  73.3038568
  58.1083202   6.8859148  73.1766891  43.4520483  41.8258333  82.9783821
  43.4303045  40.8847141  83.1517506  42.6755667  41.9887257  82.4428654
  43.9555454  19.5005393  74.7789145  43.7052965  19.6274042  73.8637543
  43.2022047  19.8146296  75.2789688  18.5325904  91.0099903  57.1730137
  19.3746133  91.4359847  57.0125341  18.2611461  91.3321487  58.0325270
 100.3770355  96.4515421  78.1706572 100.4062942  95.7243213  77.5489473
  99.4469551  96.5593252  78.3695698  60.3693724  24.2611909  53.1173277
  60.6092548  23.3906746  52.7996969  61.1080217  24.8179531  52.8710651
  58.0039549  37.4728918  60.5074739  58.2620192  37.0720029  59.6774626
  57.5645351  38.2848883  60.2548742  36.3807034  11.9679046  66.2195349
  35.5105948  12.3566628  66.1300373  36.9610143  12.7129543  66.3756466
  74.9566412  21.0113430  67.1245861  74.7558594  21.5312982  66.3464069
  75.5960703  21.5368938  67.6053715  76.4274340  88.6202601   0.2292177
  76.1233859  88.9659575  -0.6099967  76.6150765  89.3979553   0.7547780
  20.8661127  11.9292796  78.4941101  21.5170264  11.5554261  77.9001617
  21.1346459  11.6300130  79.3627644  17.7954960  26.3087916  91.0166550
  17.7984631  26.9271612  90.2860069  16.8681955  26.1416864  91.1852360
  37.0066667  28.4703994  74.9919748  37.0185614  27.8687286  74.2476082
  36.4683080  28.0284858  75.6485653  13.5629555  62.4611811  10.9877321
  13.7764164  63.3890585  11.0862848  13.3275028  62.3662964  10.0648042
  36.0742378  13.2686639  46.4773273  36.0870004  13.6760604  45.6112432
  35.1465797  13.1141877  46.6557026  52.3004866  46.8771791  90.9583282
  51.6700602  46.1577511  90.9234333  52.3754263  47.1741676  90.0514603
  99.8008447  84.7109035  17.5064012  99.1228442  84.8858336  16.8537542
  99.4119363  84.9880175  18.3359739  48.5572529  16.8520546  66.7464972
  47.8622770  16.8630826  66.0883808  49.2454386  16.3111997  66.3590670
 105.8085494  52.7041756   7.3580381 105.7283931  53.5219991   6.8671533
 105.8389621  52.0233673   6.6858789  54.4561243   8.4308672  82.3775864
  54.0163898   9.1903847  81.9954872  54.5518970   8.6506641  83.3042717
   5.5552669  95.3514585  67.4736547   5.0621743  95.8569977  68.1198120
   5.7416911  95.9759078  66.7725515  16.5281439  58.6307716  45.5566931
  16.9250882  59.4879103  45.4018307  17.1068490  58.2102013  46.1926603
  74.1458659  94.1207580   0.1349565  73.4346061  94.6095876   0.5489465
  74.0879683  93.2446603   0.5161783   4.8952813 105.1713322  73.4393930
   4.8836799 104.8511169  72.5374174   5.3686996 104.4971555  73.9268208
  58.7939310  33.0573249  74.9872541  57.8715992  32.9021716  74.7836304
  59.2724752  32.5761795  74.3121767  31.7642236  15.3330803  64.6345234
  31.0176563  14.7344589  64.6574116  32.1339869  15.2886236  65.5163002
  44.0469643  56.1617101  14.5018407  43.9092633  56.5672705  13.6458036
  44.2030331  56.8979148  15.0933381  85.1030484  91.9530538  68.1176281
  85.5281464  91.1897186  67.7266788  84.2379264  91.9809214  67.7089500
  62.1491671  17.0314062  52.9108191  62.7050066  16.5295827  52.3146248
  62.1731138  16.5395868  53.7316561  89.1297054   8.4454650  43.4969282
  88.9140987   9.3254864  43.8056421  89.6129990   8.5888088  42.6832247
  47.6251793  13.6328971  48.0921030  47.2215271  14.4024587  47.6907635
  47.0403242  12.9099083  47.8652477  40.1779938  13.3386099  36.8291521
  40.9614325  13.8116419  37.1096778  40.0155544  13.6508608  35.9390140
  67.2967415  51.9531680   3.7968751  67.2496347  51.4469355   4.6078893
  66.9951944  52.8277657   4.0425988  66.7872572  12.6903343  80.2095509
  66.9823408  12.8255022  81.1368656  65.8743715  12.4027765  80.1962757
  70.1222234  68.1681911   4.2645284  69.4152670  67.7286712   4.7370454
  70.0269418  67.8704409   3.3598253  24.2375465 105.0575562  51.6966581
  25.0405832 105.1393167  52.2111273  24.2446752 104.1530067  51.3836575
  51.8767595  36.1585379  77.0282316  52.7007246  36.5963411  77.2418690
  51.5773964  36.5890527  76.2274361  76.7539930  38.3878875  87.0044422
  77.1409559  37.7935791  86.3615704  76.3934040  39.1041827  86.4818287
  91.5043405  75.8779994  51.0332155  92.1908680  75.6442658  51.6579390
  90.8847550  76.4004031  51.5425682   7.5610304  22.7834654  77.1452427
   7.2970080  22.5060511  78.0224943   6.7853671  22.6364803  76.6039753
  48.3381271  21.3449860  46.5927839  48.2532597  21.9974256  47.2880173
  47.5356579  20.8265162  46.6516161 104.3368129  90.0995580  81.7040920
 104.5946864  90.7427052  82.3644638 103.3970050  90.2391962  81.5879154
  42.5268793   7.0090824  29.0061617  43.3416462   7.5022221  29.1020679
  42.4576092   6.8414134  28.0663085  87.1050458  35.1713125  14.2066690
  86.9734101  34.2306189  14.3249914  87.5117307  35.4608468  15.0233766
 109.0783767 100.9241057  59.9558830 109.2948250  99.9923197  59.9898958
 109.7784117 101.3136417  59.4320107  29.5837164  12.7164304  46.3008404
  29.8360825  12.9773176  45.4151344  30.1095653  11.9369113  46.4799070
  46.1385536   5.8854139  80.3452587  45.2151155   6.1333525  80.3003597
  46.6093922   6.6576111  80.0317955  30.9883046   8.9815283  73.2731438
  30.2724099   9.3749917  73.7720537  31.6827607   8.8451779  73.9176369
  48.2458396 104.2256164  29.1956663  48.3043189 104.7774282  29.9756122
  48.7609763 103.4486273  29.4128180  46.2037134  21.6725922  59.0356302
  46.4625549  21.6602588  58.1141758  45.7824898  20.8248377  59.1774607
  87.4450854  94.2613140  57.0308018  86.9191853  94.8482970  57.5740433
  86.8218795  93.6096338  56.7096138  62.7859402  34.9322987  61.0825586
  63.5068560  35.3523564  61.5516615  62.5174713  34.2112899  61.6520357
  26.3302302  16.3064802  81.0278988  26.4998436  16.6810787  80.1635265
  25.7720327  16.9509983  81.4629173  67.2152615  12.9990029  83.0479050
  66.4222097  13.1607103  83.5589409  67.5153637  12.1374714  83.3376122
  53.2084274  18.4927201  60.8714199  53.5411310  19.1220319  60.2314901
  52.5181198  18.0202460  60.4061460  72.1106911  24.7100973  60.9356880
  71.7022228  23.9991546  60.4417849  72.6107597  24.2684293  61.6220522
 109.2629460   6.6833496  68.1624365 109.6220917   6.7663348  67.2790575
 108.8710604   7.5378013  68.3429050  54.6788073  34.3490791  48.5235262
  55.1871204  34.9583316  49.0589333  55.3118181  33.6853957  48.2495689
  50.8525515   1.1037298  69.4947195  50.1504230   0.5762196  69.8754835
  50.5793142   1.2481014  68.5887766  60.7531834  20.9049344  45.5849934
  61.2736511  21.6884089  45.7625008  61.2276030  20.1980209  46.0225201
  54.7684097  39.2502308  89.7856426  54.2146111  39.9553943  89.4505501
  55.6069279  39.6724010  89.9724293  66.5618038  27.8406858  72.7312756
  66.7890549  28.5660100  73.3130789  65.6073856  27.7854776  72.7788401
  43.6762714  43.2449007  48.5446453  43.6711311  42.5267363  47.9118347
  44.0538406  42.8631735  49.3370819  39.3175554  29.3293691  40.8480501
  38.4425402  29.7149801  40.8914757  39.8097157  29.9162769  40.2739906
  40.9938092  99.8756257  58.0439758  41.6059632  99.7543452  58.7697840
  40.5240007 100.6814033  58.2589912  64.6382236  20.6860566  79.0777016
  64.3315697  21.1375904  79.8640299  63.8548088  20.5890656  78.5363197
  81.5596125  79.7376052  58.3049488  81.4342562  80.0358358  57.4040747
  81.8475792  80.5184189  58.7778521  58.5648346  44.0566969  77.5941420
  59.2176485  43.4270763  77.2881269  58.6274862  44.0218592  78.5486507
  48.6107540  20.8010268  66.4980936  48.9880514  20.0349951  66.9306087
  47.7910042  20.4829788  66.1198235  36.6240306  96.8132845  77.1971750
  36.4985557  96.4184341  76.3342857  37.4482198  97.2943512  77.1228838
  46.0131216  18.0402303  86.4040184  46.7201948  17.6762784  85.8712769
  46.3972187  18.1415796  87.2749043  63.2502508  64.2993975  74.5427608
  62.5416279  64.9415016  74.5851040  63.5065746  64.2860413  73.6206198
  44.5454454  29.4829655  70.5132627  43.6493349  29.1480279  70.4810476
  44.6093655  29.9144793  71.3652849  53.4903955  40.7901335  62.1376562
  54.2355108  40.8794403  62.7318382  53.3012390  41.6847324  61.8545580
  68.5134506  32.2888398  78.1680727  69.1963243  32.9330468  77.9812193
  68.8034678  31.4951301  77.7184629  43.0148602  34.7213292  65.2060509
  43.3581161  35.6049371  65.3388834  42.1344233  34.8565674  64.8556662
  70.6587410  30.3448653  78.5427570  71.3781548  29.7770977  78.2665157
  70.1596451  29.8141694  79.1636419  59.5941162   5.0934041  45.4601240
  59.4855881   4.5323557  46.2280321  58.9917755   4.7300544  44.8109722
  55.1481915  19.9756491  82.4705982  55.6750250  20.3335428  83.1851482
  55.7440233  19.9529958  81.7217922  52.4955988  26.4646029  25.9319520
  52.7868748  26.5922189  26.8347836  51.8707180  25.7412338  25.9818673
  55.7605553  31.7051172  64.4357300  54.8086309  31.6047907  64.4352579
  56.0554552  31.1957455  63.6808777  64.9427986  26.2176108  48.0732965
  64.9095678  27.1001005  47.7040577  65.6673384  25.7929444  47.6140213
  30.5091834  37.7131820  83.6042786  31.2240434  37.8195333  84.2318916
  30.9259987  37.8091693  82.7479649  49.1196728  43.0003881  69.0063810
  48.3254671  42.8380823  69.5154238  48.8437891  42.9041195  68.0948734
  62.3035717  31.0419655  55.5747223  61.7783308  31.7531991  55.2079773
  62.8528070  30.7500577  54.8471546  55.6854343  27.0765591  71.2695360
  54.9211359  26.6495728  70.8825397  55.8763075  26.5613961  72.0533800
  41.4901972  28.4263873  53.9097595  41.4569426  28.6544299  54.8388052
  42.2537947  28.8965273  53.5749245  74.3799448  11.1555457  42.3890209
  74.9851847  11.8681490  42.5942326  74.9456596  10.4025865  42.2180033
  60.8711290  21.9523931  52.0193195  61.1176682  21.0442901  51.8438244
  59.9730873  22.0235753  51.6957664  54.6019983   6.2272167  56.3528538
  53.8303280   6.3561469  55.8013725  55.1018238   5.5420858  55.9090090
  96.3904433 102.1464614  63.0634424  96.5089183 102.1982554  64.0118715
  96.9000153 101.3802270  62.7999040  71.8629169  46.2762117  89.5382404
  71.6827202  47.2094345  89.4248486  72.2038698  46.2047148  90.4298019
  52.8998041  23.7960315  67.0545292  52.6984835  22.8737044  67.2126818
  52.0622635  24.1839337  66.8009663  63.6735725  34.4040680  52.6799250
  64.3753338  33.8019276  52.4325514  63.2654476  33.9955425  53.4433222
  55.1545429  39.0043092  69.3211031  55.6251717  38.2968116  69.7617674
  55.8437014  39.5615172  68.9594316  54.5428562  23.6595249  85.9170055
  55.4581070  23.3792830  85.9206295  54.0426874  22.8446889  85.9628868
  44.9405241  39.3663812  69.1377735  45.3071070  38.5454988  69.4664145
  45.1952124  39.3901300  68.2153893  66.9928169  54.7510719  82.7604294
  66.2782764  55.0736046  83.3096409  67.6787758  55.4130793  82.8466702
  58.7945652  33.5987091  87.6136017  57.8732634  33.7410688  87.8307915
  58.9127445  32.6511860  87.6804161 100.3630071  90.3236965   4.7484323
 100.1397376  91.2083940   4.4591352 100.4232936  89.8152999   3.9396497
 105.2297286  99.4792584  56.2123966 104.6863798  99.6699557  55.4477787
 104.8059920  99.9492655  56.9305706  18.9705272  99.4451741  57.4625349
  19.6489234  99.4390479  56.7872810  18.9479108 100.3509886  57.7711153
  56.0143089   8.7480712  64.6193171  55.9013796   8.1341451  65.3449726
  55.8038998   9.6033072  64.9941921  61.2293768  26.8106389  63.4562206
  61.6246033  27.6788783  63.5348940  61.9185114  26.2675595  63.0736065
  34.8979306  36.6258144  51.9954586  35.2446938  35.8157587  52.3693562
  35.3833556  36.7394781  51.1783457  25.7361317  21.8818021  64.9806786
  25.7474089  21.6926861  65.9189415  26.2338209  21.1657166  64.5860147
 106.6934213  20.8147848   6.2996312 106.8597731  20.5558956   7.2060224
 106.6614375  21.7710960   6.3257047  19.8191353  84.5165709  12.1315118
  19.0086933  84.2597798  11.6916581  20.2873226  83.6933664  12.2706815
  88.8450723  94.0860061   3.6751481  88.9693217  94.0936259   4.6242162
  88.4773784  94.9467544   3.4748002  67.5360918   2.6291370  74.6512365
  68.1109810   3.0557361  74.0158272  67.9081392   2.8586975  75.5027723
  49.3157864  34.7668028  71.2006807  49.7062492  35.3796744  71.8237066
  49.8580265  34.8451638  70.4157829  45.6339359   3.6089829  57.2406197
  45.7350874   2.6712590  57.4039412  45.5012751   3.6744496  56.2949228
  42.5307846  38.8207793  70.2507401  41.7803431  38.7998223  69.6569157
  43.2936335  38.8259912  69.6725798  65.8452225  31.2727332  23.1059337
  65.0339460  30.9911942  22.6830935  65.6520319  31.2367511  24.0427470
  39.4419622  16.2475836  58.0364752  39.0414214  15.4312968  57.7373505
  38.7022638  16.8359566  58.1877804  71.9067097  39.1812754  52.6164389
  72.6867008  38.6963701  52.3467779  72.1477270  39.5755959  53.4546804
  42.3688650  45.2998590  60.5083179  42.2288561  44.4853020  60.0254917
  41.5049171  45.5253506  60.8532572  64.9341583  52.3455334  78.9945412
  65.7527733  52.3117399  78.4996080  64.4083738  51.6300440  78.6369753
  65.5928659  13.1532872  61.1514139  66.3993120  13.1595159  61.6670036
  65.4199457  14.0763140  60.9660721  61.0980940  18.5549951  49.3673754
  61.5843964  17.8557384  48.9305878  60.3589964  18.7322891  48.7855434
  15.7769342 101.2837577  53.1505394  15.3168960 101.2428454  53.9889431
  15.5429549 100.4674152  52.7088690  26.6273189  19.5513189  64.0016413
  27.5581169  19.7065747  63.8412046  26.5008759  18.6242080  63.7998772
  19.8892827 103.7989738  88.1850910  20.3321119 104.2566044  87.4704456
  18.9571424 103.8952539  87.9899502  90.7528882  96.2578706   5.0133725
  90.8868079  95.6577472   4.2797872  90.6666140  95.6871966   5.7769891
  92.2976017  14.7522783  36.8125916  91.8979454  14.3151200  36.0606623
  92.1759701  15.6857908  36.6394091  43.7755299  12.4403787  58.9888096
  44.2665291  11.6190016  59.0109777  43.9612103  12.8071594  58.1243896
  69.2829661  88.1593875   1.2178537  69.5259909  87.7082709   2.0263501
  69.9565677  88.8302139   1.1061117  57.3901129  21.6080618  82.6967525
  57.1130943  22.4112177  83.1377029  57.7475834  21.9052839  81.8600368
   9.8975807  34.3151593  31.6765070  10.2928174  33.4966993  31.9767451
   8.9575207  34.1883445  31.8047142  12.7501738  29.7009468  69.5733500
  13.1922579  29.5282340  70.4045916  12.5915444  28.8332558  69.2016220
  68.6815262  27.6158500  64.4535303  69.5017147  28.0510783  64.6861172
  68.8207340  26.6993332  64.6919489  71.9664078  92.7760247   3.7108060
  72.0070319  92.8643683   4.6630594  71.2619667  92.1460966   3.5585424
  53.7731361   5.6222862  82.1821594  54.1674614   5.3390300  83.0070877
  53.8411617   6.5769082  82.1995163  52.3430586  27.2870827  71.8545341
  52.8388166  26.4760065  71.9668579  52.0261097  27.2510338  70.9520531
  51.1161900  39.5626855  62.5234032  51.8663120  40.0765800  62.2243023
  50.4046392  40.1985884  62.5979471  85.9302235  23.4426498  82.2658157
  85.3843212  23.4580708  81.4796925  85.8897972  22.5352049  82.5677204
  63.3289814  25.7128978  78.0186987  62.4574661  25.3828359  78.2372189
  63.8632298  24.9259186  77.9115772  51.4597750  35.3901577  72.8990412
  51.8507576  35.7598209  73.6906958  51.9023085  35.8414054  72.1801710
  28.4767818  39.5219803  15.3990948  27.7953124  39.1157198  15.9346151
  29.2951322  39.1562557  15.7349181  53.2432795  38.7210608  59.2774057
  52.7477217  39.4563651  58.9168787  54.1367245  39.0535998  59.3634605
  49.7332954  32.7246118  64.9069691  48.7926483  32.6721263  65.0762653
  49.8397207  32.3562622  64.0299177  60.9009409  31.5072632  72.7242661
  60.4049683  32.0834923  72.1427155  61.2785196  30.8474112  72.1426630
  23.3378406 100.2558905  79.1293144  23.5193010  99.6329406  79.8330450
  22.6216502  99.8570309  78.6351347  67.0473099  30.4844713  74.2591810
  67.6648760  31.1966825  74.0930462  66.2453079  30.7535100  73.8112450
  39.2018342  32.0511842  59.0526819  38.7114286  31.3108945  58.6953211
  38.5329366  32.6200271  59.4337654  72.9847336  18.9235878  57.0873976
  73.4665298  19.5550334  57.6216125  72.6258850  18.3001041  57.7188492
  64.7846746  34.1521120  73.2578754  64.2513418  34.2660809  74.0445137
  65.6803322  34.0703964  73.5855198  58.9851379  10.7959437  83.8607216
  58.8058424  10.6854653  84.7944736  58.9424753   9.9094820  83.5021210
  64.8575692 102.6684169   0.9534284  64.5932679 103.1956271   1.7073747
  64.1554408 102.7943400   0.3151628  94.8045354  80.6961946  14.3279477
  94.1041570  80.8969478  13.7071439  95.1882939  79.8824576  14.0011522
  91.5039306  85.5071167  14.3182298  90.8917003  86.2202243  14.1368886
  90.9633593  84.7173408  14.3017789  61.9358063  26.2635875  68.5587215
  62.2486448  25.6993032  67.8516483  62.5581264  26.1211991  69.2719316
   7.3188729  99.9519784  84.3239212   7.9535861 100.2581153  83.6761189
   6.5568156  99.6899650  83.8073444  68.5274363  18.7915945  61.6405916
  69.1816235  18.8693643  60.9461689  68.9417124  19.1906297  62.4056959
  97.1333981   5.8771384  50.9383059  97.2398853   6.8269891  50.8865690
  97.8679657   5.5260068  50.4349566  53.8665533  26.6230774  48.5447025
  54.4619846  27.0415831  47.9229736  54.3939304  26.4967036  49.3334532
  16.9440722  16.6171861  86.0533237  16.7321515  16.0700011  86.8095779
  17.8632438  16.8531704  86.1784935  30.6086230  49.7340012  73.0967712
  31.0907960  49.0010023  72.7140760  30.9351873  49.7928286  73.9946175
  39.5460486  41.2667799  56.8668795  39.6350670  41.6629744  57.7336788
  40.0245237  40.4402399  56.9310427  91.1552481  73.0140547   7.3780462
  91.2084775  73.6603979   8.0820581  92.0473485  72.9590372   7.0354577
  19.3263626  19.1518903  66.0385323  18.9906096  18.4397089  65.4941988
  19.8978770  19.6506131  65.4546833  49.2196894  39.6788192  81.1677170
  50.0295639  39.5458865  80.6751060  49.4665766  39.5269728  82.0799732
  97.6960187  77.2931746  37.0619794  96.8187194  76.9779591  36.8446847
  97.7664094  78.1349401  36.6117498   3.2010413  11.7177332   4.9656602
   3.1700994  12.3132313   5.7144281   3.7765790  11.0070837   5.2484342
  50.8030081  19.2272413  51.8653440  51.4796686  19.4757438  52.4951124
  50.2573824  20.0089598  51.7790985  73.6082888  18.4262431  61.6330099
  72.7569246  18.7881780  61.8788004  73.4802628  18.0954003  60.7439756
  38.2045126  46.7855501  47.2486782  38.8171840  46.6820669  47.9767990
  38.4766698  47.5970411  46.8201399  50.4232121  21.9896436  61.0679770
  49.4991159  21.7698860  61.1862326  50.8534908  21.6444874  61.8502569
  74.8390818  19.7060764  74.7254992  74.9478054  19.1913331  73.9258432
  75.2817631  19.1938031  75.4021406  63.7398481  56.2354803  76.2463045
  63.7194824  55.3453016  75.8950329  63.0091572  56.6795349  75.8160210
  58.8249540  37.1495533  78.7888670  58.5730743  37.7656436  79.4767761
  59.7523737  36.9762444  78.9503860  99.6896462  92.8128509   1.3800927
  99.2948298  93.2293157   0.6139871 100.2079825  93.5059337   1.7889901
  55.0264263  33.2775307  85.8246422  55.4084301  33.1424403  86.6918468
  54.1644812  33.6555886  85.9988499  61.9734859  55.7700634  83.4597778
  61.1372232  55.4100657  83.7552357  61.7452240  56.3251829  82.7141380
  35.4414558  46.8265820  42.7156734  35.7901621  47.7158928  42.6543713
  35.5943108  46.5715694  43.6255264  67.6240301  13.3690786  63.0791569
  67.9298735  12.7675545  63.7580204  67.4634457  14.1912425  63.5422850
  75.7429914  59.5065955   1.7678281  76.0934238  58.6158995   1.7583295
  75.5149131  59.6644835   2.6839563  48.5308313  34.2243695  57.9121828
  49.0475273  33.7378740  57.2698593  49.1006947  34.9445558  58.1820393
  79.0405893  51.5241766  76.0393524  79.3978643  52.1697330  76.6491413
  79.7686481  50.9263611  75.8697033  59.2240191  39.3122458  56.7811632
  60.1449156  39.5600224  56.8635464  59.0619469  39.3029809  55.8378267
  93.0055432  56.2604503   6.9042417  92.8380351  57.1709896   6.6611596
  92.1569876  55.9318528   7.2012540  82.3851395  32.9072118  44.0610981
  82.8689194  32.8226066  44.8827028  81.6861725  33.5308838  44.2578411
  39.9319959  14.8709714  90.4819298  39.2970133  14.2531240  90.8442783
  40.5264044  14.3276799  89.9644947  42.7228642  24.0066957  69.8030376
  42.7527142  24.7858524  70.3582478  43.0073690  24.3147087  68.9425659
  48.6155224  40.8759546  61.1792374  48.1571102  40.6430578  60.3718662
  47.9191446  40.9874535  61.8264246  55.4999733  22.2077131  64.9844837
  56.2253046  22.7035880  65.3642654  55.0337696  22.8432631  64.4413805
  41.9686651  30.7886028  72.4681854  41.9080114  30.3033853  71.6453123
  41.0750961  30.7908344  72.8113461  32.4194121  53.2895803  72.6245737
  33.2072139  53.7226534  72.9532862  32.7486300  52.5816536  72.0707846
  20.4591298  24.9571943  58.0883074  19.8438013  24.3294072  58.4671021
  19.9040031  25.6011462  57.6485443  26.8185735   4.1601169  49.0196705
  27.6705098   4.5773619  48.8918352  26.3210893   4.3855923  48.2335997
  87.9916577  82.1818427  21.3970681  88.0532317  81.3583879  20.9129640
  88.6710076  82.1164803  22.0682260  59.6319628  36.7737412  58.1893778
  58.8627768  36.2622929  57.9383707  59.5139456  37.6155066  57.7492285
  56.5933132  35.9878349  57.4227047  56.1011934  35.8371091  56.6156483
  55.9215689  36.1091232  58.0937338  46.7261124  55.8560658  49.8335409
  46.9666767  56.6816521  49.4130945  47.4994326  55.6120491  50.3421307
  44.3668747  35.8962893  76.0832167  44.9044895  35.8113289  76.8706083
  43.9307070  36.7426872  76.1811876  43.8126087   7.2292823  80.2699184
  43.6916924   7.2469175  81.2192917  43.0327034   7.6609015  79.9210835
  43.4440470  16.2524354  56.4814377  43.0652523  15.7693362  57.2158527
  44.1135120  15.6661260  56.1288929  26.4752507  18.3013344  59.1166878
  27.1605706  18.9607751  59.0084934  26.1376572  18.1594169  58.2323122
  58.9247084  46.3223171  64.4974470  58.1654453  46.5199995  63.9491034
  58.5684633  45.8124113  65.2249908  34.6982980  18.1428444  65.1314545
  34.8002696  18.8738120  65.7409811  35.5060410  17.6379621  65.2256680
  62.6637173  36.9148183  72.6676226  62.7679253  36.4664483  71.8283796
  63.4290981  36.6495347  73.1775665  23.8520618 102.0574236  83.9333820
  23.1513066 102.6080823  83.5841751  24.5949836 102.2174475  83.3514118
 103.0708937  90.0737337  16.9259664 103.3685403  89.1810683  17.1014425
 103.8596968  90.6097177  17.0081064  48.1722498  50.5071068  59.2552519
  47.2674322  50.2098608  59.3510628  48.3041239  51.1122131  59.9851036
  31.8103933  32.7972412  69.5692825  31.1313939  32.3916841  70.1084614
  31.3869858  32.9478145  68.7241268  64.9841409  95.5742244  12.7370759
  65.7074385  95.0420789  12.4055692  64.7227959  96.1143950  11.9913312
  60.4351425  49.1770172  56.5643406  59.7158957  48.6386108  56.2341404
  60.6011724  49.8096514  55.8654499  50.3590727  24.2744803  75.4374695
  50.3905773  23.7220645  76.2185431  49.4451761  24.2381835  75.1551437
  64.5788240  55.7773161  66.2202358  63.8553095  56.0173273  65.6413126
  64.3018389  56.0762453  67.0863485  70.0199509  44.4236279  88.6928940
  70.8821201  44.8089552  88.8491726  69.4017458  45.1087427  88.9471912
  68.3315420  52.1540213  63.8015699  68.9352703  51.5819645  63.3277607
  68.8394070  52.4728107  64.5476770  47.0538187  33.0478883  65.0882816
  47.0448971  34.0030146  65.1506138  46.1531591  32.7869034  65.2804565
  82.7239518  97.5293759  13.6843797  81.7878394  97.3741225  13.8101503
  82.8041797  97.7759007  12.7629491  65.6794453  50.9010363  75.9254408
  64.9167538  50.4113054  76.2331676  66.0011435  51.3568974  76.7032194
  63.1340122  54.4536638  74.3113756  62.6156330  54.9304676  73.6631680
  63.8681984  54.0941238  73.8134480  57.1036196  54.6281862  89.1189671
  56.2787676  54.9447441  88.7506676  57.7308416  55.3283739  88.9385128
  61.4873075  45.5981445  64.7919655  61.5972233  46.3576174  65.3641129
  60.6066132  45.6963682  64.4300747  17.9158069   4.1594541   8.4237024
  18.3624078   3.3980787   8.0534478  18.5508729   4.5371712   9.0321847
  90.6081104  51.0324287  83.7587833  90.5621910  50.2210903  83.2529640
  90.2767372  50.7939959  84.6245575  30.4782487   1.0402000  14.9940988
  31.4277221   0.9582508  14.9045583  30.3190137   0.9649361  15.9349557
  74.4101477  56.4429951  75.9829617  73.7288857  56.7956591  75.4104757
  74.9866676  57.1872854  76.1558628  23.0623651  72.7554703  56.9624853
  23.5966086  72.7991962  57.7555180  22.3672795  72.1329689  57.1759748
  76.2794733  74.8791981  75.4646301  76.7739582  74.4317675  76.1513042
  76.5676308  74.4631577  74.6521616  36.2526132   5.9585560   7.0050927
  36.0363294   6.8886078   6.9383737  35.4110480   5.5269134   7.1523687
  65.1717186  15.8849275  71.9956541  65.8132696  16.0884178  72.6762724
  64.6219826  16.6667688  71.9432402  82.4878311  61.0753679  76.5431547
  81.9850922  60.8923531  77.3368788  82.1670055  61.9273853  76.2475634
  54.8036957  36.1159563  59.5594025  54.2787647  36.9024205  59.7082376
  54.2438650  35.5517149  59.0260649  90.3905778  98.9506415   4.7981759
  90.2640061  98.0099658   4.9220010  91.1365752  99.1675881   5.3573343
  97.3403740  45.3839874  76.9906235  98.0179310  44.7682810  77.2699785
  96.7872715  45.4983091  77.7634382 105.5465889  58.4098625  86.4655209
 106.1233711  57.7226877  86.1318398 104.6711826  58.1465292  86.1817169
  60.7004261  39.0663218  73.6560297  60.0957966  38.3337617  73.7744093
  61.1198664  39.1710925  74.5100355  70.7171535  53.3520031  73.3640909
  70.4432535  52.5652647  72.8926563  69.9401188  53.6199903  73.8546276
  77.7658081  50.0917816  66.8283081  76.9175911  49.7602081  67.1229553
  78.3943796  49.7307491  67.4534369  75.2468538  56.7853355  61.1594772
  74.9397373  57.1406937  61.9935274  74.7413969  57.2570610  60.4974937
  83.5978031  54.1520357  61.9144344  83.4108067  54.0906429  60.9776878
  82.9355431  54.7551918  62.2518492  90.9313393  45.5379343  80.7942581
  90.7979298  46.2815046  80.2064323  91.8780041  45.3963995  80.7903957
  63.2216644  49.6402264  75.8138704  62.2883177  49.6327448  76.0261059
  63.2498360  49.7189903  74.8603296 100.0320964  56.0744111  11.5707418
 100.1172166  56.2424211  12.5092336 100.7523017  55.4773907  11.3680097
  86.9842148  73.0413961  59.4333172  87.6043797  73.6278820  59.0001106
  86.2929153  72.9032183  58.7858295  60.1303387  19.0480781  79.6326971
  60.8412457  19.6798134  79.5242739  60.3265715  18.3559740  79.0012598
  95.8883190  24.4979668  89.8780823  95.9665680  24.3891358  88.9303112
  95.1636028  23.9239240  90.1260567  83.7041473  66.3928986  72.0156813
  84.2081833  65.5872202  71.9013786  84.1337490  67.0275688  71.4422083
  90.2133656  76.5680552  76.2141657  90.6088638  77.3788834  76.5341187
  90.4822826  76.5160513  75.2969885  98.6525726  59.6335506  83.0445862
  99.1124058  60.3866434  83.4155846  98.0283833  59.3760157  83.7230301
  66.7232610  20.0321997  -0.0856475  66.7707444  19.0903891  -0.2498702
  66.4083291  20.1026142   0.8155080  85.0402069  84.8610115  69.8879862
  85.8836460  85.2165604  70.1680422  85.1409912  84.7184277  68.9468479
 109.2464924  58.9475584  42.5516224 108.6992645  59.7303009  42.4877214
 109.3974876  58.8368559  43.4903336  87.6814556  44.9984074  56.3287687
  87.6439190  45.2178431  57.2597218  88.6160851  44.9142361  56.1400318
  86.3510895  53.3990002  59.5495319  85.9907818  54.1313601  59.0494728
  87.2936153  53.4389400  59.3873692  97.1468830  13.2587826  56.0518265
  97.1974945  12.3309290  55.8221388  97.8959370  13.4036279  56.6299009
 102.1839333  80.4368877  82.7779675 102.1839428  81.2941074  82.3520565
 102.2499275  79.8110771  82.0566940  69.8636341  72.7153540  78.9360809
  69.7407007  71.7703438  78.8462210  69.0036440  73.0882645  78.7422037
 104.4911480  38.5784483  82.9928303 104.8546791  39.3787885  82.6139736
 105.2477551  38.0040836  83.1106281  98.2760715  67.2343397  57.4619293
  98.2624912  67.1031570  58.4100008  97.6329994  66.6107225  57.1246099
  86.1411667  93.9985752  72.0541430  85.7070160  94.4849300  71.3532782
  85.4280186  93.5620785  72.5201082  30.3792850  78.0938959  63.4518480
  30.9518424  77.3381996  63.3201599  29.5321075  77.8161144  63.1034946
  65.8926488  31.3782585   6.4599248  65.2862359  32.1095455   6.3428613
  66.7614080  31.7761982   6.4039346  80.6748772  55.5723238  55.7158279
  79.9957228  54.8988390  55.6785583  81.0060310  55.5291557  56.6128874
  75.4244184 101.7342186  79.5590830  76.3596344 101.5699005  79.4382334
  75.0089836 100.8883286  79.3913984  45.4244710  10.8592213  -0.0277117
  44.7439958  10.9404076   0.6405660  45.3054715   9.9792278  -0.3850344
 106.9533920  70.9320927  51.2867260 106.0151196  70.7846642  51.1678267
 107.0857048  71.8465900  51.0368967  87.6236820  49.2550898  84.5123577
  87.6881599  48.5911894  83.8258362  86.8318081  49.7473478  84.2958927
  64.6958828  68.3444214  53.7133741  64.1082287  68.9504623  54.1646004
  64.8606586  67.6505423  54.3518209  95.1979637  55.8319712  84.8779964
  95.3417110  54.9840498  85.2982330  94.2591667  55.9914207  84.9752808
  69.8076820  70.7198286  65.8948851  70.3940773  70.8353090  65.1471996
  69.9805164  69.8289967  66.1994791  58.5726404  93.3094788  47.3995972
  59.2847300  92.8705883  47.8649330  58.5147810  94.1725445  47.8094721
  89.9795532  66.2789917  74.1039896  89.7524452  67.1043921  73.6757803
  90.5596542  65.8386183  73.4828711  88.4163094  56.1954927  62.4530935
  88.0066013  55.5462885  63.0248499  88.2790375  55.8562899  61.5685987
  85.7305241  60.2237797  86.1570358  85.9478378  60.9279871  85.5462170
  84.9985027  60.5679989  86.6687870 111.5441322  29.9418378  50.8021498
 110.8700848  30.6009030  50.9680367 111.1073017  29.2831016  50.2622700
  11.2133118  92.7078179   9.2945501  11.9175812  92.9243449   8.6835309
  10.8202358  91.9125942   8.9349004   4.4060274 103.3609418   3.5860082
   3.4730002 103.5198859   3.4430620   4.5171734 102.4243144   3.4229013
  97.3127556  64.4106722  25.6832314  97.5302315  63.5196590  25.9571624
  96.4608288  64.3282890  25.2546763  77.2633886  69.8133326  50.6740856
  77.9452467  69.3838024  51.1906195  77.7036238  70.5619907  50.2716637
  35.4019737  79.3201685  77.4688005  35.4313922  79.6184778  76.5597486
  34.4690847  79.2906666  77.6811266  80.1288128  65.7118034  46.0996628
  80.7032585  65.0960779  46.5547752  80.0931931  66.4760780  46.6748571
  67.2731543  56.5286446  65.8789301  67.2503376  56.7168951  66.8171597
  66.4650917  56.0433626  65.7122946  82.5887299  61.0822821   3.1893387
  83.1372833  61.7061377   2.7138183  82.8212166  61.2112617   4.1088745
 109.5403004  69.4764233  78.6586142 109.5797539  70.4299212  78.5843849
 110.0963879  69.2714882  79.4102812  93.2868767  63.7095881  71.4395571
  92.9129028  63.5954428  70.5658627  93.8989735  62.9799271  71.5352917
  84.8038578  58.7175560  36.3397145  84.0258694  58.1822968  36.1833191
  85.2424622  58.2929420  37.0769811  80.3474617  85.3546810  66.9737816
  80.7948589  85.5190754  66.1436939  79.4523048  85.6607914  66.8281269
  91.3858795  73.1860065  66.2647724  92.2121143  72.9549646  65.8402872
  90.7737446  73.3189774  65.5410004   0.8437435 101.4450645  66.9630623
   1.4384929 100.7174397  67.1448994   1.2416927 102.1956348  67.4041080
  44.3316270   1.5440929   7.9471799  44.8358441   1.7226398   7.1533796
  43.6885549   2.2519958   7.9867383  71.1836386  56.2324095  76.2986946
  70.8848143  56.3216782  75.3937244  71.1029148  57.1128368  76.6655302
  64.7121239  57.1137142  52.3675299  65.5032253  56.7870712  52.7961302
  64.9804354  57.9411125  51.9679689  48.0893036  91.8535236   0.8131810
  48.0194756  92.7917460   0.6368467  48.2370754  91.7975978   1.7572519
  77.7312422  60.4073191  63.4312725  77.1992207  59.8658657  62.8481722
  77.7640676  61.2617731  63.0010748  80.2574825  39.9600816  77.8464365
  79.4595766  39.7965240  77.3436213  80.8513737  40.3791904  77.2236395
  96.8023777  25.6936932  16.2994671  95.9280968  25.4904866  15.9669411
  97.3296738  24.9284267  16.0702109  69.2329502  60.2878284  58.1198883
  68.5118103  60.8053446  57.7615976  69.5382929  60.7923174  58.8738728
  94.8476601  61.6919279  54.7085571  94.6620083  61.3213396  55.5713606
  95.1610851  60.9498405  54.1915464  68.7538147  73.7870646  86.3994408
  68.2183456  73.5215712  87.1471119  68.5030603  73.1844902  85.6992531
  87.1371269  66.9909286  42.7276087  86.8049240  66.1123896  42.5431204
  86.5562153  67.5741339  42.2390985  83.7907028  71.7938662  46.3182259
  83.1243992  72.3830700  45.9645224  83.8419056  71.0806561  45.6818771
  72.0855379 101.7990685  78.7892532  72.7070618 101.8945885  78.0675793
  72.2445011 100.9177208  79.1271782 105.2841854  82.6542377  87.6165009
 105.4703045  82.5091076  88.5441494 104.6220303  81.9979477  87.3995399
  85.3322506  50.2586508  65.9570360  84.6526814  50.3071260  66.6293955
  86.1499882  50.4072762  66.4318466  87.4003696  84.3661976  61.0758400
  87.8869820  83.5561752  61.2285233  86.8382359  84.4565678  61.8453026
  69.6152449  63.2842350  78.4664202  69.5554066  63.9338541  79.1668844
  69.9729013  63.7674332  77.7215481  61.0302162 101.7106247  82.3610973
  61.4584541 102.4750042  82.7465343  60.0958252 101.9147491  82.3996258
  52.8008652  89.0506744  53.3422470  53.4764910  89.7040367  53.5235643
  52.7609730  88.5201931  54.1380024  82.9184151  59.7945881  58.7250614
  83.6174870  59.9416351  59.3621683  82.7842808  60.6491232  58.3151674
 107.8633118  54.7586823  56.2145042 108.0459595  54.7813177  57.1538448
 108.6764431  55.0545025  55.8051968  99.1274261  52.8547049  75.7243681
  99.6871281  53.5477877  76.0745239  98.8626862  53.1736135  74.8615551
  99.5833111  68.2189703  86.6789150  99.8900795  68.2593489  87.5847244
 100.1275063  68.8539457  86.2132072  35.1475907   9.1865957   0.9157487
  34.7719480   8.9273060   0.0743791  36.0551740   8.8850248   0.8759614
  64.8445034  64.7264767  90.2565575  64.4327927  65.3846025  89.6965599
  65.4139280  64.2324448  89.6667099  72.1125889  52.5035906  89.4729328
  71.5150261  52.8925991  90.1115417  71.6053867  52.4663687  88.6620045
  99.5024204  36.8427920  88.2771873  99.8583698  35.9610367  88.3869362
  99.5449162  37.2288370  89.1520596  98.1318283  91.6424465  51.5161467
  97.4756336  90.9457207  51.5309095  97.9063225  92.1996689  52.2610569
  66.8701839  90.6035042  68.9180946  66.1032677  90.5068016  69.4826508
  67.0227718  91.5477371  68.8810205  67.7006341   0.6783331   2.4897119
  66.8002893   0.3704965   2.5939008  68.2403756  -0.0802004   2.7122804
  21.9854308  29.8524750   1.1072275  22.1833516  30.7134617   1.4756700
  22.2815801  29.2328060   1.7739602  96.1107826  29.2507505  82.7510071
  96.1802387  28.3143902  82.9371166  96.9819927  29.5981956  82.9420567
  80.8095074  80.2483177  80.5433846  81.0838032  80.9680939  81.1116505
  81.6277981  79.8333216  80.2706051  67.8397226  57.0004272  75.1221466
  67.7994442  57.5064993  75.9336281  67.2225475  56.2813807  75.2574158
  94.5291138  80.2360153  47.2310400  95.2037239  79.7358084  47.6903009
  94.9476910  80.5094337  46.4147854  13.8215252  97.8629378   4.1852399
  13.5577008  96.9498805   4.2990896  14.2762467  98.0839852   4.9980184
   0.9528347  96.3239125   1.6123411   0.5850216  96.7706851   0.8498880
   1.6001793  95.7206706   1.2472650  76.8023109  78.8976431  26.0009122
  76.7178631  77.9581213  26.1633921  76.6794920  78.9893007  25.0560617
  16.0077278  66.6282272  89.2358017  15.4915515  66.1012506  89.8458004
  15.5734531  67.4812222  89.2293835  16.8296767  38.6637962   2.4734803
  16.0212089  38.9225471   2.9158231  16.7599011  39.0512836   1.6010019
  65.8487177  46.5270662  68.7846708  65.8434343  45.6470394  68.4081650
  64.9967527  46.6093731  69.2131662  64.4003439  88.7499809  66.1826324
  64.9286842  88.7079144  65.3855658  64.1786289  89.6766186  66.2743855
   9.3014709  67.4174166  72.4351692   8.5699455  67.3975325  73.0521774
   9.5566932  68.3391285  72.3958921  52.9146242  75.2527237  66.8055725
  53.8445854  75.2274609  66.5802574  52.7280903  76.1805248  66.9491720
  86.8873024  80.9885597  63.9948511  87.1308708  80.1120472  63.6971617
  87.0019150  81.5438843  63.2236767  87.3662090  60.8326578  49.0814638
  87.8007030  60.3033018  48.4127140  88.0655575  61.3702440  49.4531250
  71.0336161  54.3724823  68.8493633  70.7623577  54.7098541  67.9956436
  70.2618933  54.4795609  69.4054270  92.0946407  47.7979803  65.6977892
  92.5156307  47.6480818  64.8513126  91.1584854  47.8191662  65.4992819
 108.4906292  42.5379848  58.3024549 109.3411255  42.1638870  58.0723715
 108.6232662  43.4845066  58.2501984  74.4179583  85.1891899  69.3357563
  73.8690662  85.2899170  68.5580635  73.8670826  84.7139931  69.9578094
 107.6136208  75.5607414  86.5366077 107.8512764  74.6678257  86.2867165
 108.3286190  75.8490086  87.1039867  65.8132696  41.2015057  71.1855221
  66.1204100  40.5025721  71.7629242  65.3775072  41.8212938  71.7705107
   6.7174531  27.9376400   4.6219178   6.7269136  27.4110973   3.8226053
   5.9068919  28.4436691   4.5657941  76.4319754  74.2318010  62.6821136
  76.4472485  74.1316605  61.7302895  75.5171394  74.0868473  62.9235506
  69.7607565  55.7111216  66.5689850  68.9577293  56.1122131  66.2365627
  70.4461956  56.0214567  65.9772968  68.3141661  73.2160568  69.9459505
  68.6279202  74.0683699  69.6437073  67.5168610  73.0609846  69.4395065
  76.6484118  82.1579266  77.8348780  76.8123960  82.9193592  77.2784996
  77.1388531  82.3373699  78.6370611  74.5022154  82.0693398  56.0431528
  75.1589870  81.7892551  55.4056311  73.7080526  82.2031689  55.5258226
 102.9422665  77.7251577  58.1947374 103.6880302  78.1190014  57.7420092
 102.5269413  78.4559202  58.6526966  68.3450794  78.1717491  66.8310738
  68.2737684  79.0542412  67.1948719  68.2894468  78.2979393  65.8838606
  52.3809433 102.3713589  90.1212120  52.2528362 102.8489113  90.9408188
  51.8771315 101.5651226  90.2324963  99.9219513  62.1597719  27.4659991
 100.6812191  61.9247198  27.9993725  99.3832016  62.7020884  28.0420828
  70.0662518  98.8632393  46.5011454  71.0230064  98.8733482  46.4738846
  69.8540545  98.3261299  47.2645044  76.6170883  73.6903715  59.5883799
  77.5331497  73.7654686  59.8556328  76.5550280  74.2210150  58.7941551
   9.8363391  78.5671234  81.0766888  10.1779643  78.0061865  81.7730236
  10.1522056  78.1642056  80.2679157  96.9467831  49.1357613  75.1791048
  97.7071190  48.6288500  75.4639959  96.2561703  48.4841204  75.0580454
  42.5673915  49.7427261   2.7700921  42.7684499  48.8286388   2.5694581
  41.8531037  49.9673069   2.1737787  68.2314968  80.6958389  68.2968235
  68.2952118  80.2366829  69.1342878  67.3726130  81.1177635  68.3197498
  92.3835754  50.7196903  79.2281389  93.0870533  50.6154156  78.5874510
  92.7955532  51.1710644  79.9648666  88.5916328  52.3189878  73.8111973
  87.6550102  52.4174738  73.9822435  88.8461590  51.5434265  74.3111467
   9.1147796  82.4399567  69.0907288   9.9841396  82.1414757  69.3578196
   8.5847370  82.3751163  69.8851395  15.3685466  89.0764046  87.2009659
  16.0708324  89.6786880  86.9554520  15.1402751  89.3268490  88.0961800
  86.0291195  56.7488909  53.8395739  85.1202106  56.9839668  54.0262556
  86.0548973  55.7968903  53.9358187  92.2792339  25.5568504  45.7187843
  91.8178654  24.7420454  45.5201340  93.1791878  25.2848077  45.8985662
  82.6983261  50.4423809  79.2443180  82.5272655  50.4320049  80.1860523
  83.4634304  51.0091305  79.1460943  81.0754776  67.4700785  70.3917456
  81.6601562  66.9128036  70.9053946  80.5979252  67.9820633  71.0444641
   1.5189639  40.8934164  84.3437195   1.8160907  40.1887846  83.7680054
   0.7695285  41.2757444  83.8872147  87.2092533  70.7311058  56.6543198
  87.8861237  70.0900316  56.4372873  86.3974476  70.3415108  56.3296413
  50.4248524  74.3928194  86.4777088  50.1268101  74.6623898  87.3464680
  51.1980343  73.8542652  86.6461754  90.1362228  74.4722319  43.5661983
  90.9756947  74.3436718  44.0077734  89.8299026  75.3240395  43.8773584
   6.8160907  36.9924545  40.7984209   6.9856540  36.0908604  40.5252743
   6.8117420  36.9561362  41.7549229  94.2475414  52.4362230  17.4611843
  94.2502022  53.1955051  16.8783319  93.5323620  52.6071930  18.0739832
  99.3108940  52.8395128  60.8212996  99.9924946  53.5115480  60.8165216
  99.5958042  52.2047281  60.1639462  73.6716413  51.2731791  71.9868279
  74.3943357  51.7454815  71.5734529  73.3687067  50.6628799  71.3145208
  79.9711370  99.6291161  77.5626230  79.8883247  99.1054535  76.7656565
  80.4899406  99.0842438  78.1543970  93.3047962  88.3231258  72.1302605
  92.4068546  88.2049179  72.4400425  93.3527374  89.2461491  71.8813610
  82.4654388  82.5069332  58.8382959  82.6889610  82.2122955  57.9554272
  82.6141071  83.4523487  58.8201046  72.9648542  71.5431118  65.7709742
  72.6051378  71.4436293  64.8895311  73.1197309  70.6467819  66.0690260
  81.5244961  77.3552370  78.6733627  82.3780918  77.1548796  79.0573883
  81.7279816  77.6996899  77.8037786  74.3646812  73.8455057  26.2355089
  75.1791096  73.3624506  26.0955143  73.7424278  73.1836081  26.5370440
  91.5087414  45.3984022  62.7487326  91.5891933  46.3504839  62.8061819
  90.5914021  45.2224922  62.9579592   5.3354121  31.6423786  15.6440660
   5.1274587  32.5463379  15.4077264   5.4583455  31.1977661  14.8053571
  38.7299443   9.0333069   5.5864259  38.1312133   9.3539083   6.2609311
  38.9654590   9.8136890   5.0846597  51.7632772  21.3892258   5.9920236
  51.5158559  20.4649532   6.0191938  52.7054311  21.3900316   6.1611005
  84.8503494  69.7407341  34.5840049  84.0935421  69.1595697  34.6596408
  84.6736908  70.4462576  35.2063036  94.9503708  33.1890178  89.4651127
  95.7473755  32.8709817  89.8892307  94.4197083  33.5361886  90.1821232
 110.2257156  44.3990946  39.6728468 109.5765781  44.4939470  40.3698778
 111.0578823  44.6255589  40.0881100  80.3921986  86.6401482  76.3462400
  80.9514809  85.9200764  76.6376543  79.5218801  86.2499142  76.2656021
  73.2046986  85.8711338  45.4700851  73.4645557  86.7859936  45.5783749
  72.3013830  85.9142399  45.1564121  71.5762234  90.6395531  61.9808483
  71.5649748  90.4082394  61.0520887  70.9446430  91.3547516  62.0572138
  91.5660763  59.8956060  68.4989882  90.7085323  59.6234417  68.8257551
  91.6235733  59.5081711  67.6255894  95.5554295  55.0307798  73.1779385
  94.7785950  54.6566200  73.5935783  95.2146244  55.5173779  72.4274015
  86.0240269  69.2430496  44.6415758  85.7403851  68.9165640  43.7876511
  85.4096699  68.8528490  45.2633047  85.1693821  83.3689308  50.1998043
  84.5740700  82.8423977  49.6663284  85.9448433  83.4840393  49.6505880
 109.9944262  85.0438479  15.3184816 109.9626021  84.9091891  16.2656232
 110.4204993  84.2568616  14.9788495  68.0326366  54.0164471  86.6383362
  67.7219105  54.9200726  86.5822601  67.2361565  53.4866953  86.6035557
 106.9701099  52.2755909  78.1379557 106.4902306  51.6813850  78.7149143
 107.8297234  51.8672943  78.0350733  55.5509806  96.6252518  64.9518824
  56.2196302  95.9605217  65.1170301  55.0851393  96.7082787  65.7839489
  79.9332142  44.4768143  80.5532265  80.2823353  43.7210512  80.0808144
  79.1577816  44.1409349  81.0027981 101.6326332  90.0682735  88.5380363
 102.3880577  89.4821548  88.5832405 101.8463707  90.7813072  89.1398144
  54.1933824  16.2465370  22.4265882  55.0101186  15.8847750  22.0826265
  53.8728620  15.5794609  23.0336400  83.4252071  77.9346085  24.9760962
  83.0990124  78.2128286  25.8319116  82.7103806  77.4183893  24.6035695
  73.3189869  74.9157095  68.4627342  72.6409054  74.2412138  68.4240389
  74.1291857  74.4534206  68.2480145  97.1044827  55.5964851  62.0756483
  96.9762421  55.7440615  63.0126667  96.9689369  54.6559477  61.9605541
  95.7843590  38.9723563  75.9876013  95.7793999  39.0335083  75.0323677
  96.7110252  39.0065360  76.2249804  92.7587318  56.1724424  32.2436070
  92.6147461  55.2676296  31.9664574  93.4823227  56.1194229  32.8679824
  76.5705633  59.4667006  60.8758640  75.6660795  59.1650581  60.7912540
  76.8247318  59.7139931  59.9867725  41.3076259   1.7897976   2.1781465
  41.5599204   2.1514738   3.0277177  40.3525687   1.7369926   2.2143861
  74.8973846  70.8938551  51.8385506  74.7235537  71.6918564  51.3393402
  75.5870008  70.4487133  51.3460970  63.1873894  88.2896614  62.4217892
  63.4542322  87.9931355  61.5516758  62.5761938  89.0068245  62.2534275
  97.6067448  71.4586830  56.7617846  98.3456421  70.8546972  56.6878462
  97.9265690  72.2762251  56.3802433  81.8727303  65.2378798  86.0795403
  82.5175762  65.8683825  85.7588005  82.3087692  64.8002291  86.8106747
  84.8939514  78.0290127  53.5259008  84.0917110  78.4193850  53.1791258
  85.1609993  78.6176586  54.2318821  79.4100904  79.8044825  65.4643297
  79.4391489  79.0964460  66.1078167  78.6687279  80.3452969  65.7365990
  85.8190250  83.9825058  88.4926510  86.7530918  84.1882610  88.4549999
  85.7146454  83.2345295  87.9045391   4.3154231  72.3651266  76.0368538
   4.6986667  72.9423094  76.6973209   3.5470764  71.9878626  76.4652729
  95.8002186  87.0373440  72.7997923  95.1203823  87.4201393  72.2452402
  95.5636692  87.3049068  73.6878777  52.7667475  87.4315929  73.1546402
  52.3723030  87.7000809  72.3248434  52.0214701  87.2751236  73.7345648
  71.7019796  69.9082661  75.5468941  71.4408064  69.1373301  75.0432301
  71.0308409  70.5617142  75.3498888  33.3360243  94.4432640  78.7167263
  33.3377576  94.8874092  79.5646477  32.5764322  93.8619041  78.7524128
  20.0704051  72.7730358   2.2803136  19.6075917  71.9751728   2.0244809
  20.9400083  72.6807583   1.8910810  98.9360714  98.1528282  62.2349453
  98.4906483  97.3547840  61.9504118  99.8486233  97.8888702  62.3524427
  86.7884541 101.7222500  89.9742794  86.0609818 101.5303230  89.3825150
  87.2557163 102.4438095  89.5532703  99.5376873  54.9578714  80.2825356
  99.6423149  54.0156603  80.4148769  98.9464569  55.0302887  79.5332432
  77.8223228  63.1491804  39.8892140  78.0461884  64.0097332  40.2435589
  78.6041069  62.6176310  40.0392103  92.5542641  74.9535799  61.4676571
  92.4418449  74.0081930  61.3684893  91.8817711  75.3352404  60.9034681
   6.7962166 101.4093570   1.5148374   6.6452023 101.4122085   2.4600526
   6.0188194 101.8294076   1.1468240  73.4963655  57.5106049  82.2587299
  73.7414455  56.7212009  82.7414417  73.7187099  58.2308245  82.8487110
  58.9303446  86.0626602  85.7299614  58.8766241  85.3603458  85.0817966
  58.2147455  85.8814526  86.3393116  92.0351410 101.1875248  41.8003893
  92.1051979 101.6849136  40.9855700  91.5642643 100.3910732  41.5550900
  98.1715679  73.1950998  60.9110069  98.3735180  74.0854168  61.1987400
  98.8996220  72.6667404  61.2381172 102.0254326  97.5833893  74.3887520
 101.1109352  97.7605438  74.1684294 102.1844101  98.0958176  75.1814604
 109.4563770  58.1942797  84.2916012 109.3366146  59.1041279  84.0194607
 110.2317619  57.9011965  83.8129520  71.2911129  94.4297504  80.8730793
  72.2023010  94.1915321  80.7021332  71.3360310  95.3271103  81.2031651
  97.8670692  55.5733347  78.4449196  97.5043297  55.8054352  77.5900602
  97.1557999  55.7459641  79.0617847  90.2115250  59.2679214  62.5325012
  90.6437016  59.6169567  61.7529964  90.1418686  60.0175428  63.1236458
  15.9077159  59.2234850  81.3099289  16.0765544  59.7880650  80.5556202
  16.1329547  58.3441639  81.0061359  27.2118756   0.1223859  67.7515268
  27.9033371   0.0697621  68.4113312  27.3506256   0.9685811  67.3261547
  41.7354199   8.4965619  71.6295958  41.4013001   9.0357598  72.3464346
  41.1832615   7.7147492  71.6404819  77.5939131  84.1443348  53.6212778
  77.6869297  84.0929890  52.6699924  76.9252443  84.8149204  53.7607002
  63.7401819  93.9942265  88.3936787  63.5558510  93.7646866  87.4828720
  63.7029934  94.9505234  88.4119225  96.5196228  74.9819708  80.6853294
  97.4298573  75.1474380  80.9309387  96.4062881  75.4488373  79.8574209
  29.6757308  71.7355776  79.7986984  28.9364997  71.8886995  80.3872013
  30.4493038  71.8973923  80.3387260   2.1823875  98.2164955  52.7242136
   2.2586528  97.3045254  52.4436474   1.2765495  98.4533501  52.5252581
  97.5517654  49.7052622  53.1950521  97.2477913  50.6022549  53.0563736
  98.2543087  49.7874641  53.8399601  69.1097832  97.1100521  51.9573021
  69.2074776  96.2480640  51.5527439  69.5358706  97.0240593  52.8101158
  21.6562129  49.5757664  25.0882741  21.5587712  50.5266560  25.0378248
  21.2833262  49.2529285  24.2679235  85.0302982  71.4005899  86.1653328
  84.2423248  71.5954447  85.6580257  84.7353649  71.4021587  87.0759583
  52.0099974  77.3802519  68.1807995  52.5867605  76.8844128  68.7619448
  51.1264086  77.1637011  68.4784651  14.5978352 102.8064374   0.3523275
  15.5450245 102.7280168   0.2387449  14.2275616 102.2495345  -0.3325061
  35.1310588   3.3686865   8.7478944  35.8950187   2.7967060   8.6741945
  34.8345281   3.2570780   9.6511289   8.3385555  60.5861998  78.5541964
   9.2622272  60.8354425  78.5849333   8.1963722  60.0936413  79.3625307
  19.4574539  79.5529318  86.8899250  19.8188678  79.0359449  86.1699677
  20.2200023  79.8026991  87.4118042   0.5548088  86.8180180  71.0693026
   0.4068653  87.5869370  71.6198492   1.5073482  86.7497349  71.0042048
  43.8227224  94.6456051  68.8588428  44.4899130  94.9567318  68.2470465
  42.9917431  94.8285675  68.4204006 100.0453281  41.8204021  71.7538977
 100.0461006  42.6626825  72.2086430 100.7930279  41.3491106  72.1214104
  49.1501523  11.9218910   3.5696908  50.0016500  11.7863167   3.1539937
  48.5441876  11.3905371   3.0532667  75.2375221  65.5247736  88.9518261
  75.2680826  66.4521074  89.1870975  74.9074745  65.0890636  89.7376060
  46.4197206  81.1276531  61.7032862  46.6169357  80.7497978  62.5603533
  45.4761219  81.0053062  61.5989828  76.7051268  58.7376595  33.2679200
  77.0883036  59.5936441  33.0763483  76.5516520  58.7499666  34.2126560
  97.8884029  31.0213494  80.3625774  97.4523067  31.8157554  80.6707478
  98.1658363  30.5747581  81.1624718  75.7362127  75.0169563  29.4180441
  76.5185690  74.4821358  29.2834687  75.3513145  74.6790981  30.2267098
  15.4496948  95.4720592  35.0492716  16.3288490  95.7653522  35.2886748
  15.1322738  95.0090313  35.8245659   0.4759017  60.9887934  88.8466072
  -0.0309952  60.5687904  88.1517124   0.2758304  61.9207573  88.7591839
  83.2943439  74.0744543  67.5231075  84.2110443  73.8785028  67.3294544
  82.8252888  73.8420916  66.7217207 101.7950058  75.4103088  82.6508045
 102.1076870  74.5228910  82.8267479 102.1535587  75.9366655  83.3653831
  62.8134633  52.3334015   7.2588941  62.3242951  53.1090248   7.5334092
  62.7901269  51.7536533   8.0202028  95.9890366  94.0916348  71.4758873
  96.3438225  94.8827839  71.0703850  96.3387871  93.3741856  70.9475088
 106.9159894   6.3754758  79.8921394 107.0820288   6.9459161  80.6426525
 107.0497231   5.4899701  80.2301216  78.8169194  30.7401646  23.6531564
  78.6089517  31.5899265  24.0415880  78.3543302  30.1064957  24.2015287
   4.3484298  85.6053448  80.9796810   3.9536563  85.1068115  80.2642441
   5.2869884  85.5910015  80.7922459 101.1620522  61.1211777  82.9948997
 100.5764484  61.3658953  83.7114239 100.6937599  61.3838720  82.2024822
  93.7434578  72.2666931  72.7964592  94.3198490  73.0160856  72.9461765
  93.3551216  72.0883417  73.6529732  99.6561718  75.3266525  51.4252949
 100.1708317  74.9687719  52.1486759  98.7626743  75.0292826  51.5969372
  92.7332115  96.0487747  59.9231482  93.4134769  96.3257313  60.5369568
  92.0279598  96.6844845  60.0444078  13.2597343  81.6934395  71.8674231
  12.5412933  82.0317078  71.3329554  14.0163127  81.6961098  71.2810707
  19.0662622  96.8076897  45.6960440  20.0215960  96.8674183  45.6961393
  18.7766814  97.6003456  46.1477995  90.7745266  81.2067890  36.4005303
  90.8435154  80.2665710  36.5662479  90.2222633  81.2727928  35.6215048
 104.5829964  75.0592422  42.1801949 105.4260540  74.7388268  42.5008392
 104.6994400  76.0063887  42.1054888  86.9530678  99.3441772  70.9034204
  87.0833492 100.2672863  71.1205387  86.8616199  98.9093208  71.7512178
  40.7091428  32.8256119   9.2706510  41.3804008  32.7895439   8.5892221
  40.7651425  31.9756210   9.7072431  90.4172802  68.1200218  67.6226521
  90.7064152  67.2098398  67.6874542  90.8886909  68.4677649  66.8656349
  99.6232224  50.2858019  75.0653601  99.4061089  51.1512375  75.4119396
  98.8741589  49.7385216  75.3012180  49.7561551  33.0401314   6.6129896
  49.3247605  32.2612274   6.2616464  50.6323911  32.7401150   6.8547460
   4.3582813 101.8800831  69.7331905   4.4374458 101.3717175  68.9260197
   3.6898414 101.4203644  70.2411985  59.3432570  76.3353491  82.7869606
  58.7960052  76.3812637  82.0029640  58.7621593  75.9902525  83.4647942
  65.2519941  63.6983871  78.7342834  65.7763433  64.4922686  78.6291695
  65.6488276  63.0679178  78.1332302  47.1504021  64.4568491  25.1795435
  47.8337002  65.1183176  25.2881479  46.9961405  64.1244221  26.0638094
  62.6549482  76.7642927  52.9406071  63.2608318  76.8444300  53.6773014
  62.3019123  77.6463127  52.8238106  -0.1697548  77.5625610  85.5333328
   0.7044021  77.8635311  85.2853680  -0.0192460  76.9713688  86.2709427
   5.1179401  76.7067862  66.5191078   5.1568595  76.5065670  67.4543238
   5.4277984  75.9090805  66.0902882  23.3964916   8.9078530  62.4852562
  23.9936444   9.3102940  63.1158781  23.0337330   8.1521996  62.9474497
  26.9194747  22.3671425  18.7532922  27.4002887  22.7884424  18.0408593
  27.4471665  21.6008175  18.9780542  19.8382951  23.9899624   8.2179281
  20.4297353  24.7399080   8.2812425  19.9754525  23.5072697   9.0330526
 109.9750042  92.4297714  71.7908907 109.7919273  92.3031807  72.7218533
 109.4481182  91.7630196  71.3503599  44.1890050  32.7779377  20.4710313
  45.1457501  32.8060139  20.4806062  43.9215947  33.6919487  20.5675145
  70.5927420  66.3383198  53.1382179  70.7792854  66.5046549  54.0622091
  70.5420351  65.3847599  53.0719948   5.0798799  25.9563435  16.7052194
   4.3214179  26.5032518  16.5006276   5.8337308  26.4838636  16.4412710
 110.1872253  88.5543060  58.5759783 111.0192204  89.0274715  58.5873175
 110.0284767  88.3269691  59.4921398  28.9945122   3.0458745  68.6812878
  28.3254715   2.8783044  68.0175543  28.5032173   3.1458291  69.4966841
  76.7865801  70.3985167  58.6893082  76.6200066  71.1366940  59.2754650
  76.1035824  70.4638100  58.0218601 106.7012024  90.8831596  79.7393084
 106.0647869  91.3741970  80.2590084 107.5520420  91.2123203  80.0290871
  91.7736816  70.0609207  85.6678581  90.9507370  70.3778839  85.2956676
  92.1532249  69.5147371  84.9794865  12.3070804  69.9569130  57.1923637
  11.6674987  69.3541622  56.8130827  12.4277393  70.6304312  56.5229940
  81.5241337  56.4128971  53.4019661  81.2174606  57.3140764  53.3017015
  81.1708641  56.1321974  54.2461443  50.8335733  66.6370916  54.1906071
  49.9464560  66.5733385  54.5444393  51.2338924  65.7917547  54.3940258
  71.2027311  70.0492954  71.7223644  71.4997053  70.7141304  71.1010504
  70.2947950  70.2864408  71.9111490   4.9735538  69.6309805  40.0924778
   5.8110706  69.2534399  40.3613138   4.4239990  69.5758104  40.8742523
  87.2694397  73.6237526  46.7767763  88.0179024  73.1258106  47.1055603
  87.6064014  74.5116568  46.6571426   1.6788188  68.9350605  50.7904577
   1.5130130  69.8171616  51.1230755   1.9147006  69.0658045  49.8720407
  76.1845064  77.8024054  58.5565281  76.6777658  77.0033741  58.3708620
  76.4785004  78.4252739  57.8918171  54.3986989   9.0435970  26.8119737
  54.9250222   9.3313206  26.0660287  53.5627366   9.4973028  26.7044851
   4.2462531  77.5045300  70.7035208   4.6450035  77.3564959  71.5610266
   3.3203212  77.2981596  70.8311129  97.0501041  76.2724066  47.6568842
  97.7804661  76.8431711  47.4180651  96.3626480  76.8718863  47.9471684
 103.6673355  41.2035131  61.5583944 103.4056759  40.9060144  62.4297476
 103.4836483  40.4587460  60.9858465  86.2876797  70.5525160  78.5915232
  86.3523769  70.0600004  79.4097376  85.3507614  70.7164574  78.4840918
  10.9918968  88.7357140  63.9101791  10.2310935  88.3775902  64.3675137
  11.5902893  87.9936886  63.8232803  72.7642727  97.5809383  31.7997217
  72.1174717  97.5339890  32.5037622  72.2555017  97.4572372  30.9984255
 105.5916505 102.4071673   0.6109163 106.0663705 102.6567391   1.4037534
 106.1939959 101.8286876   0.1431867  68.3746720  39.6176041   4.8958227
  67.4235440  39.7208298   4.9263784  68.7160207  40.4333771   5.2622052
  97.3533249  79.3846130  47.3040342  97.2005272  79.6580124  46.3995266
  98.2066345  78.9514542  47.2824192  86.0468193  97.3775796   9.7257539
  86.5626236  97.7668790  10.4318925  86.6590592  96.7967013   9.2741128
  42.7502776  22.3479021  11.7041131  41.8868543  22.0725525  11.3960286
  43.0890466  22.9035795  11.0021898 101.9431210  87.2216606  68.7786770
 102.0482159  87.9779243  69.3559504 102.8221321  86.8491077  68.7095594
  37.3284246  29.3012703   1.8572255  36.4021970  29.1314209   2.0289251
  37.6938916  29.5236862   2.7135011  15.8194729  58.5563954  52.2205925
  15.7655522  57.6007184  52.2157812  16.3092037  58.7726506  51.4271021
  87.6217937  45.4961348  73.9061403  88.2153797  44.7719383  73.7075853
  87.7133465  46.0916662  73.1623697  66.0822630  81.7608261  50.1736832
  66.1495209  80.9967709  50.7463264  66.6725969  81.5671158  49.4455242
  70.6022168  14.9960316   2.8919050  71.4261247  15.1806677   3.3428117
  70.0030995  14.7271049   3.5883066  87.2206116  55.9791946  46.6793823
  87.1857452  55.0444412  46.4762545  86.4106369  56.1502457  47.1599245
  39.1545678  47.2350395  11.2957975  38.6254073  46.6874874  10.7157823
  39.5277883  47.9026688  10.7202932  78.9005327  97.1432400  54.6364927
  78.8696623  96.4783096  53.9486313  79.7490168  97.0111465  55.0594044
  78.4015465  61.2802172  59.1694403  77.7127171  60.9782124  58.5773754
  78.6600971  62.1333075  58.8207054  92.9298592 104.1567039  68.8935041
  93.0841160 103.2424355  68.6557102  93.6765671 104.6291637  68.5254812
  22.0379921   8.8803300  70.9796095  21.3302513   9.0080747  70.3479338
  21.7955395   8.0846795  71.4533043  27.5032898  25.5146130  84.9726772
  28.0699059  26.0723599  84.4396687  28.0959507  25.1017388  85.6007862
  76.4085817  82.5095940  63.5269356  76.4466333  83.4514046  63.6936378
  77.3227835  82.2491169  63.4145927  39.7310635  93.5908536   9.8674604
  38.8696285  93.2167653  10.0524446  40.2893826  93.2677201  10.5746385
  32.2511955   4.4038972  51.9026804  31.6262432   5.0225743  52.2806931
  33.1074043   4.7262200  52.1842051  87.0241261  36.4630723  76.1488485
  87.1924305  37.2311234  75.6029510  87.3853397  36.6937494  77.0047379
 103.8968277  67.7625895  58.6168766 103.8572693  68.6778927  58.8941622
 104.8207283  67.5266933  58.7005424   2.2491161  88.5458183  75.2069283
   1.9544975  88.8320637  76.0715103   1.4750377  88.1461620  74.8103046
 102.8822994  43.9663363  74.3798637 103.1813049  44.2477369  75.2445316
 103.1050301  44.6950436  73.8005447  78.8852596  62.8695011  52.1056271
  79.3018389  63.7010431  51.8792820  78.5475206  63.0040216  52.9911041
   9.2742340  50.1570892  76.3536549   9.6885864  50.9942484  76.5627193
   8.5262863  50.3907156  75.8039093  26.2789818  13.5079869  58.1118965
  25.6291481  14.0132531  58.6004114  26.4791199  12.7633199  58.6790371
  34.2181731  37.9901874   7.6679727  34.5174838  37.7902687   6.7810270
  34.9357511  38.4911621   8.0556890  89.8300362  61.3252640  64.3651295
  89.7610188  61.6436338  65.2651882  89.0725899  61.7034960  63.9185381
  -0.0613602  36.2124801  63.2763004   0.5484859  36.5469432  62.6186895
  -0.1857194  35.2928042  63.0418539  82.3319054  87.4339867  48.1100512
  83.0599594  88.0284691  47.9290724  82.0786762  87.6328754  49.0114689
 107.6438522 104.4918728  32.2500706 107.5774765 104.9848175  33.0678964
 107.0879459 104.9712086  31.6357112  90.8707523  87.6306057  75.8796883
  90.2044773  87.8700352  76.5238762  91.5758514  88.2630062  76.0180235
  89.2697235  20.8183679  60.4616976  88.7928673  20.7928857  59.6321249
  88.7001702  21.3138112  61.0502338 105.5010705   6.8452557  72.6296473
 106.4578442   6.8592557  72.6046848 105.2735715   7.3770627  73.3923149
  95.2222538  92.5815678  46.1224508  96.0236740  92.1159649  46.3615608
  94.8867893  92.9223633  46.9516373  80.4851055  74.8215103  53.4905910
  80.9825516  74.5462275  54.2606544  79.9855947  74.0450430  53.2379723
  13.5603710   5.8595570  89.2935371  12.9674813   6.4708909  88.8565254
  14.0676972   6.4057740  89.8939610   3.2067724   5.2350720  80.8645248
   3.0668780   6.0040387  80.3119373   4.0562721   4.8921212  80.5871105
  58.1669427  12.7869404  27.7205297  59.0231229  12.9543388  28.1144449
  57.6745606  12.3304069  28.4027120  57.0689012  25.6899631   1.9407674
  57.6498986  25.6826198   2.7014276  56.1996175  25.5157602   2.3016473
 110.0694084  40.2422571  68.3192730 109.5635414  39.4299078  68.2988167
 109.8836327  40.6613207  67.4789715   4.4888584  77.6943445  64.1498184
   4.7529212  77.3146009  64.9878502   5.2962581  77.7272511  63.6367416
  97.2024441  65.6776190  76.7186928  97.3901463  65.1321411  75.9548521
  96.4515018  66.2092304  76.4546633  91.8529129  69.6776390  65.8449888
  91.7141247  69.0521049  65.1338768  91.7901993  70.5354929  65.4250097
   5.9535881   7.4440297  90.5246925   6.5876003   7.9115781  91.0684395
   5.8818909   7.9740724  89.7308826  11.3544074  86.4915276  69.4355822
  10.6156341  86.8503571  68.9439631  11.2934963  86.9062233  70.2961349
  85.2088071  45.2189052  25.2689000  84.2913056  44.9647224  25.1697751
  85.2142716  45.8064545  26.0245344  99.3231063   3.0360803  72.9288578
  98.4193520   2.7247723  72.9792690  99.3396478   3.5991963  72.1549988
  10.1280776  71.5487051  58.1730986   9.6560947  72.1458292  57.5926685
  10.7249442  71.0741282  57.5945091  22.2600456  14.7564897  78.4440565
  22.7105709  13.9827641  78.7826157  22.1054646  14.5586118  77.5203800
 105.1124287  96.4307117  66.3330317 105.9288788  96.5440273  66.8196392
 105.3658772  96.5246105  65.4147816  92.0995331  79.3912888  48.8918924
  92.2478771  78.4887552  49.1741371  92.9034138  79.6337032  48.4322834
  84.0561867  57.8755951  40.1212072  84.1166878  57.2598886  40.8516026
  83.7573433  57.3436546  39.3836665  59.7837449   4.0944708   6.8330690
  60.6501676   3.6972940   6.7448255  59.1908742   3.3522404   6.9507047
  92.6779747  35.4782176  77.2387171  93.0549240  35.3904748  76.3632488
  93.3402061  35.9563351  77.7378035  92.1909142  71.4564991  80.8875084
  92.6295853  71.6955757  80.0710297  92.1449566  72.2741652  81.3830280
  18.4145252  64.6420813  41.1821079  18.1112949  63.8203001  41.5680456
  19.1562072  64.9036360  41.7277527  65.3295183  88.7679958  75.5024862
  64.6121502  89.3964958  75.5837202  65.2474260  88.2096004  76.2755871
 106.3021564  96.3677311  83.6628342 105.9560776  96.6775513  82.8258896
 105.9500027  96.9798756  84.3089771  77.0855046   9.5061672   8.9567014
  77.6451875   9.1056621   9.6219751  77.3719026  10.4188049   8.9205762
  93.3263683  97.0320988  39.4603419  93.6654282  96.2791252  38.9763045
  92.4054241  96.8222237  39.6153784   3.0342666 103.5894966  55.2894831
   2.8660575 104.4495869  54.9045372   3.7935726 103.7251377  55.8563089
  30.9163571  13.9588392  18.3728525  30.3534699  14.2691219  19.0821573
  30.3107549  13.5862625  17.7320215 101.4871311  58.0330181  35.5704331
 101.3761234  58.4443665  34.7132850 102.2092247  58.5137272  35.9750772
 105.4926205 103.3815193  88.5339451 105.0120926 103.4325123  87.7076817
 106.3659954 103.7121773  88.3238888 108.8092613  87.8862667  79.6517992
 108.4382725  87.0963669  80.0450802 108.7106323  88.5585213  80.3260231
   7.0330326  60.4513311  55.5286598   6.4668170  60.7484341  56.2409592
   7.5065700  59.7043753  55.8947802  66.5023708  86.2235451  80.0040913
  66.0318327  85.9407425  80.7882118  66.8497419  85.4145908  79.6283913
  92.2517014  73.4305763  70.6671143  91.3776493  73.3910704  71.0553169
  92.7800179  72.8418732  71.2061357 109.8256874  73.0921602  59.5791292
 110.1216030  73.2839966  58.6892605 109.3832588  73.8924026  59.8621511
   3.7649342   2.9096898  49.0615273   3.2242295   3.2082089  48.3302593
   4.4029232   2.3184689  48.6619520  83.4808922  57.1373987  55.3795338
  82.9522705  56.8727493  54.6267033  83.1020546  56.6602659  56.1178112
   6.6971008  66.8582392  60.4086494   6.1859981  67.6353502  60.6346989
   6.0940734  66.3138533  59.9024582  50.1273156  46.1853397  31.0558816
  50.4862310  46.9631279  31.4830419  49.4251348  46.5207279  30.4984971
  65.7408285 104.7399235  52.7793789  66.1364794 104.8943901  51.9215679
  64.9590445 104.2201996  52.5924730  85.6999397  94.5618534  90.1454544
  84.8116207  94.2316818  90.2800179  86.0001469  94.8054028  91.0211182
  95.0764751  64.0765572  88.2737446  94.3051243  64.4227266  87.8249550
  95.4676342  63.4703350  87.6446724 106.1372566  61.6371250  58.6595678
 106.3432598  60.9512615  59.2946911 105.2193928  61.4864540  58.4335995
 100.6659508  62.8937244  66.3101625  99.7219658  62.9992628  66.1918736
 100.9992790  62.7169228  65.4304647   0.8765022  66.6278887  51.7560005
   0.0113479  66.8506956  52.0996714   1.3025848  67.4731064  51.6135550
  92.6050186  69.4363499  77.8051567  91.7332077  69.1266727  78.0506468
  93.1918716  68.7226152  78.0550098  56.7094851  93.7833691  42.8216648
  57.2079039  93.1587315  43.3485746  56.0792303  94.1636562  43.4335423
 100.0505924  63.5325670  40.3842020 100.6139469  63.0881262  39.7506952
  99.8291492  64.3644047  39.9655819  45.1402093  27.0014561   6.7706796
  44.3747521  26.5061224   6.4792367  44.9588586  27.2046221   7.6883241
  22.7561999  27.4665058  13.1806585  22.8754855  27.1080387  14.0601465
  22.6461555  28.4073341  13.3183690  37.8224087  88.3000946  84.6482277
  36.9711947  87.9609203  84.9250412  38.1639314  88.7497330  85.4211521
  13.6649028  52.7835751  39.3397164  13.0174915  53.1662130  38.7475324
  14.4841472  53.2255983  39.1168213  95.4253483  73.5125399  76.0090446
  95.2619267  73.8745832  75.1381540  94.6664429  73.7816954  76.5265942
  76.8123293  57.0598412  80.5326462  76.8829203  57.9260397  80.1314545
  75.9424877  57.0510483  80.9320641 108.7038136  70.6551218  84.5186520
 108.4075642  70.1460505  83.7641144 108.6910534  70.0338125  85.2466965
  72.3916674  69.0948439  56.7282295  72.4482870  68.1411409  56.7871952
  72.5149584  69.2850590  55.7982588  68.0093336  96.4541721  64.0497208
  67.3253632  95.9550858  64.4961786  68.7354898  95.8371735  63.9589405
  67.6526833  96.6967773  69.4828463  68.1713486  97.4201870  69.8348379
  67.9367304  96.6193771  68.5720444  73.4149981  89.1203022  49.2409706
  74.2244434  88.6853600  48.9729166  72.7178335  88.5676098  48.8878107
  78.7584591  66.0910368  73.3521891  79.5542860  65.7521582  73.7621355
  78.9233112  67.0281076  73.2475376  42.6823517  27.6752576  41.4509487
  42.7993771  27.5385770  42.3910809  43.5727688  27.7127370  41.1016989
   9.9187180   9.0994080  31.8656111  10.0922295  10.0228700  32.0482135
  10.2144428   8.6401471  32.6516557 100.5539417  45.6615400  87.9394913
 101.1159420  46.4354134  87.9782867 101.1129856  44.9443150  88.2382965
   7.7502433 104.0581608  47.2349930   7.2225467 103.7042904  47.9509163
   8.5981456 103.6231327  47.3247051  15.4786965  17.3554524  80.3194809
  14.8037144  17.1387395  80.9626484  16.0701462  17.9480561  80.7834244
  13.6209489  33.1594265   6.8907663  14.5473910  33.2124412   7.1255609
  13.5948373  32.5469292   6.1556550 103.1484985  81.1385918  48.9197111
 103.4555149  80.6165123  49.6609259 103.0315399  82.0182800  49.2784739
 101.4386749  98.0501080  63.5944223 102.1877480  97.6002121  63.2036400
 101.0129356  97.3830509  64.1329622 105.0011878  15.6243714  52.2229767
 104.8519091  15.1700696  53.0521631 105.2295356  16.5184316  52.4774456
  66.1756030 103.9210892  64.9243402  66.8893138 104.1540146  64.3305254
  65.6712047 103.2630253  64.4460535  55.3621579  33.5633362   5.7739850
  54.9053479  33.4989059   4.9352952  55.5578900  34.4954670   5.8691236
  83.7843800  77.1545553  87.3144913  82.9402351  76.9365597  87.7096176
  84.3777561  76.4704227  87.6244926  64.1436196  48.7874782   3.2875272
  64.8290635  49.1910065   2.7550145  63.5834886  49.5177830   3.5504743
  94.9593353  80.6280613  74.3749142  94.4235516  80.7405281  75.1600981
  95.8442307  80.8645725  74.6528769 110.0471307  35.7549751   1.5726014
 109.1021253  35.6384838   1.4744397 110.2022172  35.6720913   2.5135061
 107.5628757  59.0099859  76.0763121 107.4835014  58.1704092  75.6234932
 106.6608429  59.3139696  76.1771059  16.2214080  69.5484066  72.1439457
  15.5335323  69.7008371  71.4960098  15.7568065  69.4987965  72.9793596
  23.4302899  31.7176351  49.0983295  22.8681275  30.9947118  48.8197803
  23.9104744  31.3715085  49.8505640 106.7492299  12.3369321  59.3959618
 107.2312312  12.7409848  60.1175213 107.2300868  11.5308103  59.2084217
  89.7267151 100.7871914  75.8076334  90.5840874 100.5309486  76.1474752
  89.2877102  99.9585342  75.6157351  69.8120451  61.3690042  86.3370991
  69.0881586  60.7439661  86.2977505  69.3872547  62.2222090  86.4255428
 101.4239883  99.2348957  69.2939377 102.1221828  99.0922642  68.6548758
 101.7199230  98.7739182  70.0788927  38.8100997  90.2233791  65.8712435
  39.0931026  91.1237526  66.0308695  37.9084484  90.3071499  65.5610180
  42.9738713  64.7654426  13.1900522  43.8489438  64.6494186  12.8198835
  42.5629951  65.4251469  12.6312944 104.8976231  94.9007130  60.0686026
 104.5626640  94.6762657  59.2004681 105.4121685  94.1375828  60.3314638
  69.0688419  87.6775837  35.3698397  68.6639786  86.8452740  35.6139445
  69.9169254  87.6706505  35.8136129 104.9035835  81.2914276  68.5813427
 105.1387978  81.8715286  69.3054914 105.4251957  80.5022526  68.7275171
  56.1024095  18.7636507   3.7488099  55.1555635  18.7898386   3.6108896
  56.3424874  17.8508270   3.5895940  97.6906872  80.8499718  75.2394724
  97.6594734  80.7393265  76.1897469  97.8841209  81.7788124  75.1127148
   6.0257999  56.7305470  89.1416931   6.7250530  56.8572235  88.5004139
   6.2283031  57.3503637  89.8424435  94.9632932  78.1134212  13.6664220
  94.9409581  77.6301372  14.4923612  95.2026368  77.4575889  13.0115625
  70.6568098  94.6761513  52.8119278  71.2288189  94.3575287  53.5101557
  71.2232018  95.2259064  52.2704458  19.2085544  76.8571615  70.9614420
  19.0579215  77.4460268  71.7008924  18.3853046  76.8702650  70.4732656
  20.9358593   8.7120351  68.3376026  21.3504692   8.1011495  67.7283859
  20.2897068   8.1826505  68.8050079   5.0849906 104.5459175  42.9587507
   4.8495475 104.3422318  43.8639069   5.8897201 104.0514088  42.8035021
   7.2615048   2.1994981  34.7508597   6.6279980   2.4461278  35.4247117
   7.4955555   1.2955769  34.9615145 102.4910927  78.0695391  34.9101448
 103.4058762  78.3288717  34.7999334 102.5034237  77.1145916  34.8456526
  45.4392625  21.7110384  10.8745691  44.9274732  22.0374620  10.1344701
  44.9753476  22.0333660  11.6473028  34.5188514  51.3305569  47.9857683
  34.3210212  52.0731449  47.4151039  33.9056674  50.6483126  47.7123022
  65.4904271  46.8246735   6.7517968  65.5456067  45.8748520   6.6467592
  65.6273843  47.1714867   5.8702108   1.0533039 100.0345707  79.2168570
   1.5634529  99.5771503  78.5484648   0.3481571  99.4262123  79.4379902
  37.4519631  10.1989659  60.2888346  37.0493218   9.8852452  61.0985804
  37.9767700   9.4602403  59.9804640  81.4291859  91.8963528  76.4455938
  81.7986584  91.1355495  76.8938112  81.8152905  92.6490593  76.8934679
  85.7387543  88.1269741   0.3369751  85.7488728  87.2895622  -0.1265696
  85.1160240  88.6642551  -0.1526706  14.5909115   2.4673375  67.8059959
  15.0830456   2.7547559  67.0369482  15.2619644   2.1927079  68.4308910
  96.3698196  65.9154701  71.4402676  97.2957420  65.9973383  71.6687250
  96.3197708  65.1077795  70.9290314  85.7445717  91.4027500  64.4126654
  86.5799427  91.4810848  63.9519548  85.1115036  91.1915207  63.7264872
  87.3722172  73.2465410  81.0800171  86.5503216  72.7677298  80.9729958
  87.1825981  74.1246843  80.7496452 102.3435307 101.1419582  77.0074511
 101.9290066 101.8851471  77.4457121 102.5981998 101.4814663  76.1494827
 104.0802956  70.1645660  68.5561419 104.7910213  70.6754827  68.1687641
 103.5538483  69.8813581  67.8085613  65.1323366  81.8964863  60.1438189
  65.7567406  81.1962700  60.3336811  65.5607462  82.6917648  60.4604101
  38.4262463   4.5299157  72.5917435  38.7204739   4.9484548  73.4007549
  38.8244530   3.6597546  72.6137161   4.2192832  97.0419788  84.0805054
   3.9465515  96.5505314  83.3056927   4.4219486  97.9171371  83.7499619
  89.9671459  66.0348272  56.0908127  89.4124222  65.8986378  55.3227186
  89.8112297  65.2653217  56.6383362  82.3809147  84.0218353  27.1814299
  82.3962784  84.8707771  26.7395163  81.5222549  83.6563969  26.9683623
 100.0651455  77.1835184  88.6349106 100.4064846  77.3097801  87.7495956
  99.9931717  76.2338448  88.7306786  90.5673790  80.1720619  57.0721960
  90.4413795  80.4238510  56.1573410  89.9011517  80.6657028  57.5504160
  58.3494283  50.6471908  10.2231237  58.8491536  49.8308266  10.2301141
  59.0147592  51.3351620  10.2070638  82.5582981  60.9404135  47.9722929
  81.9709587  60.7222652  47.2486448  82.9855919  61.7517519  47.6977205
  52.5208660   1.8195065  55.9087563  52.1867748   2.4771222  56.5187931
  52.3784538   0.9846887  56.3548803 110.4138470  74.3109512  66.3478279
 111.2846661  74.5184374  66.0089254 110.5562878  73.5697842  66.9365644
  82.8157043  81.6175842  73.7210608  83.6008549  81.5207386  74.2599440
  82.4107361  82.4275303  74.0312290  14.3533322  19.5220097  51.5037870
  14.8998924  20.2859124  51.6880226  14.3725868  19.0127000  52.3140144
  88.7160301  78.1870651  58.8351393  88.4617901  79.1056156  58.9238024
  89.2231464  78.0015469  59.6254826  98.1798459  31.1209000  11.8691560
  97.7098466  31.8700683  12.2353097  97.5851155  30.3811920  11.9931051
  30.1942917  33.8117322  35.8512855  30.1263710  34.7599706  35.7396555
  30.5397412  33.6989507  36.7368221  15.7835289   8.0327901  46.2422657
  15.5129811   7.1427449  46.4677858  15.8148190   8.0384549  45.2855921
  61.9310666  37.1098316  10.6720277  61.9020272  37.7262867  11.4037153
  61.8843461  37.6620663   9.8915788  88.7622643  50.8687782  76.3159466
  89.2516422  51.2525511  77.0435810  88.0891800  50.3332853  76.7359972
  39.7755195  48.5725201   5.8018419  40.7189275  48.4113300   5.8169195
  39.5830966  48.7831581   4.8881456  41.4219571  19.3835199  14.6981927
  41.2727023  20.0411785  15.3774854  42.2069741  18.9168871  14.9849435
  95.3579617  78.2080793  72.9298973  96.2399578  78.0604649  72.5885201
  95.4633331  78.9128971  73.5689259  78.6688042 102.9717922  59.8024845
  79.1659832 103.3811092  60.5106544  77.9348707 103.5670280  59.6499729
  54.2059895   2.2849664  81.9472313  54.9408051   2.0448884  81.3827419
  54.5633503   2.9499349  82.5357342  16.0119811  93.6527157  85.1259708
  15.8503429  94.5958710  85.1497936  16.0024063  93.3847809  86.0448551
  27.2494503   1.4788350  47.5454044  27.5570866   2.2377595  47.0497942
  27.1699616   1.7963799  48.4448957  54.3335867  71.0433102  56.0727024
  53.4553862  70.6695890  55.9996939  54.1846991  71.9685411  56.2676477
   6.0563175 100.3085995  44.5521736   6.0752860 100.2662754  43.5960960
   5.8416835 101.2207794  44.7473288   2.0763580  80.3192902  69.1735601
   2.8874771  80.3424454  68.6658382   2.3583785  80.4349041  70.0809336
  98.4296608  83.3534622  73.9591408  97.4846554  83.5019493  73.9251423
  98.6841297  83.2199383  73.0460978  43.8216969  14.0704068  24.3558669
  44.0934559  13.9166936  23.4510183  42.9905506  13.6029633  24.4390178
  92.4906635  81.4056301  34.0688586  92.3799801  80.6959724  34.7016096
  93.3640671  81.7532825  34.2492175  78.7035561  53.4567547  57.4094534
  78.7990141  53.0842924  56.5328741  79.5397806  53.8911819  57.5774717
  26.6978928  23.0372723  52.6613283  26.3208481  23.8796719  52.9151678
  27.0615765  22.6833352  53.4729290  67.9319001  46.2849987  12.6595899
  68.3558084  46.8553245  13.3008882  66.9964887  46.4571751  12.7672979
  18.3887092  95.1609516  73.2171297  19.1957847  95.0042248  73.7073326
  18.2894031  96.1129856  73.2173300 105.8105278  76.5873575  84.0620041
 105.9650803  76.4573812  84.9976540 105.2196312  77.3391771  84.0190125
  44.0337896  81.6035080  65.1310349  43.4224081  81.9831657  65.7621479
  44.8785973  81.6121197  65.5809832  69.0615082  76.7567396  71.3642931
  69.0019226  77.4326134  70.6891060  68.3766127  76.1284542  71.1353636
  55.5695439  73.5941780  15.9152433  55.0175477  74.1375149  16.4776632
  56.2579537  73.2703102  16.4961263  57.9696847   8.9929426  12.3547670
  58.2424737   8.4937275  11.5849611  57.0604039   8.7314594  12.4999353
  48.9125444  35.8069504  26.7614862  49.7109128  36.0350883  27.2377130
  48.2358552  36.3625324  27.1483346  34.0430542   0.8690652  74.8439980
  33.4980293   0.2272519  75.2992439  33.4432503   1.5835580  74.6296024
  15.1725193   4.9742326  78.5383511  15.9674641   5.4001435  78.2175779
  14.6791836   4.7603234  77.7464581  97.2807980  93.9226246  64.6401405
  97.8808117  93.6949921  63.9299345  97.5053883  93.3172226  65.3467417
 110.5200672  83.8871574  64.2165804 109.6898365  83.8892269  63.7401915
 110.9142685  83.0404186  64.0071583  88.2559681  65.7979012  51.3159370
  87.7905464  65.4931593  50.5369997  89.0394020  65.2494478  51.3567209
  66.3721367  29.0209111  53.8598204  66.7936417  28.7671765  54.6809053
  67.0448109  29.5106133  53.3866167  88.2720375  80.5791378  87.2634602
  89.1694260  80.5761147  86.9304180  88.2827568  79.9518728  87.9864120
  71.3274364   9.7143277  62.7988625  71.4685135   9.7697076  63.7439919
  70.5950384  10.3072938  62.6308680 101.0011391  29.6647653  87.5349617
 101.8601756  29.3041810  87.7546692 100.8523707  30.3458222  88.1908989
 109.5930958  93.8227940  51.3026857 109.9004841  92.9180908  51.2455130
 110.0681686  94.1905212  52.0478725  62.7454281  97.7667713  43.9620066
  61.9363546  97.2568703  43.9215994  62.5551176  98.5582638  43.4584665
 101.8210220  63.9850998  88.3311844 102.4489975  64.3204546  87.6913357
 102.0295811  64.4533253  89.1395760  56.5720701  68.7846470  87.8394985
  56.7776966  68.3896065  88.6867809  55.6405449  68.6054754  87.7114487
  86.1176968  70.8653021  74.2407322  85.5820465  71.1001539  74.9984598
  85.5100632  70.8883429  73.5014868  43.6926934   5.6525334  62.9654360
  44.2357250   6.3617715  62.6214504  43.1430718   6.0713586  63.6278105
  39.8850299  61.5164745   5.8833715  39.7210980  60.5899609   6.0592290
  39.0418531  61.9424236   6.0378190  98.8554764  70.3225470  47.3853970
  99.7946548  70.3013372  47.2017288  98.4579659  70.6191444  46.5667105
  73.0732632  69.0791225  51.5003729  73.6821461  69.8115349  51.5955925
  72.4013329  69.4027090  50.9003496  49.5574280  37.7832993  78.6163235
  49.9759480  37.3804768  77.8555250  49.6406933  37.1289262  79.3099356
  47.0412823  16.5789994  64.4523859  47.8356453  16.4505109  63.9340210
  46.3307949  16.2989816  63.8752985   4.0295688  92.9956913  72.8813219
   3.8475028  93.7155151  73.4854221   3.4655849  92.2828197  73.1812620
  17.6404277  61.4878798  49.8882008  16.9920055  60.9681416  49.4131756
  17.3380081  61.4763165  50.7962942  66.4730883  70.6642342  53.3823204
  65.8468914  70.4885197  54.0846300  66.9118452  69.8259544  53.2373571
  83.6864090  90.1553917  30.0016570  83.8189030  89.7846794  30.8741498
  83.9394951  91.0742092  30.0908542 109.6956158  67.3062372  83.8214397
 109.4994259  67.4999380  84.7380733 109.0626144  66.6305304  83.5786343
  49.5749089   0.6478223  43.5524225  50.4337021   1.0557374  43.4415054
  49.3292137   0.8486089  44.4554996  53.2033058  27.8527078  51.2532759
  54.0158268  27.3921689  51.0436535  53.4764286  28.7536630  51.4262247
 105.4029846  81.4925671  57.5313425 105.7732582  81.5395164  58.4127760
 105.9763718  82.0458317  57.0009041  94.1303349  99.7656059  81.8055534
  94.6131897  98.9415741  81.7418766  93.6098194  99.8008251  81.0030270
   2.8263561  76.2064219  75.6555128   3.0456058  75.7865286  76.4872885
   3.5626689  76.7928696  75.4818487  98.5392432  17.7975854  87.1228981
  98.7594275  18.4689053  87.7687168  98.8995557  18.1291493  86.3004208
  64.5368290  77.7057791  84.0206242  63.6177826  77.9620647  84.0974808
  64.5494556  77.0714235  83.3039284  85.1619625  78.0306292  71.7364502
  85.9902859  78.4536934  71.9625568  85.2848911  77.7291012  70.8363390
  80.1854229  78.8094902  75.2904654  79.8221445  77.9547262  75.0588512
  79.7300863  79.4264650  74.7175407  73.4065676  68.8496065  66.1993027
  73.4945345  68.5761881  67.1123981  74.1980934  68.5204697  65.7734108
  38.4755894   2.1426686  90.8151054  37.8333088   1.6381463  91.3142681
  38.8046738   1.5286549  90.1586533  54.2270851  99.1558647  65.1896048
  54.6992207  98.3232212  65.1937342  54.9150419  99.8212147  65.1735592
  97.9031277  93.9272213  79.9638510  98.6353874  93.3483696  80.1758671
  97.2596264  93.3557606  79.5448399 102.2456837  83.6980820  65.1054859
 102.6089001  83.5232735  65.9736729 102.1751976  82.8352070  64.6971703
 109.6104336  64.6175289  79.8604059 109.5856953  64.0425873  79.0955114
 109.4569016  65.4935932  79.5065975   0.5141250  76.3907385  80.4683876
   0.5170814  77.1919870  80.9920406  -0.3996762  76.1057949  80.4717255
  98.2351781  35.3921402   4.1695901  98.0360032  35.7997215   3.3267137
  97.7442647  35.9096802   4.8078557 107.2432232 103.6223125  67.6003647
 107.9560566 103.5118008  66.9711637 107.6139927 104.1759872  68.2875347
  36.6213032   1.8725308  46.2935781  37.3006150   1.2762269  45.9786415
  36.4655968   2.4671563  45.5598164  38.9024592  54.4815529   1.7044755
  39.6022130  54.5198524   2.3564836  38.0955316  54.5491016   2.2149011
   6.8684093  99.7898579  53.1992817   7.2111598 100.4743099  52.6245737
   7.6475994  99.3477821  53.5364151  10.8835980  10.1358136  58.3042336
  10.6258770  11.0262212  58.5429287  10.5199047   9.5868405  58.9989233
  46.7572404  28.8867367   0.5229398  46.3825704  29.7541702   0.6760141
  47.5032903  29.0466774  -0.0550440  86.8713857  45.6278408   6.8667146
  87.5271226  45.0805748   7.2988721  86.0598756  45.1241386   6.9297048
  94.4146729  37.2094512  78.0405951  94.9754143  37.3451900  78.8043833
  94.9680042  37.4377203  77.2936344  72.2283602  77.4899578  51.6451645
  71.6878510  77.5412321  52.4334860  73.0986357  77.2540140  51.9663954
  81.8716721   1.9884595  78.4426785  82.0825391   2.9160413  78.5493135
  82.4452786   1.5395078  79.0636873 108.0915642  86.4274502  72.3578930
 107.9530144  86.9613838  73.1401634 108.8494205  85.8828735  72.5707531
  86.6997910  74.2583847  62.0565796  87.0309162  73.6222076  61.4226484
  86.1555195  74.8515177  61.5387011  84.8207760  64.4989967  59.8866081
  84.1292286  64.3435431  60.5299044  84.7741604  63.7455702  59.2980433
  71.9690228  95.2338028  84.1324997  71.7058229  95.6304073  83.3020401
  72.7549601  95.7158661  84.3896961  53.9896203  67.7199924  17.7269193
  53.2540990  67.1114338  17.6569387  54.2287828  67.9119289  16.8201753
   4.6779910  79.3536854  67.0976019   4.6605007  78.4471464  66.7908239
   4.3798820  79.8665476  66.3463783  55.3627778  38.5154808   4.5358678
  55.3936673  38.8953388   3.6578103  54.4400121  38.5641849   4.7855684
  27.6670409  30.4404247  16.1128637  28.6039783  30.3987587  15.9214422
  27.2431422  30.3012360  15.2660104  18.6495677  89.6716213  87.2347069
  18.5024444  89.5006561  86.3044548  18.1808940  90.4886532  87.4051189
  12.3742672   6.4128693  52.7288628  12.4076744   7.3413857  52.4987030
  13.2659813   6.2026128  53.0061340  53.1655026  62.1745670  26.3089391
  53.4853936  62.2143257  27.2102281  52.3731805  62.7116478  26.3120958
  82.3737431  71.4458895  74.3589687  81.6185665  71.7090750  73.8329601
  82.6686573  70.6265831  73.9614820  35.8041950   2.2899255  84.0386581
  35.4511925   3.1137284  84.3747520  36.6227719   2.5377473  83.6088371
  58.2177735  30.8703602  17.1409150  57.2698308  30.7928360  17.0331308
  58.3845426  30.5540073  18.0287954   2.5278465  72.4377298  87.9699802
   2.5323860  73.3678675  88.1959343   1.6945163  72.3050976  87.5180912
 105.2358532  83.2663822  74.7543097 104.7023773  83.2114983  75.5471659
 104.6382236  83.6022377  74.0862751  39.1685482  19.1319665  63.5431290
  39.2568108  18.1954774  63.3658409  39.5833679  19.5578870  62.7929688
 101.2739277  66.0844421  73.3546448 101.8453121  66.2811232  74.0969801
 101.6475677  65.2925110  72.9680300   2.4005596  81.0083294  71.8659639
   2.0390788  81.8837452  71.7273951   3.0986968  81.1363697  72.5081778
   5.1362792  58.4482431  81.1989307   4.1856185  58.5446262  81.1425114
   5.3061000  57.5603867  80.8841324  86.8615627  75.6979847  79.8412371
  87.5521088  75.5598831  79.1929293  86.2176991  76.2458658  79.3923426
   6.5580646  98.6951065  47.4412394   6.2851707  97.7884007  47.3010731
   7.2943584  98.6322975  48.0496359  15.8504383 102.8030777  86.4644527
  15.8558837 101.9913292  86.9716644  16.7048351 102.8218460  86.0333157
  24.7056290  22.2571477  44.2487860  24.8024937  21.8118199  45.0905323
  23.9927765  21.7911061  43.8118935 110.1544189  64.9655628  72.5150061
 109.4459534  65.0248146  71.8740702 109.7860146  64.4497108  73.2322311
   0.3115698   7.8635129  43.9188862  -0.1795820   7.0991429  44.2201090
   0.2073046   7.8554925  42.9674196 101.4352989  93.3362484  75.0241899
 102.0049667  93.7186337  75.6916380 101.4741707  92.3938656  75.1874304
  99.9476625  44.5607365  38.7372896  99.0087987  44.4959820  38.5624620
 100.0131131  45.1725281  39.4705411 110.0129795  95.7008171  76.6470194
 109.2498302  96.2634373  76.7785120 110.0042057  95.1061535  77.3970413
  15.1336857  10.5401334  82.6314545  14.6116730  10.5428609  81.8291283
  16.0060402  10.2657517  82.3486996   3.1915561  62.7601480  65.1742935
   3.9945403  62.9560709  65.6570530   3.2554904  61.8267918  64.9718428
 100.1706029  43.4738243   9.6089956  99.7211934  43.0828274   8.8597318
 100.2405358  42.7616108  10.2446767  55.3787232  80.9006679   2.0123884
  54.9403668  80.3335274   1.3780137  56.1706830  80.4210651   2.2553083
   8.1000606  68.3033180  58.5154867   8.4328643  67.7612972  59.2308140
   7.8579036  69.1295624  58.9337111 108.0879688  59.5826960  30.8066392
 108.8352013  60.0723314  31.1503625 107.7956581  59.0442801  31.5420938
  87.8662872  68.6151361  73.4181738  87.1069622  68.8267994  73.9611816
  88.3541393  69.4364834  73.3580065  79.3748474  67.7490473  55.4770660
  80.2107620  67.6902151  55.9396982  79.6126080  67.9957008  54.5832729
  32.3946000  36.2950695   1.9157716  32.7044869  37.0137966   2.4668046
  31.4470149  36.4215553   1.8676301  80.8471680  50.5698967  85.9172344
  80.2517128  50.6786251  86.6587543  80.9659386  51.4553499  85.5735970
   7.5006286  95.0913334  73.6733532   6.6660682  95.4928780  73.9152527
   8.0106536  95.8079147  73.2957029  24.0227791  18.2916650  65.2668238
  24.8938938  18.1257829  64.9064398  23.6656662  18.9900884  64.7182751
  11.1757366  58.7248945  38.2149887  10.5585853  59.1849566  37.6460361
  11.4869777  59.3956947  38.8227558  31.8627735   4.6420583  83.6271095
  31.9061943   3.7656411  84.0095329  31.2929245   4.5426377  82.8644657
  91.9266415 101.6111565  73.0562258  92.2328281 100.7284737  72.8480196
  92.4784851 102.1871185  72.5271034 107.9231930  94.5064831  63.4078884
 107.9229736  93.5516739  63.3403969 107.0021534  94.7528172  63.3229017
  40.4840657  12.8776463  80.3180695  40.0256726  12.6175221  81.1170959
  40.7084938  13.7973794  80.4593182  25.2579495  12.1154984  87.6064014
  25.8189770  11.3413247  87.5602818  25.8647152  12.8432664  87.7420807
 105.6230164  71.0005665  53.5972881 106.0296726  71.5826368  52.9553747
 105.6518269  70.1355934  53.1883574   5.9271327  85.8840752  89.5799446
   6.1258403  86.7847252  89.3238544   5.3486148  85.9725285  90.3373909
  91.4379788  32.6629055   1.0658284  92.2281648  32.7088154   1.6041013
  91.5224553  31.8388641   0.5861970   5.5040165  20.3625688  79.2014742
   4.9573656  19.5768269  79.1985655   4.8820921  21.0872659  79.1362619
 100.2487659  81.2318039  52.7988625 100.6503105  80.3640270  52.7545977
 100.6713390  81.6533661  53.5471582  21.9470307  11.3196286  81.0028839
  22.3892590  11.1153134  81.8268490  21.7969891  12.2642907  81.0394096
   3.6099426  96.4407063  87.1701336   4.1135971  96.6475964  87.9573822
   4.1784374  96.7033195  86.4461994   0.7857696  61.1990595  64.2249727
   1.4463321  61.6122150  63.6689138   0.9841625  60.2638245  64.1780615
  76.9908810  67.7019739  76.0141373  76.4799023  67.8055859  75.2113914
  76.6803408  68.4024620  76.5878201 109.0475368 104.5082092  44.5781231
 109.6616554 103.8909626  44.9757290 109.6001434 105.1022530  44.0702105
  99.8233223  73.2488775  37.9066801 100.7036495  72.9922533  38.1812525
  99.4541931  72.4571848  37.5152755  83.6769772  88.0693436  80.4475689
  82.8440475  88.3528805  80.8244991  83.9271736  88.7802315  79.8574352
 100.4570198  80.9486866  69.7692490 101.3828182  80.8547592  69.9935293
 100.3392506  81.8878269  69.6265078  86.1465264  28.2065571   1.4095613
  85.2216722  28.4240139   1.2929555  86.5635587  28.4895599   0.5957815
   7.2444721  42.7084454  64.6323442   7.8647228  42.0193299  64.3943501
   6.9690033  43.0822762  63.7953234   2.8311531 101.0671997  81.5535927
   2.3289482 101.8223286  81.8598652   2.4806110 100.8840084  80.6819248
  82.5089836  56.8087864  58.3072901  82.7160645  57.6564264  58.7007999
  81.7621708  56.4864969  58.8119030  93.2754993  64.3824291  55.9989452
  93.2015705  64.2597723  56.9453716  93.0863762  63.5196209  55.6301165
  30.5581784   1.8217185  17.7288866  29.6462274   1.7072082  17.9962122
  31.0250592   1.1037797  18.1564581  20.1529169  10.9792781  71.3276863
  20.2614284  11.8657100  70.9831619  19.2508042  10.7459438  71.1086464
 105.7900409  69.7390095  38.7096691 106.1429743  69.2688409  39.4650578
 106.4345721  70.4238359  38.5312796  36.3064456   5.7758999  71.6554499
  35.5988407   5.1550752  71.8289518  37.1019340   5.3110087  71.9148874
 110.8805302  79.5062128  59.1820383 110.9829501  80.1113216  58.4474707
 111.4735535  78.7823645  58.9805460  11.9390817  92.5970868  67.4574757
  11.4203210  91.8263486  67.2270870  12.6084132  92.2651676  68.0558538
  37.8137922  12.1338344  13.5396743  37.7021623  13.0844617  13.5484719
  38.7239480  12.0020020  13.2742167   9.9255896  33.7486076  55.8798504
   9.2606568  33.1531572  55.5341101   9.9628890  33.5488629  56.8152332
  19.7436853  98.4460536  27.8645182  18.8435979  98.5137430  28.1831026
  19.7083373  98.7900028  26.9719481  30.7367511  99.1534707  41.6152191
  31.2504001  98.4241048  41.2682009  30.9635730  99.8947138  41.0536671
  60.0384188  20.0286269  33.1763959  60.4721260  19.3300653  33.6664391
  60.7464933  20.4624510  32.7003074   1.3508339  87.9106299   6.6249079
   1.0512562  88.7795511   6.8922299   1.0212703  87.8078226   5.7321310
   6.3215871  80.8300463  53.0057001   6.2307306  81.6330830  52.4927568
   5.7834764  80.1879350  52.5427055 105.3066782  85.2507189  65.8692169
 104.7672561  85.3882781  65.0905418 104.8832849  84.5256654  66.3288546
 106.2290505  81.9464246  60.0977564 105.7152036  81.5660111  60.8101320
 107.0367411  82.2432176  60.5170250  18.7494321  94.6864179  64.0390062
  17.8393073  94.7436968  63.7481022  19.0460010  93.8301471  63.7306547
  97.0628289  94.2485980  61.1578798  97.6712040  94.0220193  61.8612814
  97.3528889  93.7235454  60.4119444   4.3870673   5.8170033  58.5071611
   5.2163523   5.8243513  58.9851379   4.3041843   6.7042589  58.1576729
  25.2528524  29.9622560  43.2644844  24.8621702  29.0952110  43.1556988
  25.5019498  29.9985576  44.1879892  26.6953111  17.6568615  31.6023731
  26.4606309  18.4684730  32.0523095  26.6762066  17.8842139  30.6727600
  27.5911040  98.8306097  76.0076809  28.2161088  98.4573803  75.3861523
  26.7328067  98.6076281  75.6473541  64.4498062  37.3719907  81.2577438
  65.4042435  37.3264885  81.3143921  64.2642546  37.3495531  80.3189659
  21.4341998  36.3844919  23.3254623  21.1397958  35.5058479  23.5653400
  20.9215927  36.9694853  23.8833570  87.0834880  42.6661865   5.4141065
  87.8480534  42.7979175   5.9747526  87.3971038  42.8626225   4.5313379
  67.7272415   0.9328935  58.7339354  66.8485880   0.5540852  58.7073183
  67.8699017   1.2693620  57.8492498  38.8587689  33.8911819  56.3841105
  39.2385054  34.7597504  56.5168428  39.4508982  33.2977486  56.8461180
  17.1294637  79.7053639  57.8637409  17.2604604  80.3227106  58.5834312
  18.0072446  79.5585624  57.5113440  14.3074930   2.3142485  54.0052414
  14.6894753   2.8559601  54.6957970  13.4684086   2.0253608  54.3640041
   9.3982358 101.0842997  69.8940611   9.7888942 101.6496543  69.2277384
   8.5129590 101.4288757  70.0114584  47.9578590   8.2710588  41.8533039
  47.7892017   8.6252272  40.9801769  47.5508261   7.4047738  41.8431091
  38.3891845  21.9873905  57.0204592  38.7923026  21.1387205  56.8374586
  38.9381576  22.6186085  56.5552425  80.6299786  29.1744021   1.7403718
  79.7137265  29.0757159   1.4815732  81.0714202  29.4785623   0.9473726
 104.4047121  95.9350345  48.5381794 104.3525127  95.5059180  47.6841497
 104.1287688  96.8361673  48.3707047  13.9023252  69.9342075  20.6260276
  13.1838603  69.4002787  20.2869701  13.4716840  70.6927887  21.0201526
 106.0821465  93.8925770  90.0221443 105.5500582  94.4653276  89.4698048
 105.9910969  94.2568163  90.9026337 101.4512285  12.1479642  52.5435638
 101.4491399  12.1307933  51.5865231 102.3226448  12.4690437  52.7754545
   1.1377856  20.3178811  80.0492668   1.5580237  20.4494548  80.8991623
   0.2004093  20.3175282  80.2430630  20.6642051  77.0787397  40.5824184
  21.2450357  76.3303128  40.7192516  21.2550969  77.8134075  40.4170609
  26.5025878  14.7363698  41.4410925  25.8870959  15.3063571  41.9020891
  27.3367572  14.8712242  41.8907642   7.1426196  94.7439877  56.0417414
   6.9841571  95.6626317  56.2590313   8.0035587  94.7418789  55.6234026
  56.9514084  27.4460864  65.4662085  57.3556995  28.2794452  65.7076502
  57.6677752  26.9309545  65.0951433  49.1384697  12.5801790  64.5019865
  49.9039221  12.1072078  64.8285055  49.2846680  12.6502478  63.5586166
   3.8754602  73.7426487  67.2982311   3.2752176  73.7038771  66.5536213
   3.3069797  73.6950103  68.0668640  85.6666756   7.0117342  21.5270805
  86.5392590   7.0417386  21.9194388  85.5242062   6.0858518  21.3304210
  53.1172323  21.0258389  78.5114813  52.5828981  20.7888055  77.7535057
  54.0194368  20.9018588  78.2167101  37.1865082   7.5015563  74.3057585
  37.7733350   7.4650168  73.5504198  36.4785528   8.0842882  74.0310717
  99.9289707  84.7081748  66.5658569  99.3833069  84.0047256  66.9174910
 100.3479151  84.3241087  65.7956553  19.4791217  92.7601877  24.3162441
  20.0836129  92.6191858  23.5875845  19.9249215  92.3815814  25.0739717
  65.6462812  30.4017115  83.3420181  65.4510307  30.4817605  84.2756653
  65.1378059  29.6431589  83.0551720   1.3634033 105.1943613  73.8733625
   2.3154922 105.1567832  73.9647245   1.0861392 104.2782034  73.8765764
  93.4628896  74.2223421  31.3600206  92.7310494  73.6483446  31.5862226
  93.8432482  74.4690219  32.2030568  30.0452685  20.6059718  56.2738514
  30.9174275  20.3326845  56.5582514  30.0751090  21.5624666  56.2953424
  62.5885391  32.6543450  69.4604254  63.4192944  33.1292105  69.4845152
  62.7699900  31.8812227  68.9260149  20.8769417   3.8421702  58.4178448
  21.4880013   4.5729575  58.5115814  21.2841463   3.1255344  58.9045143
  29.1994143   3.9097854  73.8515329  29.9189878   4.2249143  73.3046007
  28.4177780   4.3147933  73.4757042  42.5190540 100.5155379  46.9627714
  43.4079166 100.2283806  47.1718168  42.0532842  99.7096548  46.7395258
  52.7920198  24.3573713  18.7509811  53.1502724  23.8452339  18.0259967
  51.8460989  24.2217183  18.6956096  55.0273609   2.9007438  48.0254698
  55.0516224   3.6089349  48.6689806  55.1692247   3.3360088  47.1848440
  12.2903152  92.1243445  49.5374441  12.9298825  91.6446582  49.0110540
  12.7870126  92.8503266  49.9149036  41.5624809   7.8202140  63.6697626
  41.0355902   7.1623290  63.2161045  41.5604258   7.5393426  64.5848227
  45.0109382  90.3710917  51.0247993  45.7315822  89.7501734  50.9182072
  44.2212196  89.8327235  50.9725618  34.1191716 101.9715682  26.3283753
  33.4339471 102.5980479  26.5612197  34.8972221 102.2853217  26.7892790
  71.6544437   9.6306199  49.8354864  71.1207819   9.3868482  50.5918026
  71.2363768   9.1903651  49.0954685  53.5141659  25.5919313  32.9250383
  53.0645323  26.2206531  33.4896350  53.4461832  24.7592092  33.3921409
   7.8005500  92.1360997  77.8652668   8.0523057  93.0519227  77.7464342
   7.5582881  92.0722345  78.7890959  45.7245345  69.7844926  58.4025717
  45.9589381  70.6060568  57.9709291  46.0038753  69.9027268  59.3104410
 104.6972350  71.9032589  86.3988400 103.7414745  71.8869773  86.4487267
 104.9511699  72.6666680  86.9174576  42.2503567  12.3162353  89.8255253
  41.4357996  12.1271694  89.3597126  42.5867510  11.4565122  90.0784016
  13.1522556  94.0297345  65.5259180  12.6842590  93.4416965  66.1187267
  13.5782619  94.6629742  66.1036348  65.8929110  18.9057863  66.3344622
  65.7252693  19.7486401  66.7560339  66.1347771  19.1311908  65.4361677
  21.2852521 101.7141057  53.5405350  21.1915870 101.7590744  52.5889921
  20.4453416 101.3731897  53.8480377  70.8627892   7.0556277  61.2365007
  71.3013315   7.8193241  61.6115713  69.9296665   7.2577256  61.3047886
  26.1113782  61.4696160  55.4071188  25.6317706  61.1048642  54.6633673
  25.8522792  62.3907748  55.4306936  56.4327192  27.6483226  36.6003895
  55.5688763  27.6705670  37.0121026  56.4154720  26.8656325  36.0496354
  24.4429345  82.3308555  72.1046925  24.6723743  81.4359990  72.3553371
  24.4641824  82.8224650  72.9257298  13.5214706  92.9434935  33.0954599
  14.0523620  92.7266077  33.8618493  14.0479512  92.6549259  32.3499537
   8.7849803 100.2323533  46.0536098   7.8575797 100.0998915  45.8571196
   8.8571830 100.0639496  46.9931126  99.7539023  81.4347664  80.2628326
  99.9066333  80.5259434  80.5215645 100.5843166  81.8768660  80.4394531
  31.2956619  16.9907355  47.6685190  30.4466152  16.6049898  47.8842831
  31.3971543  17.7102125  48.2916451  12.9394956  98.3104942  42.6207542
  13.5698457  98.2034627  43.3330965  12.1052785  98.4721777  43.0614042
 110.6136902  24.9303293  69.6977186 111.4913349  24.5883584  69.8680925
 110.7490003  25.6291652  69.0577555  91.6385785 100.8692441  57.8614330
  91.7836837 101.7749778  58.1349707  92.1966103 100.3514693  58.4417248
  28.2475924  10.0654280  48.1313658  29.0562820  10.5770326  48.1539965
  27.7462411  10.3764510  48.8851213  80.9538220  39.9364018  89.8594720
  80.2747392  39.8893046  89.1865267  81.6056870  39.2903578  89.5875602
 105.8682517  92.7102617  65.8658791 105.5875138  93.5154131  65.4309654
 105.8103470  92.0383886  65.1865673  61.9269419   0.5599561  63.1362963
  62.3975229  -0.2493006  62.9365826  62.3834372   1.2332220  62.6317644
  63.9762302  89.5157960  10.8727419  63.2004638  89.5312396  11.4332640
  63.8221355  88.7879149  10.2705169  63.2707882  17.1071208  48.3417702
  63.1845760  16.1627436  48.2115746  64.1081285  17.2111285  48.7937450
  80.8612061   2.3620522  84.1682148  80.5448437   1.9013211  83.3911228
  80.7031727   1.7523982  84.8890400  81.5894089  98.8727370  55.1973772
  81.1356846  99.1224710  54.3923950  82.4683819  98.6255679  54.9100733
  13.6417770  40.1696205  50.7456970  13.7283409  40.7380581  49.9804401
  13.0509126  39.4725728  50.4606771  16.4439149  94.8495678  58.7208939
  17.0454593  94.4140521  59.3247986  16.3130613  94.2164413  58.0150175
  11.7763133  86.2500540  43.8926506  12.2784181  86.4813236  44.6740866
  11.4865823  87.0900956  43.5368156  22.8189559 102.3172480  27.1886683
  23.1990762 102.0249448  26.3602352  23.2950492 101.8250907  27.8575110
  37.4799104  87.3078505  68.9059973  36.7420573  87.5884286  69.4473696
  37.5995107  86.3836351  69.1245222 107.5005916  93.1240908  49.7977304
 107.9971031  93.0989245  50.6157017 106.7870907  93.7386302  49.9694538
  17.6587570  48.2549953  23.9799809  18.3860624  48.7733459  23.6356401
  18.0283546  47.3819971  24.1122675  16.7814679 100.5234153  37.2598982
  16.8394180 100.0124699  38.0672455  16.1611648 100.0398052  36.7143941
 107.9834942  55.5837194  48.0081463 107.4898032  56.2088672  48.5388947
 108.7806181  56.0539523  47.7637911  44.2702627   2.0587644  59.4726229
  43.9669275   2.1116862  58.5662985  44.2777967   1.1218193  59.6683502
  50.6448555  19.5322585  72.8887081  50.7670259  20.4272485  72.5720072
  49.9884176  19.6106565  73.5809326  44.6063232   9.0244645  49.4649220
  45.4986572   9.2999637  49.2549849  44.1537762   9.8352534  49.6974134
  14.0543075  95.2823464  11.1814976  14.9924178  95.1029709  11.2448204
  14.0029283  96.2089220  10.9468722 107.5534633  64.2904178  71.5971756
 107.6418475  63.5529128  72.2009182 106.6099027  64.3771449  71.4615154
  78.3675623  18.9846230  51.5375423  77.4711275  18.7619901  51.7886782
  78.4445238  19.9194956  51.7281294  68.1546974  13.7014830  56.1864424
  69.1091585  13.7673223  56.1563540  67.9677343  13.3221650  57.0451593
  52.1077728   7.0965850  85.1064014  51.6718292   7.7879918  85.6045341
  51.6920614   7.1237731  84.2446136   3.8136557   8.1250316  51.7504501
   3.5939130   7.8934163  52.6528358   3.7758806   9.0813202  51.7326450
  99.0956453  92.8649024  63.0854988  99.6241430  92.3754147  63.7158394
  99.7347478  93.3438412  62.5578642  30.6796455   1.7929444  52.4914026
  30.1417279   2.5838518  52.4547720  30.4268789   1.2951493  51.7138815
  70.4620361  26.8464804  43.9710140  69.9930811  27.3423028  43.2998371
  70.7662201  26.0596061  43.5187626   1.1157198  96.2085847  55.3482533
   1.8091245  95.9488115  54.7416735   1.4709754  96.0141948  56.2155676
   5.9986539  88.1630984  65.5211449   5.6001754  87.9166106  66.3558197
   5.9765382  89.1200391  65.5185080  96.8064383  85.6441883  28.5649800
  96.1632136  86.2701408  28.8976622  97.0254282  85.9674469  27.6910353
  35.3227615  32.3723960  77.5462961  34.4683456  31.9431877  77.5017691
  35.7677174  32.1041846  76.7423630  45.4925346   9.5152789  37.2394538
  44.8726463  10.2124965  37.4535990  45.4894924   9.4775158  36.2830043
   3.5913367  99.6710536  50.3036356   3.5914512 100.3810493  50.9456110
   4.3036885  99.0957699  50.5826235  31.0936399  90.8293310  68.2972097
  30.9678168  90.4477290  69.1659927  31.7748161  90.2902452  67.8951883
  43.2424922  96.0634974  40.2423143  43.4622665  95.4877249  39.5099092
  43.8273330  96.8143818  40.1405382  11.6076910  16.5351987  39.2565465
  11.5993547  16.7535746  40.1884651  12.5359368  16.5136433  39.0238929
  10.8996196 103.3593649   2.9034916  10.2980037 103.4937960   3.6357599
  10.6251903 102.5274651   2.5176641   2.5438066  86.9512478  67.7738380
   3.3862014  87.1582166  68.1785202   1.8930383  87.2538940  68.4071922
 109.7539953  82.7533952  45.2795362 108.8822130  82.5143972  44.9647188
 110.1340297  83.2661143  44.5661497   7.7835746  88.5249404  85.3838730
   6.9196840  88.3217183  85.0252247   8.1253715  89.2113057  84.8108864
  36.5341902   0.3140750  41.1295271  36.6311812   0.1833271  42.0727777
  36.4515901   1.2621096  41.0263777   9.0089603  91.2763468  82.4628925
   8.3991380  91.2127772  81.7278385   9.1314025  90.3719202  82.7514267
   5.9797998 105.0711984  50.9527922   5.0314565 105.1752357  50.8750153
   6.1940761 104.3650280  50.3431654 107.3976830  81.7682997  44.2079258
 106.5204338  82.0849887  44.4232750 107.4103884  80.8647982  44.5237684
  55.9217405  20.0067139  72.6540565  56.5997028  19.6594107  73.2336903
  56.1437035  20.9323835  72.5535536  42.3671638  77.4562339  13.7314817
  43.1684344  77.0765475  14.0920850  42.6433598  77.8628592  12.9101392
  47.6253462  15.7736301  46.1522388  47.5047827  16.7227292  46.1221075
  48.4444904  15.6211734  45.6810808  63.0531231  69.0151778  49.2046309
  63.5837439  68.4863893  48.6087656  62.1493248  68.8257948  48.9526081
  37.3800464 100.5681116  49.8221350  36.7510314 100.1733837  49.2181826
  37.7543159  99.8260150  50.2969503  98.1092695 102.9709875  47.5421953
  98.1120137 102.0598379  47.2488832  98.8245252 103.3812501  47.0560598
  58.6499786  18.2115829  37.5771546  59.2744064  18.2910335  38.2982731
  58.7474823  17.3088193  37.2742629  23.8760705  96.6837654  75.1556396
  24.3214746  97.5291530  75.2119160  23.3586784  96.7386523  74.3521929
   2.7338166  81.6929093  53.5345888   2.6485439  82.6462284  53.5226059
   2.1647973  81.3926164  52.8258753  67.4435425  26.3981962  10.8647251
  67.1552134  26.4813805   9.9557817  68.3683491  26.1594629  10.8017421
  32.4188781  56.2109423  66.6505527  31.7231584  56.8683624  66.6515923
  32.5272250  55.9783268  65.7283878  60.4623461  11.3643479  34.5922494
  61.2957621  11.4870977  34.1377425  60.4015112  10.4190409  34.7298145
  35.5145497  89.0786532  58.3638430  35.4102273  89.2358819  59.3022585
  34.9695964  88.3117488  58.1874466  89.5464245  87.5003687  42.6370382
  89.6178023  86.7328123  43.2044840  90.3493539  87.4885884  42.1160841
 103.2037023  96.2607423  62.4999857 102.6759485  95.4623381  62.5160503
 103.7358073  96.1802373  61.7083931  41.8242116  90.8442048  53.9351988
  41.8826099  90.4629222  54.8112392  42.6865049  90.6905070  53.5491180
  38.7133069 104.1181317  43.8432932  37.8354211 104.1105587  44.2247295
  38.9093490 103.1964350  43.6751461  46.5523434  18.5645700  58.8399935
  45.7816744  17.9972005  58.8202000  46.9248819  18.4932804  57.9611492
  69.0145111  31.3363886  45.8021498  69.1763353  30.8371186  46.6026354
  68.5396910  30.7301378  45.2336121  42.9119968  45.5906343  65.4659843
  43.0674219  45.1766539  64.6170473  43.7428236  45.4996014  65.9325409
  27.7428246  32.3444486  69.8555756  28.3843493  33.0064392  70.1133490
  26.8950081  32.7701449  69.9829340  70.7551479  44.4671631  19.9335444
  69.9189043  44.0159559  19.8180521  71.1780787  44.4107437  19.0767038
  51.1870813  32.8395796  59.1787291  51.0761499  33.7349343  58.8589382
  52.0560026  32.5813627  58.8712692  72.4517059  21.3337135  29.3581414
  72.0949507  20.6947231  28.7411761  72.2334766  22.1836162  28.9756823
  60.5409718  26.5632820  49.9226952  61.4929295  26.5865612  49.8253965
  60.2974510  27.4691916  50.1131058  14.3881030  94.6576587  43.8714123
  13.6583419  94.5950965  43.2551575  14.0355964  95.1532850  44.6105528
  64.8194361  11.0773492  57.0879126  65.1054955  10.2409959  56.7206097
  65.5559540  11.3669074  57.6263666  17.9400671  20.2482867  39.1572142
  18.5398698  19.9593043  38.4694934  18.0376565  19.5951653  39.8501348
  45.8315277  33.7091255  58.2920694  45.2927971  34.2660975  57.7301264
  46.7233753  33.8320994  57.9669237  44.8629184 104.3645515  19.7830391
  45.7317348 104.3084587  20.1808524  44.7449012 103.5213714  19.3456042
 101.9239668  84.0374962  28.1084585 101.6619662  83.6749092  28.9546967
 102.3998860  84.8384372  28.3280659  36.0750246  26.2714219  76.5033817
  36.2316942  25.5425596  75.9030104  36.1885953  25.8924317  77.3749876
  11.6247888  95.7125369  71.0732555  12.4854274  96.1069289  70.9318829
  11.8148942  94.8204223  71.3634682  51.5584135   3.0861828  38.4613848
  51.5402842   3.1442723  37.5061226  51.6851234   2.1548228  38.6423421
  68.3599615  27.0776963  59.0393448  67.6765776  27.3039317  59.6702433
  68.5827255  27.9084802  58.6193419  84.5415688  12.7247596  14.6189570
  83.8996410  12.2417140  15.1393747  84.6949482  12.1708751  13.8535047
  75.7115078  31.6675997   8.2670522  76.4176226  31.1446834   8.6467773
  74.9384117  31.1065197   8.3282411  63.9516497  18.4159982  58.1436634
  64.5389271  18.4545064  57.3887777  64.5334053  18.4628332  58.9023447
  30.6624026  74.1720859  73.6672258  30.0317903  73.4699861  73.5071802
  31.3923545  73.7415496  74.1122532  36.3524723  44.6946812  63.2275915
  37.1289778  44.1972733  63.4842205  35.6546736  44.3554735  63.7881660
   1.4532514  98.9625988  48.6662245   1.9452138  99.4802013  49.3036318
   2.1165652  98.4307340  48.2264900  32.6368332  32.0020890  48.9982510
  33.4704781  32.4724770  49.0003395  32.6603818  31.4765167  48.1985950
   2.7877609   4.5799217  29.7212005   3.5770122   4.0894443  29.9508429
   2.2504131   4.5533386  30.5128980  71.9633484  19.5515203  50.0786591
  72.2755527  19.4396067  49.1807508  72.6064396  19.0882301  50.6153393
  29.0876813  86.6168324  25.8672309  29.1265626  87.1083990  25.0468135
  28.3633943  87.0143834  26.3505483  28.8185477  23.6886811  31.6858435
  29.0029311  23.4009933  32.5799751  28.0502558  24.2534351  31.7695785
  64.6467543  24.2647243  42.3167849  64.8808098  23.4487963  41.8743944
  63.7654352  24.1088533  42.6562166  33.9922261  16.2242520  63.3029652
  34.2243600  16.9263518  63.9107466  33.2141376  15.8213782  63.6883307
  64.6378708  26.9006848  53.6371183  64.9583769  26.2060380  54.2124224
  65.3679276  27.5166988  53.5756922  29.1933913  98.9339522  47.6719141
  29.8330970  98.6709950  47.0102072  29.5607133  98.6200753  48.4982252
  80.7749367  12.5406337  52.8434896  80.5992317  13.4787488  52.9162884
  81.7248917  12.4820817  52.7415562  22.6204868  93.6377576  62.6595259
  22.6002546  94.5190755  63.0324888  23.2687612  93.1697861  63.1858110
  60.4756069  19.7720408  42.9870558  60.4567575  20.1743031  43.8554239
  60.4183483  20.5098963  42.3799944  41.8035269  10.9305024  78.6677504
  42.0906544  11.6061246  78.0534840  41.4253092  11.4175320  79.3998623
  78.7658882   1.4356117  58.6170483  79.1141272   1.3843332  57.7269173
  79.5410490   1.4246081  59.1785049  29.0893502  92.9241351  64.5436096
  29.8679300  92.9798487  65.0976324  28.4088702  93.3784202  65.0404024
  57.3721743  12.0394456  35.6231475  57.5403404  12.7331150  34.9853587
  58.1885004  11.5406442  35.6553483  16.3034959  93.1958786  56.7311239
  16.5429397  93.8561991  56.0808325  16.2374301  92.3815242  56.2324333
   0.9188548   5.1433975  39.2057824   1.3815586   5.9346521  39.4815588
   1.1091129   5.0683057  38.2706904  60.7823181  23.1995559  75.2540255
  61.7147255  23.3864403  75.3632212  60.3593063  24.0570354  75.2990055
  33.3788915  90.3007380  28.8348722  33.1477399  89.8950699  27.9992676
  32.5718637  90.2676872  29.3485308  58.9107704   5.2514601  87.8929901
  58.2377052   4.6562502  88.2230568  59.1319036   5.8027959  88.6435604
  69.0125751  19.4608998  27.1802449  69.1449642  19.9438441  26.3644814
  69.8814869  19.4232512  27.5800085  61.5043783  36.4874411  78.1757402
  61.1966038  36.5151119  77.2697926  61.8300915  35.5947566  78.2908821
  97.5578456  85.5162314  23.3115407  96.8160920  85.1458982  22.8331205
  98.1933169  85.7406239  22.6317903   8.3662124 101.2944562  59.1966724
   8.2848497 101.8194145  58.4004116   9.1254373 100.7337231  59.0373373
 104.8586615   1.7820853  73.0174255 105.0253161   2.5489521  73.5654879
 104.0034058   1.9513682  72.6223135  75.3703022  21.4392519  37.8581333
  75.8249092  21.6244435  37.0363855  75.3804398  22.2717977  38.3303571
  16.0021730  90.7449785  34.3672514  16.3012786  90.6490770  35.2714467
  16.6905494  91.2547532  33.9400506  62.3041630   4.7233370  56.3003445
  61.9721079   3.9756119  56.7972136  61.6063309   4.9257743  55.6772184
  41.8896575 100.8782104  23.1634641  41.2452932 100.2925605  22.7659154
  42.1943517 101.4256642  22.4398017  82.4936295  22.8004289  43.1697941
  83.4346104  22.7703404  42.9969072  82.1987629  23.6087203  42.7503300
  71.5713310   9.7658020  35.5890965  72.3650360   9.7099996  36.1212111
  70.8659267   9.5106202  36.1836743  79.4364457  48.2745541  11.6169378
  79.1235881  47.3793540  11.4866754  78.8250546  48.8168416  11.1185762
  80.0453377  12.7637553  77.8646278  80.0372219  13.6743128  78.1596756
  79.4370604  12.3160172  78.4526491 104.5173863  85.5879620  34.4637394
 103.7713960  85.1293341  34.0772295 104.9053482  84.9510792  35.0638199
  40.6392236  98.3506135  43.2021475  39.7188754  98.1014005  43.2862949
  40.9738345  98.3375964  44.0988636  32.3853922   9.4678676  51.4213896
  32.5977802   9.4053686  52.3526335  31.8587446  10.2638555  51.3487339
  36.1067748  20.1504970  59.8773098  35.8997250  19.9860394  60.7972670
  36.9743013  20.5545950  59.8955917  12.6798339  79.0703336  49.4133997
  13.1435819  79.8485652  49.1043234  12.4915166  79.2535153  50.3338385
  65.0145340   6.6351581  36.0494900  64.2269135   6.6106099  36.5928936
  65.1769972   5.7197577  35.8217216  77.3855352  12.8106785  40.3215599
  78.1682205  13.3098376  40.5549669  76.7385292  13.4757936  40.0865364
  42.3899455  94.1802052  83.2088089  41.5864225  93.6935404  83.3924961
  42.7057071  93.8175467  82.3811626  95.1150799   6.2577522  47.8311539
  94.1772270   6.1738133  48.0032301  95.5224133   5.6048411  48.4003830
 104.2138290  18.0650008  28.1479979 103.4723759  17.7684259  27.6202464
 103.8409138  18.7196171  28.7384605  31.8130445  17.1567976  67.5491714
  32.0241475  17.9709780  68.0060959  31.1084461  16.7673278  68.0669403
  95.9845257  18.3340359  56.4024448  95.2448273  18.7113202  56.8786240
  96.6515636  19.0204525  56.4133024  66.2027884  33.0303669  57.0760822
  65.9032297  32.9548335  56.1701107  65.6765079  33.7402368  57.4439716
  74.8412657   5.4838109  43.5363626  75.6165838   6.0218668  43.3763218
  75.0901127   4.6097496  43.2358217  57.4389315  37.9561138  52.0284462
  58.1430674  38.3069634  51.4831686  57.8557539  37.7756071  52.8710079
  65.7812738  17.9912519  55.9588146  65.2735662  18.2176375  55.1795769
  66.6677856  17.8393841  55.6313038  56.6895723   7.6813531  51.4869308
  57.1413326   8.5178834  51.5981293  55.7768774   7.9214394  51.3270044
  40.0070477  10.2839303  47.5466442  40.3665638   9.7523522  46.8364286
  39.1728163  10.6065059  47.2057152  52.1602631  21.5103364  58.4853649
  51.9683838  21.8793321  57.6232433  51.3994455  21.7399549  59.0189075
  47.8779411   4.0711570  79.5407867  47.9172373   3.4173241  80.2387810
  47.1941614   4.6796462  79.8208237  33.0171342 102.4050217  66.4770412
  32.7212663 101.5284616  66.2314034  32.2839637 102.9773820  66.2509823
  70.4654884  12.1282649  45.3007603  70.9319639  12.4626946  44.5347404
  69.6512270  12.6309407  45.3236532  37.8033352  16.9058299  82.3041439
  37.2420478  16.9987833  81.5343761  37.5405073  17.6236069  82.8802967
  93.8889122  31.8763924  48.0302048  92.9444313  31.8302369  48.1787109
  94.2473125  32.1860051  48.8620234  36.7041392  85.6082455  56.4963770
  36.9999118  85.4785708  55.5953026  36.4130635  86.5196935  56.5240955
  31.5848632 101.2950400  45.9187651  31.4136071 101.3975519  46.8549252
  31.7164226 102.1880183  45.6001568  76.9925880   0.3806216  82.0186138
  76.7118979   0.5950786  81.1289787  76.9303608  -0.5733787  82.0659828
  86.1554813   9.1091031  47.7276373  86.3770580   9.9918109  47.4310541
  85.3905487   8.8661385  47.2060251  38.5596466  39.4819117  72.5372696
  37.6832318  39.1757202  72.3040724  39.0960670  38.6891818  72.5452423
 108.9616875  82.6683454  16.4781495 108.9203076  81.7407850  16.7108556
 109.0701442  83.1205682  17.3147889  32.2509666 102.8032089  52.2727823
  31.7402120 103.4371245  52.7762842  31.5990348 102.3179046  51.7671251
   8.8459439 101.8999517  56.5391588   8.1901498 102.4560285  56.1185122
   9.6731754 102.3629144  56.4065361  53.3134460  15.3278327   8.8832217
  53.2420683  15.0491321   9.7961640  53.6070776  16.2375343   8.9327669
  28.8825746 101.9414628  68.8921404  28.8982721 100.9851701  68.8535452
  28.9879985 102.1454299  69.8213959  93.2817750  69.9237470  13.7245199
  93.0393796  70.1805095  14.6142122  92.8098016  69.1045932  13.5746499
  32.6958108  29.4405103  30.7817769  33.3760190  28.8135052  30.5359864
  32.6409602  29.3729734  31.7350149 108.6422539   5.6459457  40.8962917
 108.9124584   5.1968563  40.0953293 109.0181828   6.5227240  40.8177471
  83.6740748  90.1443664  55.4569769  83.1002328  89.5873324  54.9310017
  84.5503858  89.7857634  55.3165722 100.8547453  70.4012171  89.0350056
 101.7354921  70.3362647  89.4041920 100.4263500  69.5848433  89.2923832
  45.1404095  13.9145803  56.0917807  45.4971170  14.4541705  56.7973566
  45.9109640  13.5850620  55.6292963  63.9417648  17.3235321  62.7113056
  64.6678162  17.4178433  63.3279037  63.3347702  18.0251563  62.9469156
  15.1613343  14.5483768  47.4512291  15.6624448  15.3625023  47.4993944
  15.1380932  14.2277372  48.3528280  66.3954687  26.7335749  67.9073048
  65.8397818  26.8292856  68.6807919  66.8557692  25.9055328  68.0440521
  90.2403641  15.0246406  68.9228773  89.6551037  15.7138646  68.6087561
  89.6536827  14.3275952  69.2164087  60.2199984  36.3624477  54.2465973
  60.5867434  36.6746044  55.0738144  60.3271103  37.0985579  53.6441851
  65.5159140  21.2619877  67.4255085  65.5784464  21.9033742  66.7177296
  64.6123743  21.3325238  67.7335167  23.3365130   4.0171283  68.6805677
  23.4838986   3.6790147  67.7972841  22.8261352   4.8161662  68.5490942
  58.7137032   3.3590880  62.7318335  58.1809568   3.2255223  63.5157776
  59.0777397   2.4949488  62.5395489  39.9274230  11.6849041  40.6609154
  40.7668734  11.2373257  40.7668924  39.5926476  11.7803681  41.5525675
  39.4487405  30.8448315  64.5218658  39.7699690  31.4262271  65.2110863
  39.6217513  31.3190269  63.7085819  75.0751448  15.1402080  76.4263153
  74.1947842  15.2630651  76.0712099  75.5871201  14.8094893  75.6882524
   0.6885095  71.6860763  34.9077654  -0.1451235  72.1252934  34.7393155
   0.5354662  71.1795369  35.7054043  53.3630085  10.6917822  32.6642966
  52.5149441  10.2591980  32.7637362  53.5965061  10.5530131  31.7464447
  56.6808410  99.1458539  52.0528889  57.0487685  98.4149358  52.5494957
  57.4059673  99.7643909  51.9643831   1.6213746 102.0174900  43.7093353
   2.0275517 102.3566488  44.5069695   0.7130547 101.8455413  43.9575624
  98.3052877  91.6109994  66.0576916  99.0322427  91.8127791  66.6468048
  98.6998967  91.0858646  65.3614521  44.9888515  44.8847580  67.5412798
  45.4915047  44.1166878  67.2699022  45.6396818  45.4749298  67.9212189
  92.8884029  20.3125668  36.4276028  92.9461288  19.3663096  36.5598750
  93.7324238  20.5529070  36.0453701  20.6373639  84.5755545  76.4259958
  20.5198569  83.6867133  76.0907555  19.7579713  84.8528472  76.6829109
  17.4498840 100.8650163  48.5527802  16.6376538 101.0818622  49.0104818
  18.1265350 100.9175200  49.2277765  46.7549896  42.7971983  72.9969549
  46.1269283  42.3650360  73.5757542  46.4203882  42.6331329  72.1152782
  99.7565063   5.6769091  63.4080744  99.4558498   4.9712035  62.8355217
 100.6217738   5.9075129  63.0698919  33.6318159  13.3246696  47.1728420
  33.2479239  12.7843451  47.8634262  32.9059744  13.8643897  46.8596554
   0.3221126  92.0532015  59.8976040   0.7564445  92.9059974  59.8795843
   0.5154200  91.6678575  59.0429831  69.2937326  26.6021395  78.7717247
  69.0321779  26.4851546  77.8584146  68.7227869  26.0106444  79.2620182
  62.8246832  30.6936264  74.8214817  63.4310961  31.3768816  75.1072359
  62.0002222  31.1546087  74.6665716  36.1786361  99.9946282  70.9808826
  36.4899821 100.8997062  70.9694624  36.3242765  99.7025791  71.8807316
  54.4962931  20.2702737  66.8848848  53.5597754  20.2435541  66.6887808
  54.8513985  20.9127450  66.2705851  11.6722102  93.2122317  54.8494911
  12.5229449  93.6445669  54.7748613  11.8378587  92.4522964  55.4074240
  60.1001549  38.2550573  52.1360493  60.2880096  37.9339385  51.2541056
  60.9613991  38.4257770  52.5172853  66.5574007  49.8378984   2.2110864
  67.1156339  49.8446158   1.4335557  66.8449454  50.5966038   2.7189466
   4.2822023  89.3011776  46.8230152   4.1542096  89.7620193  47.6521540
   3.8172479  88.4720901  46.9355488  50.2742815  18.9771342  67.9962206
  50.9120512  18.7501240  68.6729383  50.1546955  18.1681442  67.4987602
   9.4026846  14.3681288  70.7814884   9.0396911  14.3053293  69.8980141
   8.9003074  15.0686252  71.1976051  70.5210257  35.4259944  46.8447638
  71.0968256  35.8913159  46.2379980  70.4073954  34.5608354  46.4512873
  36.0996289  88.1304875  63.7572050  35.8642764  87.5143484  64.4509029
  36.9112868  87.7797500  63.3905649  51.7568970  23.1656146  89.5067406
  52.5227690  23.7393904  89.5280552  51.2423420  23.4244680  90.2712345
  28.9180470   0.1859338  69.7281122  29.5240211  -0.5541141  69.7649240
  29.0620947   0.6545739  70.5502176  53.3585787  26.9858503  56.7628527
  53.0486345  27.2805238  55.9065056  53.9164162  27.6987648  57.0739841
  55.8963776   4.9092329  70.2908325  55.6678629   4.5929882  69.4167614
  55.0777149   4.8612487  70.7845163  26.8210626   9.0840340  29.7581267
  26.7329264   9.7364241  30.4530001  26.7539859   8.2426691  30.2096105
  73.7272596  18.0542111  51.7575026  73.1472445  17.9533732  52.5122499
  74.0796661  17.1769989  51.6073656  58.6562157   5.5357325  70.5874634
  57.7329016   5.2876097  70.6338978  58.9902115   5.3822410  71.4712763
  41.1848350  96.4681086  62.2333574  40.6777997  96.5249876  63.0432415
  41.9086213  97.0814959  62.3603296  40.1652002   8.7138277  49.9130678
  40.9833002   8.2421547  49.7566462  39.9574709   9.1188341  49.0710115
 110.9887890 103.9499385  69.0072203 110.7378200 103.0265882  69.0331030
 110.2513102 104.4099203  69.4081831  65.9774351   8.7721074  80.2767849
  65.0725222   8.7078160  79.9714375  66.5020180   8.4637183  79.5379066
  55.1922560  18.5218954  26.5365267  54.9902248  19.4121933  26.8242502
  56.0730076  18.5837293  26.1668158 105.7775811  69.3433157  86.9912815
 106.4478353  69.4589368  87.6647949 105.3721455  70.2062288  86.9062233
  60.8658691 102.7418517  43.9092779  60.5429645 103.1840808  43.1241655
  61.2518783 103.4413144  44.4365168  33.8565965  98.6631719  61.5251303
  33.6955400  99.4227842  60.9654140  34.8090692  98.6285016  61.6136026
  48.9955235  57.0657206  19.5198786  48.6010933  57.8954744  19.7885215
  49.9338436  57.2497082  19.4758642  93.2788277   3.9547020  21.0578299
  92.6172543   4.4429761  20.5677962  93.8158226   3.5369825  20.3844905
  48.1834793  35.6867886  76.7780590  48.3263636  36.4687920  76.2448740
  47.4951315  35.9390211  77.3935175  85.9307054  88.8620905  82.1660423
  85.9051350  88.5850028  83.0819035  85.5179516  88.1436089  81.6868210
  51.4563370  30.0549936  45.4727364  51.5558386  29.1046906  45.4157019
  52.3078251  30.3670096  45.7790899  46.0279846  41.8354750  78.7728596
  46.1420965  41.2449837  79.5175266  45.3349829  41.4313221  78.2507133
  93.4342384   0.0121328  88.8341045  92.8857422   0.7695324  88.6298370
  94.1485596   0.3690830  89.3618965  49.2811775  22.8908849  56.1249399
  49.2346621  22.0754576  56.6240883  50.2070761  22.9813075  55.8996344
  76.1290836   0.6792668  79.3973780  75.6015062   1.0166837  78.6734676
  77.0343113   0.8002678  79.1107559  98.8022403  73.5961500  67.7500772
  98.9283208  72.6560274  67.8785515  99.6136049  73.9922587  68.0679083
  26.0800409   3.5926679  39.7298336  26.1775064   2.6740319  39.9805140
  26.8213224   4.0340328  40.1444769  73.1457615  21.0841537  72.9079485
  73.7318516  21.1534715  73.6615562  72.7143431  20.2367020  73.0172014
  59.9778509  20.0504351  27.4616957  60.3545141  20.1139903  26.5840173
  60.3635550  20.7834053  27.9415107  62.6086235  12.0519078  16.2942982
  62.7279902  11.3647306  15.6387281  62.3942041  11.5803778  17.0992315
  51.1026525   4.1208488  69.6731138  50.9033489   3.2446012  70.0028086
  50.8692122   4.7065631  70.3933048  44.6013260  28.7643552  50.6977940
  44.8086262  29.2901707  49.9252796  43.6451483  28.7215114  50.7088184
  38.9102502 100.0987369  60.9876633  39.5967002 100.1424468  61.6533279
  39.0207191  99.2369757  60.5859232  74.6564960   2.5312924  39.3681836
  75.4779053   2.9210734  39.0688753  74.6029854   1.6973829  38.9013171
  15.6222816  82.4344913  70.3690624  15.8332200  82.3940698  69.4362688
  15.6949182  83.3627573  70.5910397  76.6480207  11.5133345  89.9225140
  75.6956577  11.4361954  89.8651695  76.9328547  11.6413629  89.0176868
  52.3419619  37.4835420  63.9158010  52.2095060  36.7578983  63.3057785
  51.7094755  38.1469059  63.6398649  53.9755440  36.2337160  15.3269374
  54.1379642  37.0692849  14.8891330  54.7107792  36.1332202  15.9315586
  36.5062804  98.8431129  62.0982981  36.9957395  99.2271355  61.3708448
  36.9576593  98.0193142  62.2822714  56.4994144  10.5221200  29.2971349
  55.7918549  11.0967422  29.0048909  56.1888075   9.6390462  29.0972900
  46.4268494  17.5958490  40.3209972  46.2632370  17.1747887  39.4770956
  47.3139906  17.9472589  40.2453327  23.7219472  94.4093410  14.5846474
  23.5471721  94.5485440  15.5154037  24.6436258  94.1533640  14.5496857
  40.1750226  97.0625470  46.6369152  40.0959296  97.8071085  47.2332430
  41.0103126  97.2009644  46.1904192  46.1648130  37.1940064  70.2430964
  45.6529474  36.5038705  70.6649208  46.5474653  37.6863027  70.9693575
  42.7372169  26.5016294  71.2318850  43.1782341  27.0082951  71.9138145
  42.1895170  27.1402788  70.7753897  47.3965597  24.4524026  52.3919630
  47.4394703  24.9637961  53.1999636  46.6118574  24.7727466  51.9471502
   4.7455031  24.7031093  62.2354698   5.2930301  24.2215419  61.6153574
   4.1937792  24.0327907  62.6385927  59.9405718  30.4182911  53.0897951
  60.4654837  29.6253800  53.1993103  60.5493259  31.1350822  53.2682991
  19.1829009  92.9152135  31.1968923  19.7860904  93.6576882  31.2304640
  18.6135526  93.1027154  30.4506230  51.1741829  16.4506865  44.9431801
  50.6158638  17.2022891  45.1421833  50.5807352  15.8074880  44.5554304
  36.5812850  16.7637467  56.1926174  36.3482332  17.2927213  56.9555759
  37.1171188  17.3449278  55.6528616  45.3099728   7.6310176  56.4156866
  45.7684517   7.6712209  57.2549772  45.3268051   6.7040181  56.1777353
  59.0584469  26.2899017  60.7123995  59.4478655  25.4268336  60.8527565
  59.0627193  26.4028883  59.7619009  48.9463520  28.1842399  68.1701946
  48.1712484  27.6401186  68.3094025  48.7380934  29.0127206  68.6020279
  80.4752827  29.9208236  31.3169384  80.1412392  29.1865730  31.8322301
  79.6909666  30.3886151  31.0301518  51.2141414  96.9801549  70.2185011
  51.1513610  97.2087995  69.2911339  51.8601508  97.5912753  70.5726576
  50.8465672  35.1173854  50.1931810  50.4864836  34.4834375  49.5729542
  51.7237616  35.3066492  49.8600960  17.5264211  90.7910517  41.5926075
  17.1417375  90.9165875  40.7251453  16.9729896  91.3088647  42.1772575
  28.1824250  91.4816800  74.3165493  28.7013860  92.1993831  73.9534855
  27.8115316  91.0430852  73.5508442  32.5254321  38.9410138  72.3861408
  32.6505756  38.7974930  71.4480686  33.2242990  38.4354377  72.8011227
  50.0306416  44.5239258  59.5506239  50.3138733  44.0870714  58.7474012
  49.3583393  45.1416111  59.2630339  63.7810898  27.3503685  81.5364170
  64.7047138  27.4751091  81.7545700  63.7111425  27.6278615  80.6229973
  73.1903887  14.1294718  36.5086579  72.5511599  13.4288394  36.6380072
  73.4531975  14.0476644  35.5918837  71.5495348  29.3849301  28.0830050
  72.1244335  30.1210690  28.2923412  71.0461283  29.6821690  27.3250747
  46.7028666  24.4749618  42.2340631  46.5346718  24.9704027  43.0356121
  45.8941984  23.9864421  42.0803070  44.5036979  94.8052624  27.0767975
  44.0711303  94.1088620  27.5709057  43.8100715  95.1803080  26.5341663
  97.4714756  20.3633404  68.4533978  96.8669319  20.6790113  67.7817488
  96.9124317  20.1646686  69.2045498  31.3083029  12.4072373  65.1607704
  31.3597059  11.8118882  64.4130039  30.5191278  12.1355629  65.6294155
  37.4651694   1.6373707  52.2031403  36.8030643   0.9962697  51.9446039
  37.4523354   2.2904044  51.5034151 104.5696691  99.6845189  51.4997053
 103.9715031  99.3880859  50.8137369 104.5805029 100.6376836  51.4125776
  27.3642230  16.1883938  75.1290894  28.1062126  16.0202217  74.5482254
  27.7581215  16.5545273  75.9209347  83.5160785  47.1103243   6.4829847
  83.4829287  46.2498001   6.0650941  84.3442778  47.1117852   6.9629022
  49.7229195  19.5776379  54.4486332  48.9276409  19.7074854  53.9320087
  49.9889755  18.6783838  54.2568254  57.3792262 102.6860619  24.0788651
  56.4505572 102.8259506  24.2638731  57.4467273 102.7547597  23.1265235
  18.0933566  97.3202005  42.9275274  18.1391998  97.3379145  43.8834667
  18.1456752  96.3913230  42.7024031  62.6664877  24.2086434  31.1980319
  63.2447720  24.3472362  30.4479599  63.2487059  23.9130378  31.8979406
  51.3444185   3.5547546  76.0751295  52.0314741   4.0167499  76.5554905
  51.3707399   3.9331427  75.1962900  71.9054461  37.0487499  49.8091602
  71.3263702  37.6525497  50.2742720  72.7650023  37.1869397  50.2070189
  68.4532309  38.1986237  53.3018303  68.6052322  38.6546516  54.1295767
  68.2127619  37.3086262  53.5593462  77.9085259  67.3147038   5.5076906
  77.0210867  67.3238734   5.1490804  78.4591107  67.6337377   4.7926351
  65.0066423  34.1285300  30.4667330  65.3153181  34.5535874  29.6665621
  65.3693295  34.6599507  31.1754537  34.8698282  44.9585295  73.6901712
  35.3155255  44.4368696  73.0227423  34.1166067  45.3358746  73.2357502
  68.2409477  31.4575005  50.2053118  68.3543777  30.6362343  49.7268867
  67.4996376  31.8844366  49.7758722  64.5587015  22.9074502  20.2834702
  64.2360687  22.5429988  21.1076760  64.7916365  23.8111949  20.4961157
  58.7523270  29.4942832  63.5118961  57.9174232  29.7489810  63.1190872
  58.6998796  28.5416627  63.5893297  68.6553621  21.0590243  38.9542842
  69.6041632  20.9354877  38.9269948  68.5108519  21.6399765  39.7011709
  65.5589199  21.9191051  70.3044653  65.1330280  21.1022568  70.5644798
  65.9007835  21.7425370  69.4280005  50.0011344  98.3302418  55.1096678
  49.4156928  98.0040727  55.7931089  49.4148536  98.6276535  54.4139338
  36.4182830  18.7839961  43.7784147  37.1933937  19.2499566  43.4648657
  35.8259010  19.4757044  44.0731239  58.3063316  32.6244092  67.7642584
  57.5716114  32.0801997  67.4809694  57.9527235  33.5137177  67.7822304
  75.2210379  27.0002723  31.3035893  75.3528070  27.5661969  30.5429316
  75.3025675  26.1114359  30.9578204  77.3644066  28.1601882  49.2614222
  78.0969810  28.3524156  49.8467493  77.7305746  28.2508302  48.3816862
  76.0086823  30.1298213  51.0014677  76.3070583  29.3204880  50.5865192
  76.8085623  30.6370425  51.1398411  86.9252491  28.2651448  52.4472427
  87.8291225  28.5689187  52.5306368  86.9570732  27.3444104  52.7069855
 110.2503777  12.2504485  89.2102146 110.8104515  12.6266766  89.8891830
 109.9111080  11.4442956  89.5991135  33.7314939  16.5137601  55.0075197
  33.8833523  16.5785885  55.9503698  33.4149528  17.3812950  54.7556925
  73.2702446  23.0951476  57.1848869  72.9184103  22.3517823  57.6746368
  74.0895510  23.3096528  57.6309395  51.3353968  23.9420247  54.3796206
  50.9570837  24.7905326  54.6101570  51.8582296  24.1175032  53.5972595
  73.9118195  10.5350494  68.9970589  74.8004341  10.8569145  69.1487074
  74.0289307   9.7547740  68.4551287  95.0705528   1.2264475  37.3128080
  95.6762218   1.6160129  36.6822243  94.3258572   1.8275073  37.3324275
 103.0196285   3.3182824  57.2587967 102.3805046   3.9807168  56.9962502
 103.1444263   2.7822143  56.4756680  14.3071218 104.0198043  47.4346542
  14.7273965 104.6512653  46.8508244  14.6307893 104.2472146  48.3062935
  68.9591980  16.4183486  77.7057362  69.6031857  16.0127318  78.2862425
  68.1149387  16.2292337  78.1152391  39.9502464 102.6553019  57.4744844
  39.6576543 103.4664226  57.0589113  39.1963668 102.0687774  57.4121618
  61.4421129  43.1909895  63.0892944  60.7717371  42.5730705  63.3808517
  61.4576530  43.8655138  63.7682676  66.6287899  34.4368815  49.4317675
  66.4787340  35.3821158  49.4476032  67.0669699  34.2779088  48.5957289
  71.9430399  30.7992148  65.6690264  72.6167345  30.2943778  65.2134991
  72.0704412  30.5886769  66.5940523  54.5967960  19.0420413  41.1420679
  54.1950893  18.4557426  41.7832518  53.8941813  19.2359281  40.5216074
  66.8501759  33.6668706  46.8573856  67.0080853  32.7287030  46.7518473
  66.0735703  33.8403726  46.3254023  47.2001314  14.0174830  67.8384161
  47.2942257  14.6736848  67.1479273  47.1065617  13.1882131  67.3695993
  58.7854719  47.1648359  55.7692146  58.5422611  47.2541380  54.8477459
  58.2264900  46.4604616  56.0972881  39.2744346  99.0257380  66.8093681
  38.3383269  99.0905908  66.6203499  39.3152328  98.6974028  67.7075672
  25.0847001  88.5129241  61.6141462  24.5220704  88.7604431  62.3479128
  24.9041410  89.1697601  60.9416866  69.2376900  15.2367473  60.4725981
  68.6132479  15.6230998  59.8585701  68.7688160  15.2111661  61.3067055
  49.9679613  33.1487894  55.6776476  50.0609350  32.2174430  55.8781052
  49.2575312  33.1861925  55.0372410  33.2128406   1.9633090  53.8578415
  32.5267100   2.1425684  53.2149410  33.1411266   2.6782000  54.4903135
 110.3866386  29.8458123  37.1367979 111.1765575  30.2176380  36.7443562
 109.6698856  30.1882100  36.6026998  62.0245934  39.9241304  56.4231348
  62.1577072  40.3326321  57.2784948  62.2781849  40.5989170  55.7933807
  66.7028713  25.1015568  75.6809950  66.9782400  24.3677855  75.1314640
  67.3255682  25.7996345  75.4781008  77.7315760  24.8182106  37.4226522
  78.0578804  23.9183497  37.4194956  78.1450033  25.2202177  38.1866550
  71.4309931  29.3018317  56.3754511  71.8977690  30.0880909  56.6585636
  71.8273258  29.0781784  55.5333519 102.3386288  32.0126462  31.8136358
 101.7403126  32.3200035  32.4946570 103.1939411  32.3543739  32.0741987
  49.1257429  23.5191536  41.5999699  49.1788912  22.6488566  41.9949293
  48.2908535  23.8715053  41.9082689  44.4070721  45.9701777  58.0582285
  43.7651873  46.5165567  57.6047039  44.7646093  46.5375423  58.7412357
  63.9961910  30.4564905  53.4342957  63.5921288  30.4045510  52.5681210
  64.5536184  29.6800351  53.4855032  64.2645264   0.9964247  27.4377966
  64.7729397   1.5895903  26.8847108  63.3793449   1.3605836  27.4291754
  80.7413197  13.1127715  69.1924095  80.4033756  12.3132133  69.5958042
  81.1902428  12.8112817  68.4025955  73.1881094  25.3819227  46.4688396
  73.7551308  25.0639486  47.1714115  73.7902641  25.7575750  45.8265591
  23.3673568  92.7549032  58.3148336  22.8460212  93.5127882  58.5795116
  23.1507011  92.6258496  57.3914480  35.8217807  99.4117490  81.5129471
  35.7364984  99.9347321  80.7157898  36.5321536  98.7990764  81.3225937
  61.5103149  24.2433000  84.0327168  62.0586205  24.2516160  83.2481575
  61.9612455  24.8233843  84.6462250  25.7649994  41.7755032  68.7638855
  26.6497421  41.9040632  68.4219217  25.5200744  40.8978510  68.4706879
  50.9587002  27.3207784  44.9494600  50.9473324  27.3263097  45.9065771
  50.7769728  26.4112139  44.7130251  86.1356735  35.8616066  49.7160816
  85.4459190  36.3923240  49.3175745  85.6796551  35.3217483  50.3617096
  74.8518181  22.9114175  71.0753012  74.2557478  22.6266718  71.7680168
  75.6519270  22.4080491  71.2259054  28.4584804  97.2496501  74.0499926
  29.1704602  96.6237978  74.1827536  28.1978650  97.1258912  73.1373072
  90.7760525  40.4108143  35.7808709  89.9160099  40.8181858  35.6779027
  91.2731934  40.7046556  35.0174999  55.9604931  17.1466374  82.5771427
  55.5387878  17.5196362  83.3512688  56.8609953  17.4688113  82.6163101
  48.7786913  34.7364306  48.1891108  49.3634987  35.3429008  47.7347660
  47.9031229  35.0961232  48.0468559  65.5017948  24.4107914  50.1370096
  65.1457977  25.2518678  49.8504925  66.0035181  24.0946198  49.3856478
 109.2890433  79.1626993  73.4559441 108.5272197  79.7314826  73.5670376
 109.7420481  79.2018596  74.2982531 105.6381512   9.6976638  50.5831289
 106.1292648   8.9128977  50.3398657 106.2994385  10.2956784  50.9314299
  60.6655884   0.3630108  66.3282347  61.2918663   0.2981600  67.0492077
  61.1213350   0.8754557  65.6604576  44.6616125   0.8933397  27.1448588
  43.8821173   0.5842140  26.6832781  44.3464994   1.6129343  27.6917768
  93.7849808   9.6672547  67.8972626  93.2112694   9.4231653  68.6235619
  94.2590332   8.8630271  67.6857805  70.8587503   5.3145254  44.8217726
  70.0704908   5.5095184  44.3149662  70.5544424   4.7448954  45.5282784
  73.1966734  26.8634677  59.5268393  73.0252218  26.4187789  58.6967230
  73.0076122  26.2046432  60.1949978  34.7006841 103.9964353  78.3892107
  35.2408691 103.4506636  77.8177547  34.0806766 104.4225284  77.7973747
  65.2722263  23.8914061  77.4952459  65.8980942  23.6943913  78.1921721
  65.7839680  24.3675709  76.8413210  97.8887463  38.5615349  50.8615923
  97.7703094  37.8058267  51.4370108  98.6096859  39.0523028  51.2560940
  77.9613018  16.9401944  61.0517311  78.2604599  17.7243614  60.5914927
  77.8082132  17.2334170  61.9499588 102.2945976  18.2984483  51.4444733
 101.8170071  17.6025939  50.9928942 102.3970795  18.9851689  50.7855749
  56.9596386  23.0027533  13.4651875  57.2325230  22.2429180  13.9794016
  56.9036865  23.7152791  14.1019046   2.3064752  96.9270394  63.9183664
   3.1882901  97.1985338  63.6635637   1.7643709  97.1271804  63.1552839
  73.6865330  26.3360977  42.6830149  73.0167055  25.6903291  42.9078436
  73.9746571  26.0865664  41.8049765  29.3289638  26.6621947  89.9431705
  30.0748992  26.0629773  89.9705887  29.6526933  27.4259329  89.4655323
  59.6858263  30.7411599  33.7107372  58.8442469  30.7046866  34.1653228
  60.3154373  30.9796286  34.3911457  58.6929703  26.2868738  63.8616705
  58.5411119  25.9386373  62.9830885  59.6458197  26.3036728  63.9512587
  61.7369843   7.3591119  82.7045536  62.2411585   7.3253542  81.8915939
  60.8291864   7.4627769  82.4192619  78.0167155  46.2976340  27.5178262
  77.2153859  46.6946051  27.8591749  78.6226277  47.0314995  27.4151441
  37.0993018  37.3481679  47.2127485  36.4939332  36.9246554  46.6041422
  37.1579385  38.2517409  46.9023466  74.5993328  20.0934649  83.2592010
  74.3431950  20.7241035  83.9321995  73.7811947  19.8726368  82.8141022
  31.8785238  20.2648926  81.8682575  32.7894115  20.2001190  82.1551800
  31.6598225  19.3838608  81.5646362  48.6907959  23.0502605  63.7581682
  47.9776049  22.4136448  63.8062334  49.1631746  22.9435205  64.5838213
  79.0781212  24.8207355  29.5966530  79.9033165  24.9921870  30.0504017
  79.3134689  24.2183137  28.8910103  61.7774439   5.6246388  20.7896233
  61.3115835   5.4868042  21.6143703  62.6892328   5.7575279  21.0488820
  21.3815637  98.7287251  35.0573039  22.1622033  98.6419723  35.6043935
  21.1102052  99.6397230  35.1699042  81.3351727   8.0939221  27.5136185
  80.6918144   7.4769276  27.8623891  82.1510220   7.5945824  27.4778748
  31.8561459  18.3840704  74.4813681  31.3232422  18.9343178  73.9073706
  31.2285686  17.9950428  75.0904942  79.4783401  23.0671334  47.8848553
  79.5933342  23.4297419  48.7632179  80.3611183  23.0504274  47.5151730
 102.0114613  17.1613765  57.4627876 101.6181660  16.9323397  58.3048630
 101.2677097  17.2462773  56.8662500  25.9835811  91.6291085  76.1397266
  26.0945554  92.5451771  76.3941526  26.4173885  91.5625468  75.2890730
  63.4627771  22.1389532  56.2975788  62.8427553  21.5085673  55.9309483
  63.4134722  22.8929114  55.7099152  72.1398211  11.5465105  33.5712242
  71.9391966  10.7225549  34.0151572  72.1697283  12.1959770  34.2737412
  31.7549253  34.9231696  41.3439178  31.8461585  35.4828620  40.5727816
  32.6347780  34.8871088  41.7191410  94.6975231  47.2434139  31.5102100
  94.9517536  46.3271761  31.4001656  95.1073933  47.5084639  32.3336101
 101.9887832  80.7079950  88.3402634 102.8612283  80.5446473  88.6985779
 101.3904504  80.3317824  88.9857769  80.9761906  17.6691079  52.0740175
  80.5780315  17.4188137  52.9077148  80.3269482  18.2373965  51.6595697
  48.3382654  21.8587828  49.7797966  48.7675238  22.0380545  50.6163549
  47.4391508  21.6306615  50.0159883  95.1076508  33.5112166  39.6337175
  94.9770546  33.0827236  38.7878060  94.2284107  33.5795522  40.0058699
  63.3946323  31.1795163  50.4271173  62.5513744  31.6043568  50.2700901
  64.0198088  31.9020605  50.4847050  28.6600351  47.2087002  54.0096331
  28.4658766  48.1094456  53.7504196  28.6479449  46.7155123  53.1893539
  66.1780119  29.4946170  78.1514740  65.4579353  28.8657570  78.1989908
  65.7611942  30.3463340  78.2821369  57.6401758  16.9250822  69.8368359
  56.7826605  16.5783572  70.0831747  57.7777910  16.6110158  68.9431572
  58.4362078  33.2403970  77.8745699  58.3454800  33.5644460  76.9784689
  58.8931561  32.4044323  77.7818441  49.0675259  37.6771903  51.4065409
  48.9629078  38.6286211  51.3984108  49.7465611  37.5053167  50.7541609
  50.7775402  12.0618069  38.9484286  50.9170961  12.3646891  38.0511999
  50.2457905  11.2714672  38.8544440  99.5092010   7.4115556  16.8450856
  99.3264771   7.5356114  17.7764583  99.1532326   6.5459704  16.6443884
  84.7472763   5.9832466  43.8483381  84.8536110   6.8693131  44.1944742
  85.1287556   5.4167402  44.5189905  42.0836496  30.8437419  51.1987782
  41.8336582  29.9739695  50.8869600  42.5957251  31.2172890  50.4815102
  47.6064968  24.7807837  61.3693047  48.4219885  24.3455219  61.1208010
  47.6795578  24.9040675  62.3157167  67.8232479  28.6579132  39.4220948
  67.9602861  29.4041514  38.8385010  68.2243443  27.9190898  38.9643884
  93.0371861  75.3086022  12.4753400  93.3831458  75.5397848  11.6133043
  93.7349324  74.7963242  12.8839322  19.4422097  95.0541744  17.6070881
  18.7963863  94.3581370  17.4859405  19.1990228  95.4647735  18.4368479
  69.9355221  30.0831294  63.9166498  70.5794859  30.4767871  64.5053625
  69.2995167  30.7803702  63.7566900  48.0817270  42.7956438  66.5579271
  47.2037792  42.4227619  66.4779520  48.5449696  42.4867725  65.7793188
  70.8436012  23.8922167  55.2832937  71.3341331  24.0026093  56.0977983
  70.8595181  22.9491735  55.1200485  33.2864042  94.0742878  44.3387890
  32.3492141  94.2159692  44.2052507  33.3682246  93.1312231  44.4807959
  67.8377628  16.3385344  62.5566101  67.6664591  17.1826601  62.1390724
  67.6368809  16.4835095  63.4811974  80.6230354  18.7965548  69.2439079
  80.9985733  17.9441309  69.0235043  80.9999943  19.0109313  70.0972414
 107.1511987  96.1296347  47.3703098 108.0059603  95.8135543  47.6630688
 106.5872387  96.0415617  48.1386995  86.0216999  22.8436661  58.8379192
  86.1916924  23.4336805  59.5722342  86.5625668  23.1853867  58.1259346
 104.3294811  27.1534014  72.0798826 104.5016003  26.4146805  71.4960146
 103.5114670  26.9244504  72.5210762  89.8667240  16.3160241  51.5922689
  90.4215622  17.0568633  51.3482523  89.8303032  15.7742071  50.8040142
  76.2297583  20.3308654  62.9338455  76.5186214  21.2389898  63.0238485
  75.3201723  20.3381991  63.2318926  45.2588272  30.3850436  42.9163694
  45.4784393  31.0817456  42.2978163  44.7037077  29.7868443  42.4161434
  40.1824331  12.3848391  65.5844355  40.0617361  11.6775107  64.9509096
  40.9004402  12.9069722  65.2265644  51.3253117  24.4451213  40.1978779
  51.2594223  23.9815545  39.3630147  50.5185175  24.2199898  40.6611633
  67.7657652  35.4336619  54.0920019  68.2396412  34.6046925  54.0250301
  66.8773937  35.1820040  54.3443871  50.0567198  36.0617876  53.2996321
  50.0796127  35.2092934  52.8649330  49.6476841  36.6455126  52.6607370
  62.8123236  28.3156562  42.6396894  61.9514799  28.5167551  43.0067682
  63.4328794  28.6497164  43.2874107  59.6932030  17.3514795  40.0095701
  59.9187469  17.2123337  40.9293556  58.7617064  17.1376598  39.9563837
  42.8387022   0.4488312  62.4227142  43.0112553  -0.0288944  63.2340336
  42.9018593   1.3713959  62.6699352  86.1784172  16.6982591  46.9407845
  86.1622620  17.4962687  46.4124346  85.8393764  16.0184979  46.3583708
  31.6526981 104.7693567  47.1947479  31.8170972 105.3597511  46.4594650
  32.5086971 104.3896693  47.3930740  59.1368341  10.3371835  77.7996731
  58.7454271  10.3790903  76.9271612  58.8992405  11.1691999  78.2089806
  53.0318785  37.0409870  67.8498745  53.8488531  37.4563766  68.1259918
  52.5797272  37.7153492  67.3428965  82.9316902  27.8219318  48.4659910
  82.1911526  27.8073573  49.0723038  83.6079407  27.3029113  48.9013529
  56.8212843  20.5411983  48.0450058  57.6268101  21.0016561  47.8097630
  56.8127012  20.5473089  49.0021467  77.3956203  40.7580900  55.3753042
  76.5282106  40.6204271  54.9946642  77.5836372  39.9445772  55.8433628
  81.6369915  33.4666443  33.7577653  82.0018291  32.7361774  33.2582211
  81.5414047  34.1710973  33.1167960  73.8794994  29.2284822  46.5988636
  74.6487665  28.8089180  46.2136078  73.8527632  28.9005232  47.4977303
  99.6627235  89.2425346  37.6767802 100.5420303  88.9821720  37.4024463
  99.2472935  88.4264565  37.9554534 105.0786495  64.2052460  62.3853111
 104.6161652  64.6670914  63.0846167 105.6494999  64.8683071  61.9970894
  82.1028042  55.8823013  36.1457109  81.3431644  55.3008413  36.1786962
  82.6298046  55.5469561  35.4204154  92.2287178  88.2350349  63.3405256
  93.1732464  88.3443928  63.4506702  91.9182301  89.0976143  63.0652237
 109.4434834  60.7985020  47.1199989 110.2350616  60.5082178  47.5731802
 109.6973515  61.6180944  46.6956758  97.8006649  62.6159430  41.4142942
  97.4601650  62.4026203  40.5455112  98.6614990  62.9994678  41.2466288
  78.2066870  56.3983583  28.1692600  78.9368773  56.8506241  28.5917616
  78.2971287  55.4866028  28.4463072 101.7492104  33.6459136  69.0808153
 102.5703526  33.3105230  69.4406366 101.2432575  33.9137506  69.8479557
  88.8042641  55.7855034  52.9405642  88.1775856  56.5008307  52.8318596
  89.5277882  56.0099459  52.3554420  87.3623562  49.6734047  37.1325183
  87.9972553  50.3712463  37.2942233  86.9877911  49.4862080  37.9932666
  89.4665146  54.8493290  20.0197744  88.9673996  55.4514170  19.4678581
  89.9350071  54.2894268  19.4007003 106.3719463  87.5746250  34.2616868
 105.7464218  86.8703651  34.4318938 106.6383934  87.4435711  33.3517075
 103.9636040  68.8365698  55.9695292 104.6795750  68.4206963  56.4498091
 103.1693554  68.4884596  56.3747644  78.1843281  72.3452759  50.3230333
  77.7985620  72.3015118  49.4481039  79.0673971  72.6852560  50.1787090
  63.3463526  81.4133835  54.9962473  62.5878668  80.9715176  55.3779459
  63.0344772  82.2963905  54.7980690  76.3460207  13.0135977  62.1032715
  76.7778254  13.0788541  62.9550457  76.9082451  12.4300027  61.5938044
  85.1899433  76.6353989  61.0735178  84.3976879  76.8434238  60.5782509
  85.6074524  77.4833679  61.2247229  72.6992273  65.0915384  39.7279978
  73.3397245  65.1352787  39.0180111  72.1720743  64.3180847  39.5277023
 102.4247456  63.7348557  72.6585674 102.4189758  62.8545332  72.2827625
 102.7403831  63.6110878  73.5537148 104.2240334  45.4287243  58.1317425
 104.1517258  44.9253130  58.9426565 103.5509300  45.0597048  57.5599194
  61.8025781  14.6314180   8.0305787  61.3819886  13.8901890   8.4663698
  61.1842061  14.8897636   7.3471185  98.1398010  63.3360672  36.9675803
  97.5455570  63.0172586  37.6468921  98.3886814  62.5511980  36.4794540
  88.9015293  74.8018503  39.5196247  89.4875813  75.4230022  39.0872526
  89.4853878  74.1407490  39.8914957  95.5210209  74.5673800  73.2799530
  95.8161640  74.5569897  72.3694515  94.8275280  75.2268696  73.2994223
  82.5631142  63.1483889  37.9081988  81.7261028  63.4828472  37.5860572
  82.3583412  62.2769642  38.2471871  12.5637618  12.0379651  52.5181293
  12.9757205  12.8983879  52.5968552  13.1611530  11.4439201  52.9725170
 109.5190239  50.7126331  30.8039069 109.1841602  50.3043604  31.6022897
 108.9550495  50.3755331  30.1078248  77.9104424  63.8998508  29.6342564
  77.8727341  64.4437599  30.4210067  77.1653557  63.3048820  29.7184682
   5.8291618  38.5875058  82.9151821   5.1553623  37.9119325  82.8388691
   6.2042037  38.6520219  82.0368862 105.8540535  60.4124832  51.4531898
 105.7155991  60.8629894  52.2863197 106.8029308  60.4266930  51.3280153
  77.9278708  51.4363718  48.8357258  78.7761116  51.5423775  49.2664003
  77.3558807  51.0828733  49.5169735  92.3834705  54.9809361  70.7041359
  91.8450260  54.5911264  71.3928652  92.7872753  55.7434654  71.1185265
 111.3294983  76.0998631  55.5769730 111.1424446  75.4059553  56.2092209
 110.4791164  76.3058138  55.1888084 107.4867153  53.0172110  87.0630455
 107.5403404  53.6245871  87.8009129 106.8483829  53.4151936  86.4711285
 101.5744781  58.5880518  74.9220896 100.9503651  58.4495783  74.2096758
 101.7847347  59.5208502  74.8783922  19.0538684  32.8866482  47.8225565
  18.2181827  32.6975155  47.3958397  18.8583747  32.8501081  48.7588692
  28.4948818  50.8100224  88.3780289  27.9542724  51.3832617  88.9214993
  29.0055076  51.4085484  87.8328037  19.3644806  93.8694552   8.1071779
  18.4485909  93.9362029   7.8371259  19.3245503  93.6028651   9.0256425
  84.0594578  32.6441789  76.1026573  83.3965111  33.0459976  76.6641569
  84.3774986  33.3625245  75.5557919  68.1189299  36.0348225  27.0689559
  68.9964008  36.2419748  27.3904514  67.5523806  36.6861796  27.4824595
  52.9068947  84.5570946  39.5569324  52.4787760  84.0885162  40.2734375
  53.7372971  84.0975189  39.4325900  72.2579336  62.3128605  72.8235722
  72.5124741  63.1189966  72.3745918  73.0867290  61.9162846  73.0920124
 100.2676678  55.9424543  53.8288260 100.1272392  56.8739986  53.6593103
 100.4226971  55.8913469  54.7720051 102.3797798  35.9806705  82.0963287
 101.8550587  35.9396362  82.8958416 103.1820488  36.4317393  82.3592567
  74.3768215  82.1403027  68.8979864  73.7528419  81.6563225  68.3570147
  73.8362122  82.5704002  69.5605516  95.9822559  45.7860374  58.1801224
  96.7390442  45.9668922  58.7376118  95.2611542  45.6448793  58.7935734
  80.7040977  54.5008945  46.0842752  79.9774599  55.1239634  46.0893202
  80.2878857  53.6485910  45.9555006 103.8502407  63.5363102  55.8947515
 103.8270187  62.6286983  55.5915546 104.7718620  63.7867737  55.8305407
  96.9515419  47.4767828  56.1593199  96.3122177  47.1146488  56.7727995
  96.7801952  48.4185171  56.1629486  81.6215992  50.3174210  18.5623896
  81.5311241  51.1124134  19.0877795  82.5614643  50.2462292  18.3955956
  43.5751911   5.0915059  58.1042194  43.7327286   5.7845696  58.7453747
  44.4496533   4.7920045  57.8555298  84.0658665  68.4201384  69.7834206
  84.1087532  67.9573250  68.9466429  83.3258438  69.0196896  69.6878672
  94.6317768  53.5041380  34.8843074  94.6079254  52.7377510  35.4572964
  93.7673283  53.5231781  34.4736934 101.3939762  69.4034910  69.3887043
 101.4194012  69.5188856  70.3385830 102.2637558  69.6707678  69.0915966
  91.5699482  61.2214136  79.7152042  90.7370949  61.6658735  79.5569324
  91.4909077  60.3905773  79.2464924  82.0909405  60.7171440  35.2345085
  81.9896698  60.5748653  36.1756420  82.9736423  61.0751104  35.1400089
 103.7465572  33.0850315  71.0621786 103.9333725  33.8370109  71.6241884
 104.5707226  32.5992846  71.0302162 101.9855499  75.4494858  59.0146875
 101.0482025  75.3319883  58.8603926 102.1833801  76.3094473  58.6438084
  97.3855400  57.3083878  37.3317599  96.7172813  56.6381407  37.1888614
  97.5555611  57.6666641  36.4605737  69.8130465  69.8314619  57.5714445
  70.7568169  69.6728945  57.5517178  69.4598818  69.2601395  56.8894625
  98.4367752  28.8269186  44.4000626  97.7801323  28.5628462  43.7556124
  97.9882050  28.7544775  45.2425432  88.7922096  71.2803650  19.7656298
  88.7038040  71.1172438  18.8265836  88.5059357  72.1866512  19.8792946
  96.0857201  40.2698803  55.9482288  95.4831696  40.7282352  56.5339565
  96.2901878  40.9098053  55.2663803  14.7021190  64.0722942  17.5156033
  15.1159755  64.0862608  18.3785951  15.3514282  64.4650602  16.9322002
  56.7815161  61.5928793  34.2625880  57.0024967  62.4549723  33.9101720
  55.9219551  61.3952398  33.8906717  74.0979338  74.0310764  53.0109072
  74.4653177  73.8700724  52.1418047  74.4316483  73.3130503  53.5487795
  98.9930916 104.4685841  77.6998758  98.8524818 105.2615833  78.2171965
  98.1174183 104.0997791  77.5840569  88.3127975  59.9608135  36.4001012
  88.9397717  59.6375179  37.0471072  88.2486439  60.8993530  36.5768933
  99.6339417  45.0118208  46.8630171  99.1979218  45.5210304  47.5462627
  98.9241505  44.5435953  46.4234734  96.5376091  52.9059696  77.7333593
  97.3286247  52.7460814  77.2186232  96.2970829  53.8095188  77.5284624
  77.5231171  88.5851002  65.5679464  77.2560930  88.2306290  66.4160490
  76.7002821  88.7507153  65.1077843  94.9751472  71.8145657  54.0469694
  94.1979885  72.2698069  54.3710184  95.6686592  72.4736500  54.0767813
  86.1473560  73.4348536  67.4998283  86.1487103  72.5139046  67.7607536
  86.3572502  73.9116240  68.3028650  87.8088951  31.4475846  62.5706816
  87.6747990  31.1318851  63.4643173  88.1422997  30.6865931  62.0953274
   1.3844100  39.9855828  60.1883841   1.2130443  40.8243608  60.6165361
   2.2250358  39.7009683  60.5469608 103.2491684  70.8480644  48.0905199
 104.1479969  71.1059666  47.8860044 103.3427906  70.1202345  48.7051153
  43.8507986  68.7533951  56.9758844  43.2343197  69.4014454  57.3167944
  44.6536732  68.9003468  57.4759150  78.9906693  65.6481075  24.9555278
  79.0897226  66.5302992  25.3135204  78.7567949  65.1081276  25.7104850
  78.5459089  48.9261007  70.4462862  77.5993633  48.7945271  70.5008316
  78.8780546  48.6304760  71.2939405  88.1504536  40.8789539  36.2187958
  88.1382942  41.4622211  36.9776654  87.7096748  40.0845385  36.5202117
  87.6916218  61.0204840  59.1838932  87.7659130  60.1868486  59.6483994
  87.1838474  60.8131361  58.3994198  13.8589565  68.5093832  82.5723457
  14.4888297  69.0152216  82.0589161  13.0626670  69.0405226  82.5652695
  82.2049618  73.0187559  65.1270056  82.9524517  73.2053709  64.5589733
  81.4392948  73.1714869  64.5732307  69.8956060  57.5803137  57.5521135
  69.5567846  57.1403170  56.7724800  69.5393562  58.4672451  57.5004435
  91.8557549  58.4890795  59.6531439  91.9784355  59.3505764  59.2543936
  91.0241699  58.1764555  59.2968225  91.9823742  41.6659975  61.1778450
  91.7008495  41.5608454  62.0866489  92.7211475  41.0645056  61.0848379
  84.3449783  79.2072105  62.3688364  83.5527802  79.7439337  62.3445845
  84.3366814  78.8071060  63.2383633  27.8141014  46.6792536  72.4283457
  28.7447349  46.4611769  72.3774576  27.7945796  47.6347637  72.4817562
  42.4480058  23.3460081   0.1529809  41.5310479  23.4253920   0.4158899
  42.7411319  24.2489756   0.0306627  14.0166942  49.7963762  80.3422642
  14.5906917  50.4564762  79.9536467  13.4594528  49.5080423  79.6193695
  91.8368530  60.6689787  57.9505873  92.7387810  60.9365892  57.7740908
  91.3380051  61.0013819  57.2043371  80.5272007  83.6139774  54.3024015
  79.6283722  83.8466072  54.0695524  80.5913353  83.8115406  55.2367926
  62.6538515  88.2852459  45.4657841  62.4265242  89.1403198  45.1005363
  61.8111324  87.8553391  45.6115294  83.0449200  34.3068433  23.9836907
  83.4255695  33.4370685  24.1054869  83.6903667  34.9055219  24.3594885
 108.0359077  56.7343807  21.5020847 107.1949577  56.4778423  21.1236405
 108.3292580  57.4665213  20.9597254  95.4356194  50.4114914   8.9980334
  95.1079845  51.2465620   8.6640656  94.9855328  49.7501469   8.4724134
  96.1079597  74.9229145  43.6746836  96.3020134  75.4879808  42.9268360
  96.9206429  74.9071169  44.1801834   7.8096572  84.5708561  51.6574240
   8.4015838  84.9793625  52.2890759   8.2344905  84.7042274  50.8100986
 102.7095318  67.9400778  62.5801992 103.1436634  68.2976198  63.3547449
 103.4212780  67.7732038  61.9622993 110.6438446  52.9203415  58.6613226
 109.9265385  52.9870415  58.0310440 110.2104092  52.7860355  59.5041323
  71.7933750  59.6778440  57.4479198  71.9718218  58.7374830  57.4374056
  70.8387852  59.7401237  57.4812317  90.2821064  71.7316532  58.5705709
  89.5400238  71.1651182  58.3594179  91.0359001  71.1420107  58.5892344
 109.1975784  66.1554241  55.6904507 109.0085888  66.1598825  56.6287994
 109.4227505  67.0632792  55.4871607 104.5500946  60.7321119  49.1936493
 104.6819687  61.4917803  48.6264229 105.1960373  60.8395004  49.8918295
  98.6249161  74.2822504  42.2083044  98.2353115  73.4144545  42.3149061
  99.4806767  74.2142487  42.6317215  86.6269779  56.9360828  37.5281453
  87.5234509  56.8430710  37.2057819  86.6551304  56.5860558  38.4186053
 104.1671467  52.5225306  39.9560928 104.6405220  53.0744743  40.5785942
 104.0578556  51.6875792  40.4112244  76.4467573  49.5341873  41.2750149
  77.0857763  49.4682789  41.9846201  75.8686018  48.7820816  41.4027166
   6.7148105  48.2779169  54.7656584   7.2996322  48.0097389  54.0569305
   6.2199966  49.0125990  54.4028425  76.7457199  67.8396654  28.6317325
  77.0994091  67.3402929  29.3677759  75.8060455  67.6581097  28.6486173
  81.5255642  53.1205654  74.0245867  80.6246758  53.2667446  73.7360430
  82.0381260  53.7754202  73.5505867  12.3039810  33.1203961  17.7299249
  12.4554435  32.3442483  17.1905887  11.5857212  32.8714156  18.3115995
  96.3570790  71.5484110  11.9470903  97.3032193  71.6309885  12.0663854
  96.2087874  71.7913858  11.0332033 103.7785721  69.7831202  50.6794643
 103.1859398  70.3910017  51.1216211 103.3407784  68.9341545  50.7413435
  91.0225868  68.5035849  52.9455805  91.0514450  68.0531693  52.1014690
  91.0694408  67.8008223  53.5937738  77.1250200  57.8245640  72.0371151
  76.3591099  57.2976875  72.2651958  77.7195168  57.7168751  72.7795506
 110.8581405 102.4923877   8.6047288 110.8759599 101.5358094   8.6341688
 111.7596154 102.7545957   8.7913343  81.8172646  53.9839697  57.6418543
  81.4680672  53.3035135  57.0662832  82.7568913  53.9929247  57.4595261
  78.7627029  53.9247417  60.2149487  79.3600845  54.6225977  59.9459553
  78.5509682  53.4644365  59.4028378   6.3510414   7.7440938  54.6488667
   6.6549393   6.9390973  55.0682163   6.6551872   7.6723870  53.7441063
  79.4456578  24.7262133   4.7330686  79.1989518  24.3338859   3.8955423
  80.3167058  25.0919330   4.5789071  71.9156742  55.4140902  64.5277882
  71.2286425  54.7544527  64.4324255  72.1814013  55.6146288  63.6303425
  10.3234092  68.3324575  67.3010063   9.6800224  67.9559040  66.7005968
   9.8497573  69.0313053  67.7521133  80.2276039  76.7986012  47.9105949
  79.5510483  76.1746120  47.6476622  79.7873735  77.3834515  48.5273409
  83.7804222  61.6871262  20.8063698  84.3857288  61.7714405  21.5430713
  83.7520981  60.7474995  20.6259894  49.9272919  81.8388748  18.2039547
  49.5955133  81.8406773  19.1018140  49.8362398  82.7462769  17.9131508
  94.4576263  99.9309635  68.3426046  95.2038765  99.3341732  68.3991337
  94.0307522  99.7031021  67.5167179  76.4932728  45.9581566  36.0572720
  76.0527182  46.5246010  36.6907430  77.3670244  46.3376617  35.9636664
  97.3860550  16.1018574  51.7520428  98.1941891  15.5969715  51.8428040
  97.3651028  16.6618943  52.5280285  99.1034985  39.5759988  53.6797762
  99.7599316  39.0710974  53.1997681  98.3524513  38.9867568  53.7501001
  96.7650509  60.8857536  60.5602932  97.5385571  61.3204527  60.9193945
  96.0440445  61.4869833  60.7471180  94.4960785  51.1956358  54.3031693
  95.0897026  51.7640066  53.8124514  94.8030853  50.3088284  54.1146040
 106.3420486   5.3783381  57.4460602 105.5981636   5.9327275  57.2104263
 106.5794468   4.9367753  56.6306496  94.9119377  99.0217590  40.1611710
  94.7300625  99.8949528  39.8137879  94.3000126  98.4482193  39.6998334
  70.7174683  39.1235542  87.4524307  70.2049494  39.2149448  88.2556725
  70.3290081  39.7553110  86.8472672 100.2923775  37.6759243  33.8150883
 100.9839821  37.4182129  34.4245958 100.2974224  36.9929481  33.1444550
 102.1009445  15.6443071  47.7369833 102.2716808  14.7025919  47.7529526
 102.4902821  15.9444129  46.9156504  83.3106422  62.3536682  45.2340508
  83.5457611  61.4663601  45.5053997  83.5722542  62.4001598  44.3144703
 111.0101032  32.8801775  55.7165766 111.5421867  32.1742749  55.3493977
 110.2412415  32.9212236  55.1478910  73.9583921  67.5646496  53.6441278
  74.8618889  67.6072168  53.3308983  73.4276342  67.5845861  52.8478050
  74.5538902  78.5215902  48.0680370  73.6555815  78.2831764  48.2970190
  75.0915956  78.1025934  48.7400103  88.8503265  58.9926815  69.2242718
  89.0712357  58.0840158  69.0199327  88.5708237  59.3651009  68.3879662
  79.7945356  55.7160902  48.8435364  80.0811386  56.4631653  48.3182049
  78.9169359  55.5166483  48.5175323  99.7447968  85.2388000  53.9448881
  99.3898964  84.9986458  54.8008156 100.6602573  84.9612808  53.9787579
  95.5168343  37.9625154  49.9701023  96.2539768  38.2455635  50.5111599
  95.8295155  37.1690774  49.5354557  15.6086055  40.6018019   8.8541251
  15.3458778  39.7386384   8.5345060  15.8989326  40.4462385   9.7528720
  71.8494225   9.9242193  46.3802242  70.9683657   9.8725361  46.7507553
  71.7756796  10.5682898  45.6759739  80.9829998  51.3321877  26.5604162
  80.2035236  51.2375879  26.0129738  81.6521454  50.8112526  26.1164546
  99.4022465  75.4274750  57.7839184  98.6506939  74.9551868  57.4256611
  99.7683907  75.8982134  57.0351982 101.7486477  36.8874955  49.4704485
 101.1123180  36.3313031  49.0210485 102.4219990  36.2807226  49.7781324
  68.6618567  66.0904694  26.7902803  67.8928518  65.5661345  27.0137477
  69.0661335  65.6232071  26.0592151  93.9533520  42.6967859  75.2785873
  93.5272884  41.8406200  75.2375412  94.7731304  42.5342321  75.7452393
 102.7508550   3.3251771  81.5421009 102.6016764   3.2374581  82.4835205
 102.3517089   2.5424012  81.1623955 110.4372311  67.6074457  43.0717945
 110.4324532  66.7519188  42.6425123 110.7567787  68.2104349  42.4005842
  84.7157574  55.2577782  58.5124636  85.2578354  55.6894875  57.8521538
  83.8694763  55.7013178  58.4548998 103.8445759  56.9748735  52.8127098
 103.7439156  56.4429665  52.0232964 104.7318554  56.7853022  53.1177235
  75.3733349  73.5513878  36.2263274  74.4314241  73.3826208  36.2499189
  75.7715797  72.6818132  36.1880088  96.4201164  57.0498657  59.7841072
  96.5219116  56.6265249  60.6365490  95.5021954  56.9065809  59.5536184
  19.4055935 100.3781013  21.4182111  19.0299412 100.2355174  20.5494233
  19.7259136  99.5164470  21.6850015  67.7598619  86.2819004  66.9051456
  67.6348305  86.1361694  65.9674025  66.8779612  86.2356853  67.2743940
  88.8513851  62.8815937  53.8480091  87.9289055  62.6738691  53.6993074
  88.8432980  63.7746716  54.1923571  63.4723568  68.2734966  19.9363816
  64.2293024  68.5038853  20.4750705  63.4062958  67.3214769  20.0107741
  78.8590145  78.5590029  79.9818420  79.2702103  78.3119059  79.1535330
  79.3736982  79.3041420  80.2918434  51.1630155  23.6028850   3.2855722
  50.4023267  23.0515087   3.1023332  51.0827638  23.8207806   4.2141839
 100.5264854  78.4723186  43.7610054  99.7854328  78.9097881  43.3418512
 101.2403584  79.1078758  43.7091827  86.4653778  73.0733728  35.5240846
  86.8544388  73.2297230  34.6636081  87.1772957  73.2381630  36.1423492
  31.3846675  91.2977314  58.8596869  31.2710563  90.4887390  58.3608246
  30.8916370  91.1524105  59.6671820  98.8322353  59.0308857  66.5117025
  98.6652851  59.5940542  67.2674799  98.1082439  58.4047508  66.5149927
  77.5622749  73.1587219  28.7441921  77.5525713  72.2056770  28.6556482
  78.2256317  73.4506178  28.1189036  37.8687850  52.5448608  45.4696274
  38.8221733  52.6297045  45.4608345  37.6275340  52.6490784  46.3900471
  72.9722215   5.0506485  13.1721231  72.1461774   4.8780907  12.7203389
  72.8895856   5.9508503  13.4868356  92.2925854  50.3029966  66.9689417
  92.1509266  49.3642092  67.0907593  92.9298306  50.3586531  66.2568712
  15.3857032  77.0651579  63.9522171  16.2705985  77.3650837  63.7443018
  14.8391429  77.4313545  63.2569456  12.3834697  60.7134151  51.9448185
  12.7980701  60.2197790  51.2372398  11.5128509  60.9273577  51.6094494
 103.9564323  83.9909458  38.3178568 103.2882214  83.4069061  38.6765027
 104.5521069  84.1514111  39.0497470  90.0617218  16.3688433  31.3476872
  89.8858738  15.4279864  31.3574505  90.2898598  16.5604341  30.4380274
  77.9570341  83.2481670  89.5467091  77.2422218  83.4086227  90.1627636
  77.8947163  83.9650822  88.9155293  93.1965637  63.3218050  48.2114458
  93.4650803  62.8468370  47.4249744  93.8304996  64.0348053  48.2887936
  11.5724937  81.3191605  55.5038214  11.2364570  82.0137215  54.9373388
  11.7679969  81.7586422  56.3313913  81.2057209  85.6385422  40.5338335
  81.5078640  86.5079689  40.7965755  81.0106850  85.7246304  39.6006775
  80.6059361  78.4172869  29.7648120  79.9776554  79.0550709  30.1035309
  81.2131596  78.2708120  30.4901028  90.6941414  83.0520153  89.7841740
  91.3700485  83.6147308  90.1619720  91.0974884  82.6897430  88.9953136
  77.5577545  71.3971615  81.0444069  77.3933029  72.2631454  81.4175892
  77.3540401  71.4945841  80.1142216 106.8160820  40.5267763  65.1974773
 106.5621281  40.8724165  64.3417454 107.0505810  39.6144795  65.0273085
  88.6293793  42.9398060  69.8051596  88.6948776  43.2859564  70.6951714
  89.1354465  42.1275902  69.8262215 102.0975208  53.0865240  89.9720478
 101.9208241  53.1881237  89.0367985 103.0136108  52.8122616  90.0143147
 109.0397935  99.0408830   1.6149732 109.1068225  98.0959920   1.7525216
 109.6875148  99.4162921   2.2114202  70.4299784  57.3152781  73.7675667
  70.4704762  56.9292736  72.8925848  69.4960928  57.4540997  73.9251184
  11.3192550  75.6493855  69.7756958  11.5092174  74.7244453  69.9326181
  11.8570701  76.1162186  70.4152632  93.4003448  53.0049515  56.1158895
  93.5144138  52.3537922  55.4236412  94.1435719  53.5989237  56.0108232
  90.0183582  74.1427040  60.3296804  89.5736790  74.5658922  59.5952415
  89.8256493  73.2113218  60.2218485  20.5910674  96.0074806  48.3415747
  19.9869338  95.2689934  48.2647800  21.2549488  95.8444977  47.6715565
   1.1122219  81.6160488  51.3683319   0.2365962  81.9541168  51.5559959
   1.5507785  82.3303890  50.9061384   8.4511367  87.4644375  75.9936333
   7.5161735  87.3284721  75.8400106   8.4869853  88.0462456  76.7528725
  64.6326303  84.1197586  50.4931688  65.3160095  83.4505749  50.4554796
  63.8151360  83.6335659  50.3857088   3.2852355  59.6964169  55.2197170
   3.8289825  59.6804619  54.4321203   2.4400417  60.0316000  54.9205017
  16.7670909  81.1484051  72.6257086  17.6335803  81.5545273  72.6039124
  16.3182250  81.5003014  71.8569946  30.1320545  81.4975166  54.8328495
  30.3742496  80.7678413  55.4030657  29.3265811  81.2089825  54.4036818
 107.6685143  79.3311596  45.5210304 108.4542179  78.9251900  45.8872318
 107.0630550  79.3907022  46.2600231  78.3185148  75.0674582   3.1158876
  77.9790735  75.3191423   3.9747635  78.4817648  74.1271210   3.1890318
  95.2086067  93.5598850  57.7375269  96.0663700  93.3370590  58.0992222
  95.1508713  94.5111752  57.8266239  78.3916473  71.5719700  55.0520802
  78.5057926  72.2862434  55.6789970  79.2720270  71.2161207  54.9315262
 103.1083107  74.6250963  52.5667191 102.9955292  74.0211582  51.8327093
 102.3550034  74.4572306  53.1329250  89.4707012  59.6550512  86.1856365
  88.7992859  59.8611927  86.8359756  89.0406609  59.8006964  85.3429699
  81.3151550  81.0879612  17.5144279  80.8571815  80.9700775  18.3466506
  81.3814640  82.0371246  17.4098957  82.5950813  60.2835608  53.2975817
  81.7596149  59.9398088  53.6139154  82.6000786  60.0780344  52.3627186
  92.6733398  56.0604048  63.9008141  92.4436855  56.3052130  63.0043983
  91.8524551  56.1355162  64.3873787  38.6393167  25.6796348   5.1903268
  38.7057496  26.0016334   6.0892888  39.0332986  26.3711346   4.6585008
  82.8587914  68.4927988  78.9660978  82.1593952  68.3487701  79.6035337
  82.6204967  67.9418659  78.2204962  32.4152271  77.6714706  61.7062664
  31.6407577  78.1444359  61.4017677  33.1511203  78.2289028  61.4533424
  55.7450772  33.6464584  23.5127088  55.8170987  32.8431595  22.9971906
  56.6009809  34.0656746  23.4237787  44.9920274   7.9976356   4.0975877
  44.5406915   7.9875362   4.9416372  44.3297769   7.7115953   3.4684297
  74.1009998  73.5620451  61.0403061  73.4796190  73.5167742  60.3136253
  74.9609041  73.5711098  60.6199360  97.6866722  65.7693052  48.7556171
  98.5035992  65.4374313  49.1280890  97.8912067  65.9296465  47.8343725
  99.2373848  90.1426697  69.2154694  99.5379257  89.2464256  69.3659687
  98.4150696  90.0421906  68.7359476  10.6990520  85.4635906  56.2498140
  10.8644000  86.3938904  56.4029074  11.4140121  85.1841736  55.6779861
  19.4664279  65.2313662  78.2788420  20.3333751  65.2013302  77.8742027
  18.8607208  65.3100014  77.5418425  96.9982147  42.4609613  58.1058836
  97.6229668  41.9129038  57.6309586  96.1433697  42.0818663  57.9015493
  57.5127793  28.0712498   0.3595182  56.7479135  27.7706898  -0.1312712
  57.7733995  27.3142088   0.8841058  93.7293720  81.0857868  51.8646002
  94.2455673  80.2883720  51.9824600  93.2704830  81.1992550  52.6969385
   7.1532337  61.4207983  52.8770542   7.1377269  61.0162210  53.7444115
   7.0518485  60.6883144  52.2692537 106.2635231  45.1087046  45.3869534
 106.6698742  45.9612465  45.2311087 106.9983768  44.4965219  45.4251289
  90.9494209  64.9295712  76.2868595  90.6079483  65.1254272  75.4143572
  90.9017372  63.9759350  76.3542175   9.8696796  69.5899010  41.3441086
   9.5960132  70.3949785  40.9045839   9.6530429  69.7343588  42.2652149
   0.5015365  76.0541010  59.9791193  -0.3602322  76.2906456  59.6361399
   1.1094371  76.6334629  59.5197344  80.3867531  58.1403875  42.2599077
  80.0529861  57.7361870  43.0608130  81.1389637  58.6574602  42.5480938
 104.6271038  68.5702419  79.8542547 104.4139004  69.4562721  80.1470375
 104.7566032  68.6547995  78.9096308  90.8753014  75.8707952  46.5655947
  91.6588783  75.4468393  46.2156057  91.1623383  76.2602282  47.3915386
  94.9333000  73.8863182  57.1747112  94.2782974  74.1409206  56.5248060
  94.4234848  73.6596346  57.9524851  97.3938847  74.5206404  56.3368464
  97.3106861  74.9066925  55.4649115  96.4916897  74.4105530  56.6371250
  82.1805477  58.4172344  79.5523548  81.6101360  57.9732561  78.9248657
  83.0537891  58.0706596  79.3691349  66.1785650 101.4206982  69.0502310
  65.7034540 101.1954880  68.2503700  65.6937408 102.1602535  69.4166136
 110.7812881  97.8725243  83.4089279 111.3167763  97.8392220  84.2016315
 111.3291740  97.4738121  82.7328491 104.9910927  72.7077436  62.8121758
 104.2013454  73.0353737  62.3818254 105.2662563  71.9651127  62.2745705
  15.8648006  28.0221200  62.6289654  15.4934398  28.4161091  63.4183311
  16.8008415  27.9491329  62.8153229  24.3049995  54.4066525  36.2845516
  23.7481300  54.9868298  35.7653880  24.1517822  53.5360003  35.9175110
  58.4578415  85.3774098   0.1714155  58.4768006  84.4588951   0.4401323
  57.6577660  85.4586128  -0.3477458  96.3033295  79.9973917  70.5567598
  95.6913948  79.7911310  71.2633228  96.8993473  79.2488813  70.5299664
 102.8087711  68.5501194  44.0157604 103.1742001  67.6654243  44.0175200
 103.3033466  69.0148926  44.6907473  97.8813553  74.5821714  39.4444084
  98.7075329  74.4340849  38.9842725  98.1036758  74.4915295  40.3710079
   5.4907218  82.2326851  56.8410254   5.1338092  81.7113972  56.1219263
   5.5855838  83.1121254  56.4752293  62.3544880   2.5025662   7.0888197
  61.9707772   1.6364011   6.9518661  62.9394146   2.3896703   7.8380436
  85.4280281  65.8282375  55.0249720  85.1900482  65.8260918  54.0978289
  85.4995346  66.7554331  55.2517462  95.7182503  86.8934727  68.6206627
  95.0759125  86.6480255  69.2865372  96.5657902  86.7644978  69.0464115
 102.8337193  86.7842770  59.6404266 102.0021725  86.4903736  60.0124454
 103.0684185  87.5548172  60.1575375  72.7743578 103.1095505  65.8738518
  72.5954437 103.1414413  66.8136406  71.9941998 103.4881115  65.4685402
  95.9948540  80.4626846  41.6107941  95.0498104  80.5115509  41.4667845
  96.2901592  81.3724327  41.5736055 101.6398907  93.4072971  78.7378454
 100.8496571  93.6042213  78.2348728 101.3422585  93.3704567  79.6468496
 100.4293823  45.2668524  36.0731602 100.4880142  45.1704645  37.0236897
 100.8589745  44.4850016  35.7261848   9.8761360  94.0709782  74.5298672
   9.9215690  93.1151390  74.5531464   9.0230171  94.2607784  74.1394901
 103.1213760  57.3016357  67.2586155 102.6807976  57.4650145  68.0925369
 103.5507774  58.1308174  67.0481062  90.6302643  89.5138073  73.6934471
  91.1193085  90.2684212  74.0215158  90.5339336  88.9414978  74.4546366
 110.5032444  62.4288607  50.2206230 110.3913212  63.3526611  49.9963522
 111.0048199  62.4393654  51.0358143  92.8577518  67.9242086  90.0143528
  93.7713146  67.7571917  90.2461624  92.8710461  68.0533504  89.0660000
  72.5634909  98.2934666  56.4589214  73.2228947  97.7781296  56.9235086
  71.7291737  98.0029202  56.8273401  90.7985878  65.6653118  89.8805523
  89.9478245  65.6154585  89.4447231  91.1374760  66.5293026  89.6462250
  72.4947263  66.2540234  20.4715272  72.3747827  65.4785812  19.9233171
  73.4254361  66.4626491  20.3909990   0.4524700  44.2787981  70.0569868
   1.3038913  44.4924784  70.4386187   0.6527797  44.0078878  69.1610432
  42.6960231  38.8524998   5.8507844  42.8305055  38.0339039   6.3283273
  42.3814536  38.5783375   4.9893209 105.1185513  43.0537796  56.1007643
 104.8994827  42.2987461  55.5547190 105.4354668  42.6731110  56.9198418
  46.1581327  38.5941971  22.5848409  46.3920404  39.3801392  23.0786249
  45.6655980  38.9218605  21.8323251  73.7877226  68.3452797  39.4010592
  72.9977798  68.6926270  39.8152781  74.5083380  68.7207937  39.9069524
 101.9085503  50.9154987  78.1994009 101.0345173  50.5680847  78.0216122
 102.3989296  50.7542038  77.3933363  98.0341434  64.4044161  52.6091528
  97.2224617  64.1466236  52.1721792  98.6757088  64.4723415  51.9020319
 100.3013611  82.5937080  47.9865026  99.3759632  82.5970268  47.7418137
 100.4856014  81.6824532  48.2143116  85.1519299  52.3980522  42.4710321
  84.6904564  51.6335821  42.1262836  84.9608135  52.3903608  43.4089279
  95.5126095  45.3771973  61.0847616  94.9207401  46.1180401  61.2154579
  96.3883495  45.7627010  61.1112404 110.6515598  66.7835903  30.8401871
 110.6715870  66.0911751  31.5007830 110.5454350  66.3194180  30.0098205
  29.7649185  72.1276903  58.4056425  30.2280513  72.6822901  57.7778292
  29.6781055  72.6723862  59.1879511  92.8047085  71.4102411  41.4506435
  91.9865704  71.8124628  41.7423534  93.0458260  71.9006538  40.6647730
  15.8576671  86.9007206  51.6922760  16.6403381  86.3770580  51.5207005
  15.7883254  87.4828053  50.9355736  91.3868999  57.5746679  42.1972179
  91.4414215  58.2368469  42.8862619  91.6647053  58.0316544  41.4033556
   8.1839744  53.3589792  61.4976120   7.6884929  54.0548038  61.0656834
   9.0063754  53.7752771  61.7556286   7.3028556  37.7073574  74.8541498
   7.3409454  36.9509172  75.4394579   8.2165805  37.8819728  74.6286535
  85.8399582  66.5934467  61.6549349  86.3174438  66.2127542  60.9178400
  85.0728607  66.0305882  61.7597532  89.8309423   0.3756941   0.0098344
  90.4729463   0.1493538  -0.6631068  90.1601411  -0.0427162   0.8053132
 108.0899239  13.3709943  61.4390230 109.0219975  13.5443521  61.3070536
 107.9872227  13.3242917  62.3895502  51.3335224  96.5235452   4.6090242
  51.0729309  96.0324029   5.3881952  52.2675225  96.3386611   4.5106241
 101.2383270  70.9755325  79.5715666 101.8955135  71.6591549  79.7019243
 100.6867313  71.3056660  78.8623476  26.4581391   7.3503884  40.2929306
  26.7070576   6.4765748  40.5941439  27.1868035   7.6291570  39.7383475
  30.2150337  58.7255812  63.8907194  30.1836196  59.4886398  63.3136702
  30.3377716  57.9829788  63.2993555 103.7988663  65.8437300  77.3021698
 103.0239296  66.1059284  77.7991295 104.3547058  66.6229820  77.2964525
  73.1982231  77.7577686  67.4449873  72.8746605  78.2412910  68.2050800
  73.5896349  76.9658947  67.8137207  72.7869654  69.3558359  89.2183590
  72.3172140  68.5290003  89.3274593  72.1207476  70.0295544  89.3543339
   1.0281459  70.1513481  56.6962910   1.8348209  69.6709013  56.5100861
   1.1961166  71.0361910  56.3721418 100.3066349  54.9455214  77.0452499
 100.6529236  55.7910681  76.7600107  99.6778393  55.1639414  77.7330971
 110.7180691  79.4954920  38.4516072 110.9232521  78.7352753  37.9073596
 111.4797211  79.5935535  39.0230131  84.7593213  45.2708900   0.6119939
  85.6577397  45.3328026   0.2875634  84.6423722  46.0573948   1.1448690
  91.1074162  92.3535824  55.0478601  92.0581913  92.2588634  54.9905872
  90.9684658  92.9205036  55.8064890  90.0071239  82.2563171  23.2315969
  90.1617718  81.7482758  24.0279675  90.6472492  81.9196224  22.6046109
  98.3435154  52.6716805  67.3167992  98.7097073  53.0937815  66.5396452
  98.9999580  52.0219803  67.5682354  82.0589542  54.2559958  64.7944736
  82.8598690  53.9989758  65.2513027  81.6032982  53.4309721  64.6272993
 107.2149086  67.1193790  60.9220743 108.0424404  67.5613308  60.7320929
 107.4450493  66.4439535  61.5600920  83.7161064  51.0285997  14.8310423
  84.4027519  51.6042709  14.4943643  83.0381584  51.6248941  15.1489174
  91.9508934  81.6327190  31.3790202  91.8472099  82.5842571  31.3713408
  91.9936371  81.4039326  32.3074937 107.5720406  58.0201674  70.6288195
 108.0193138  57.6695251  71.3990355 107.8139305  58.9461517  70.6122541
  90.6773949  54.1420269  73.3045101  89.8923206  53.6588621  73.5622787
  90.4099464  55.0609159  73.3229351  26.0902210  83.2783512   1.9357415
  25.5632492  83.3020309   2.7344724  26.9911762  83.3879665   2.2398683
   3.7223712  26.7803717  46.4772272   4.1391937  27.6368093  46.5721130
   2.7838127  26.9673991  46.4959574   8.3886043  67.4139166  62.5165510
   8.5983364  68.3477163  62.5328827   7.6745693  67.3398495  61.8833923
   4.9390022  41.9669056  77.0471382   5.6775657  41.3879728  76.8584538
   4.2085735  41.3737869  77.2229624  90.1307964  45.9696674  50.6724501
  89.8872662  45.8631420  49.7528934  89.3027592  45.9060764  51.1484194
  21.6487781  50.2351475  48.2873154  20.8623401  49.8235130  48.6454964
  21.7481319  49.8461819  47.4183702   1.3820068  66.2469959  36.9510460
   1.9609920  65.4950142  36.8264437   1.4994518  66.7733383  36.1602235
 103.6463451  71.8538141  65.0952673 103.3597565  70.9950304  64.7844696
 104.0165615  72.2774839  64.3208838   3.7566749  90.8957577  49.0166903
   4.4383518  90.6739712  49.6510077   3.8599006  91.8365002  48.8732529
  96.8527317  64.3964815  60.2539492  96.3114357  64.2060900  61.0200977
  97.7509880  64.3747520  60.5839348  18.2479087  73.6548471  63.8378572
  19.2035476  73.6003399  63.8429499  17.9574863  72.7551031  63.6883688
  19.9803916  83.8057041  61.9056702  19.6065322  84.4456768  62.5113869
  20.7949439  83.5271931  62.3242092 105.6987572  71.2851381  41.7574835
 106.1207867  71.7288017  41.0217619 105.5960274  70.3797817  41.4642096
  96.4752865  46.1584711  86.9536495  96.8116570  47.0237446  86.7204285
  96.8769646  45.9657097  87.8008366  69.2877961  33.8845909   1.4312574
  69.6076013  34.2022121   2.2756883  68.6025144  33.2552231   1.6560193
  88.1672573  75.1831245  73.9517641  87.7626610  74.7483873  74.7024584
  87.5647449  75.0186443  73.2263947   5.8299152  99.4859695  87.2208786
   5.8715717  98.6622810  87.7066994   6.3814060  99.3389702  86.4524460
 102.8111172  69.3236780  76.8661594 102.8029919  70.2807093  76.8820381
 101.8935966  69.0783024  76.7470598 108.2678795  67.2025728  51.2358570
 108.8177681  66.6620779  51.8030548 107.6281548  66.5918064  50.8698463
  81.9826126  83.9705372  74.5098686  82.2319889  84.8309898  74.1727257
  81.8795872  84.1031933  75.4522181  56.2643052  28.0337704   8.7950250
  56.0436154  28.4029854   9.6501371  56.9789220  28.5837162   8.4739038
  74.0796900  63.9469099  53.2690334  74.7130728  63.8449240  52.5586414
  73.9794159  63.0656147  53.6288786  33.4444896  98.5976505  52.1767664
  33.5167400  98.2693100  53.0729818  33.0360500  97.8809166  51.6912889
  89.8052502  97.6044750  58.9677763  90.4526997  97.2467804  58.3602381
  89.5196342  98.4217930  58.5595560  72.2324800  71.9713831  70.2523518
  73.1353617  72.2587538  70.3882170  72.0443106  72.1956730  69.3410254
 101.1175251  89.6031380  34.2752051 100.4637623  88.9109612  34.1766238
 101.8074512  89.2069149  34.8074126  22.1586887  60.5721283  45.1941919
  21.9705097  60.5655050  46.1326885  22.5370399  61.4362621  45.0318670
  13.6373226  79.6244240  73.7232208  13.5709468  80.3457737  73.0975437
  12.7294532  79.3900108  73.9157009  83.6844921  81.7591095  85.2183723
  84.5528984  81.8011951  85.6187916  83.1171417  81.4220047  85.9116936
  87.7073956  63.1320047  60.8928013  87.6826000  62.3029518  60.4150009
  88.3670807  63.6528015  60.4347372  80.8935165  70.1823330  38.6086464
  81.1285591  70.1417589  39.5356512  80.8488846  69.2668962  38.3325815
  95.9328365  59.3250847  62.8073311  96.3103771  59.2629051  61.9299316
  96.5666866  59.8418379  63.3047533  10.2233879  74.5427704  40.2303028
  10.2870742  75.2362823  39.5736337  11.1167137  74.2092848  40.3138733
  92.9020119  82.3727226  47.5579596  92.5282097  82.4313450  48.4371996
  93.5877037  81.7090702  47.6329803  96.3781357  52.7991486  70.5186272
  97.0025158  53.5244226  70.4994869  96.9129658  52.0275545  70.7052803
  91.3257694  41.0031796  63.7140274  91.2046528  41.2511301  64.6305895
  90.6156063  40.3863049  63.5369349  88.3819389  74.2474127  36.7755842
  89.0392208  74.6857119  36.2351131  88.5966778  74.5070934  37.6715112
  22.3180763  97.5511837  73.0419207  22.7791301  97.4955559  72.2049189
  21.9512454  98.4352112  73.0550051 106.1024761  71.0646248  60.3614283
 106.6336060  71.6088104  59.7800589 105.1986027  71.2760305  60.1278877
  98.5162067  45.5432320  31.8638134  98.5009480  45.5474234  32.8208828
  97.7302551  45.0573921  31.6138673  75.7410288  47.3456335  90.4563236
  75.5980206  48.1612349  90.9365082  75.1551485  47.4060440  89.7017860
  92.9348278  50.3179979  61.7521286  92.2260475  50.9526205  61.8575144
  93.7328148  50.8209324  61.9149590  10.9754173  70.6426573  53.8232660
  10.6939212  71.1784649  53.0817080  10.1878158  70.5405045  54.3575811
  83.6354733  57.4297667  64.2612982  84.1397190  58.0427265  63.7262774
  84.2929649  56.8486166  64.6436644   8.0973712  81.2990665  73.2877874
   8.7417976  81.2475014  73.9936876   8.3342449  80.5860806  72.6946831
  94.6459103  69.7172594  52.0331573  94.4476604  70.4239464  52.6475906
  94.8788452  68.9742136  52.5898027  43.1379505   5.1915463  51.0667515
  43.8436218   5.6874570  51.4818907  42.7896591   5.7832059  50.3997707
  98.3513451  68.8562775  52.2553587  98.7636852  68.5339499  51.4539146
  98.3794880  68.1111717  52.8555727   8.0432311  24.2304802  39.0021396
   7.9670803  24.1370749  38.0525565   7.3305217  24.8225117  39.2424965
  83.1525422  11.0780180   7.1025392  82.8424073  11.9306362   6.7974302
  83.6000539  10.7008589   6.3451024  91.2972732   5.1420995  78.1710604
  92.1946426   5.3352901  77.8997008  91.0071750   4.4569989  77.5688103
  76.2996054  51.7549276  71.3093901  76.3976145  50.8037806  71.2653303
  77.1162701  52.0969629  70.9456539  11.4416591  45.1972532  50.8866501
  11.5176765  44.4912052  51.5284872  10.7705394  44.8939133  50.2752542
  20.9688369  62.9363966  73.8305616  21.9115440  62.7706766  73.8216972
  20.5927650  62.2068357  73.3380747 103.0712986  70.1946688  83.0308628
 103.1517124  69.9795628  82.1016216 103.8825989  69.8713541  83.4226322
  77.8878117  66.3753033  67.1088791  78.3037710  65.5159235  67.1772957
  78.0231476  66.6350412  66.1975908  95.3356266  56.7251778  27.4906564
  94.9283218  57.5878954  27.4128962  95.4435539  56.5953112  28.4328461
  13.9734928  65.2215338  62.0673943  14.6406166  65.2746916  62.7517605
  13.8655178  64.2834711  61.9105196  85.3814697  42.8443003  33.7695074
  85.6750107  43.4315348  34.4660830  85.3383064  43.3992100  32.9907632
  88.4272671  58.0924511  50.4104090  87.8352451  58.5650539  50.9955406
  87.9798508  57.2647572  50.2344179 106.5984154  56.6732311  54.8355532
 107.0646286  56.5569019  54.0076923 106.9938374  56.0313511  55.4253578
 101.8940639  77.2562790  47.2360373 102.7710915  77.3216772  46.8581676
 101.7479324  76.3161325  47.3408890  80.0996299  20.3791448  88.3949350
  79.3447490  19.8280307  88.1883878  80.1946445  20.3089829  89.3448195
  90.0387192  84.5879173  43.4823275  90.0898552  83.6783314  43.7760258
  90.1971054  85.1040840  44.2727232  99.6695328  49.0685844  33.5746694
  99.1071415  49.4468069  34.2506123 100.2809238  48.5111904  34.0560651
  33.6586372  66.0566950  43.3832884  34.0734092  65.2233887  43.1601334
  34.2315475  66.7200089  42.9985619 105.3289604  68.2608414  77.2074175
 104.4590759  68.5656023  76.9492245 105.9120464  68.5957766  76.5261984
  94.9433231  92.5330639  62.6147842  95.6577206  92.0523930  63.0328894
  95.3779793  93.1086349  61.9854736  18.0649368  82.4804306  49.2239523
  17.3687164  82.9935074  49.6341419  18.7085525  82.3501778  49.9203920
  95.7736206  58.7240362  78.8504505  94.9949455  58.3251476  79.2387533
  95.9096527  59.5253706  79.3560028  88.9616299  71.3034487  73.4812355
  89.5674610  71.7831087  74.0461493  88.1178284  71.3637304  73.9291239
  91.4655209  54.6394062  38.2821035  91.2712097  55.4583263  37.8262091
  91.2356186  54.8130608  39.1949105   7.1165267  66.1904287  45.0578976
   7.9039852  66.6712379  45.3127861   6.5998928  66.1336184  45.8616972
  88.8392735  88.4000111  63.4566307  89.1975880  87.5554848  63.7298012
  87.9936123  88.1853390  63.0629396  11.2944213  73.4508896  59.8362732
  10.4180995  73.5955667  60.1931429  11.1829845  72.7354002  59.2102623
  28.6970035  64.4651222  63.6434507  28.8453666  65.3752899  63.8999891
  28.0811778  64.1299438  64.2951059  94.0902233  83.2206440  64.7358942
  93.2458782  82.8224087  64.9473906  94.6905708  82.8740025  65.3959322
   7.6241294  70.0719309  82.9470921   7.6114265  69.1153431  82.9152298
   8.0088226  70.2781200  83.7989807   6.8105599  10.0862416  59.9169827
   5.9142872  10.1166734  59.5823240   6.9100567  10.9008511  60.4096699
 108.7980180   3.6051473  42.7616549 109.7480683   3.5150536  42.6873589
 108.5722499   4.2890653  42.1311617 103.0910587  68.3141136  35.0304222
 102.5565243  68.2290888  34.2409444 102.5086117  68.0520916  35.7433963
  70.6316086   0.4138574  29.8125029  70.4358670   0.6865605  30.7089138
  71.2796875   1.0478219  29.5053959 101.2478924  64.0954876  63.5182810
 101.9959927  64.4283009  64.0140820 101.5629387  64.0426874  62.6159573
  66.3472176  90.6003094  80.7823849  65.9055328  91.3980579  80.4912567
  67.0287180  90.4510784  80.1270103 104.6349430  96.5047359  56.2436247
 105.1045036  97.2704887  56.5743303 104.2967510  96.7806339  55.3917217
  88.1485844  97.1609116  42.0738411  88.6560249  97.7947235  42.5808239
  88.8049412  96.5738964  41.6985512  23.0599018   3.3296784  71.4209747
  22.9513451   2.4123391  71.6718197  22.8564640   3.3479604  70.4858208
  11.4647571  79.7751141  18.9483333  12.2807781  80.2604961  19.0698051
  11.6044704  78.9511251  19.4149756  78.9074039  58.5263538  83.6961555
  79.0602303  58.8346052  82.8029251  79.7340155  58.6892843  84.1504669
  54.2456528   6.9559773  63.3191538  54.6426197   6.1219033  63.5700703
  54.9038693   7.6126012  63.5467863  15.7399360  30.4571867  30.0880861
  14.8724548  30.3179312  29.7081923  16.3449088  30.3271770  29.3577862
  31.2563893   2.9285153  45.4681349  31.9410893   2.3286256  45.1722431
  31.7114922   3.7577065  45.6149626  36.7482754  18.3834657  48.3692074
  36.3855644  17.8250798  49.0568638  36.8703839  17.7961453  47.6233006
  54.8343659   5.9515989  18.0514928  54.5009900   6.1995972  17.1891805
  55.5315209   6.5829075  18.2294008   7.2385971  82.0326519  62.0952702
   8.0780403  81.6818619  62.3927736   6.5909187  81.4003277  62.4065638
  23.4257213  92.8743935  54.8245096  22.6185218  93.3654118  54.6710300
  24.1181365  93.4377861  54.4789886  96.0514545  54.6699286  68.0052710
  96.0482025  54.1123724  67.2272253  95.9902668  54.0579510  68.7387371
   8.8104144  62.5386906  59.1060400   8.5713855  61.6127300  59.1472673
   9.2888156  62.6990032  59.9194670 110.8985615 100.7912350  47.8138399
 110.7585812 101.2798691  48.6249399 111.5458870 100.1248550  48.0443478
   3.4731952  60.4062986  45.4136276   3.6742584  59.4843340  45.2530622
   2.8496829  60.6388187  44.7255898  98.7890816  62.7108908  31.1006212
  98.9351559  63.4473276  31.6943860  98.3383369  63.0952168  30.3487229
  22.2579762  13.5749158  85.2267265  22.2671314  13.4984597  86.1808300
  22.4757191  12.6968392  84.9139881  25.3113171   4.7550591  46.7798996
  25.2383801   5.0692185  45.8786678  24.5831104   4.1418466  46.8794632
 108.0379391  80.4645061  70.6911898 107.7782917  81.2695789  71.1391544
 108.8900280  80.6688976  70.3059721 109.5373344  22.7552223  89.5997143
 110.0331593  21.9739032  89.3548965 108.9855671  22.4702597  90.3281212
  74.1852617  80.7169437  10.6009614  73.7418365  80.8166504   9.7585464
  74.2932177  79.7714901  10.7043767  25.0024978  75.7871246  47.9061985
  25.7821742  76.2157440  47.5531769  24.5354835  76.4828444  48.3689165
  10.7541648  99.6378613  28.7884903  10.3453533  99.4009113  29.6209288
  10.2655689 100.4055882  28.4916615  15.0271121  91.8964767  64.5585251
  14.2137996  91.5752983  64.1691780  14.7496787  92.5966358  65.1493263
 111.1571789  49.8070288  34.1878319 110.2044773  49.8097610  34.0952635
 111.4755440  50.2494669  33.4009862  25.8795162  97.1368913   7.9608461
  25.3620526  96.4794425   7.4958440  25.4962441  97.1672753   8.8374349
  89.8648454  46.5325630   8.0483934  89.8889066  45.7629574   7.4797365
  89.3072511  47.1564758   7.5835725  88.9228249  77.7139759  55.5771160
  89.4644833  78.0943632  56.2686014  88.1228256  78.2395077  55.5831289
 106.1223888  79.9068403  79.4596910 105.2197170  79.5983553  79.5386982
 106.4968395  79.3745613  78.7577724  88.4372807  58.0606842  14.5127177
  88.0652428  57.2559357  14.1518903  89.1750813  57.7652836  15.0462103
  61.2019535  17.5235089  60.2773762  62.0900723  17.5254830  59.9203396
  60.6919380  18.0403813  59.6537113 106.4727306  78.1830072  59.4341850
 106.6924477  79.0564299  59.1100025 106.2808990  78.3134604  60.3628445
   9.2587177  47.4108839  56.6104889   8.7746898  47.5538731  55.7971573
  10.0816909  47.8835154  56.4857006   7.8022949  76.8583202  47.8447676
   8.5706321  77.1667576  48.3251476   8.0266086  76.9907808  46.9236994
  88.0466652  80.2853012  77.9030323  87.1264648  80.3770256  77.6559591
  88.3723736  81.1840820  77.9515123   5.1840583  50.1925039  48.8611841
   4.6601764  49.9489164  49.6243668   6.0907642  50.0951195  49.1521025
  65.4172511  13.8813468  84.6540151  64.7595782  13.5167190  84.0617738
  65.2042480  13.5063334  85.5085460  31.5960876  79.8575544  71.1967611
  31.4862529  79.3603373  72.0072842  31.2695304  80.7325554  71.4064217
  64.0690184  71.1132097  47.6050377  64.8192739  70.6206799  47.2722292
  63.6782265  70.5385971  48.2633162  92.7153873  51.8535376   5.8620751
  92.2592354  52.1126413   6.6627157  92.8716183  52.6762772   5.3984785
  -0.0127038  74.2663288  39.7180939  -0.2627762  74.7492838  38.9304066
   0.4880420  74.8962736  40.2364111  -0.0782593  59.5192766  52.0646858
   0.3490726  59.5676756  51.2095404   0.2149574  60.3063107  52.5238514
  31.3081738  18.3250913  33.6746526  30.8132073  17.6235684  33.2514501
  31.9064041  18.6388978  32.9965115  21.9823257  80.1642704  75.5767155
  22.4877349  79.9849653  74.7838402  22.6364032  80.2002430  76.2746572
   9.2421237  63.8056231  89.9030876   8.8137142  64.5596600  90.3081989
   9.9214736  64.1865110  89.3466377  87.2887135  69.8264027  59.5220518
  87.3005199  70.6580210  59.0482235  86.5468884  69.3493366  59.1501188
  58.5696697  85.4661465  23.4817910  57.6167107  85.5367184  23.5376883
  58.8928890  86.2858009  23.8558483  85.3589726  27.9759586   5.0944253
  84.8387052  28.3182705   4.3675348  86.2666608  28.0780018   4.8082086
  75.2482462  77.1085691  62.8211880  74.7910023  76.3678265  63.2192659
  76.1390018  76.7899084  62.6754570  65.6501962  39.4035805   5.1288720
  65.0532533  38.8277996   4.6509858  65.2660562  39.4747341   6.0027143
  51.6448971  33.0602654  45.2643776  51.2759205  32.1774777  45.2365589
  52.5898262  32.9229077  45.3313112   6.5440170  99.2729282  59.4648743
   6.4903251  98.8905334  60.3407288   7.1990005  99.9662113  59.5459509
  66.0678188  87.0405197  73.3069468  65.9775821  87.3887157  74.1939926
  65.3047840  87.3785305  72.8381824   2.4901954  69.0833426  37.6363063
   3.2115833  69.5879841  37.2605920   1.7124072  69.6150303  37.4672484
   6.2471286  80.3894615  58.9885616   5.7800762  80.8390236  59.6928263
   5.7943431  80.6602573  58.1898880  84.0507221 102.4445152  19.7996557
  83.3978653 102.0560169  20.3819656  84.8752213 102.0299244  20.0537276
  29.1989604  74.1680002  10.0628412  29.1630260  75.1218367   9.9911666
  28.3456317  73.9223528  10.4202044   6.6551582  86.7277813  42.1385908
   6.6402809  87.6469612  42.4052763   7.5348941  86.5950489  41.7854881
  98.4233189  75.6631374  77.0170689  97.6459789  75.8936930  77.5258017
  98.2305336  74.7938395  76.6658068  99.9717999  53.6427689  50.2064323
  99.7218990  53.1873798  49.4024420  99.1423416  53.8139057  50.6524658
  84.0635204  63.7776375  72.1292496  84.4992065  62.9697895  71.8576097
  84.2372513  63.8392878  73.0685329  31.5393063   1.5729436  57.7400351
  30.7691952   1.5979489  58.3079576  31.2220665   1.1879071  56.9231224
  64.7393751  70.2994585  55.5159760  65.0771570  71.0468388  56.0094881
  64.6929455  69.5902872  56.1571884  80.3531933 102.1051693  33.6947608
  80.2099514 101.1770821  33.8801765  80.2417278 102.1800518  32.7470255
 109.0417004  91.1484051  19.5881569 108.5811901  91.6811180  20.2365208
 108.6517906  91.3999462  18.7509441  98.8077831 104.2342567  64.4716501
  98.9463139 103.5226250  65.0966406  99.2394161 104.9901485  64.8698425
  91.3350868  66.9888306  36.2272000  91.7947674  66.6278601  36.9852448
  90.5381680  67.3741245  36.5914845  23.9259712  83.1928921  46.4262104
  23.8847343  82.5350380  45.7321262  24.5720664  82.8496647  47.0434475
 108.9607239  77.1577215  54.4200659 108.4161091  77.7978134  54.8782301
 108.3355808  76.5924406  53.9663172  95.8081245  64.7697449  54.8280430
  94.9781322  64.5701361  55.2610636  95.6557941  65.6088781  54.3934441
 110.2776623  85.0516129  42.8335285 111.1822414  84.7683525  42.7003765
 109.8939228  85.0477219  41.9566298   4.8092357  80.3730583  55.1512909
   5.5153552  80.5524349  54.5304489   4.0388194  80.7891273  54.7645426
  78.9446640  79.4657183  72.2403097  79.3923140  80.1822186  72.6902723
  78.6017990  78.9169788  72.9456902   0.4222003  93.8643456  65.8912897
  -0.0678452  94.4179916  65.2833748  -0.0733956  93.9094067  66.7089653
  97.2077561  67.5536335  14.3763849  96.7799283  67.8912247  15.1632901
  96.8046094  68.0399597  13.6572191  64.7109982   9.7872552  74.3120766
  64.4386288   9.4884213  73.4444666  65.2019593  10.5917939  74.1450739
  55.9069967  85.4091072  69.9834061  56.6666746  85.2983093  69.4117022
  55.1587009  85.1702976  69.4363689  30.2138511  70.3121471  45.6028366
  29.8415080  70.3848267  46.4816475  29.6394531  70.8464909  45.0544024
  58.3400151   2.1273812  90.4114056  57.9730412   1.7442235  91.2081242
  59.2524906   1.8382749  90.4049015  68.2737637  59.0122175  31.9781685
  68.1788588  59.8991489  31.6309190  69.1505861  58.7411070  31.7062926
 105.6321716  95.8207607  53.1921816 104.9168396  96.4108372  53.4295511
 106.4206314  96.3585186  53.2655907  58.2872201  66.2464512   0.8228418
  58.6893750  66.9764793   1.2935468  57.5281430  66.6323936   0.3857347
 110.3854804  15.3721150  62.9293060 111.2529282  15.5507382  63.2924414
 109.7766213  15.7035932  63.5893393  20.9870616 100.4964542  47.9694748
  20.8399574 101.0850430  47.2290945  21.4764587 101.0236359  48.6009836
 109.2894936  92.3370457  41.3301516 109.2046642  91.8601227  40.5045700
 110.1225376  92.8022289  41.2535286  16.2764546   5.9557732  66.6445208
  15.6706997   6.0513600  67.3794746  15.7407185   6.1234578  65.8692169
  95.3596592  93.0358124  74.1945457  95.6836128  93.5282803  74.9487019
  95.6715679  93.5280037  73.4351492  69.4088932   2.0498380  45.4762363
  69.4099613   2.9036817  45.9088945  69.0648075   2.2255334  44.6004725
   8.3354656  83.9566040  39.7060251   8.7946788  83.1562614  39.9606299
   8.4605686  84.0134811  38.7587428 106.4715481  85.8500290  69.7546339
 106.7084599  85.7422161  70.6757641 106.8719578  85.0999641  69.3149710
 102.1213913  54.3585539  11.3637781 101.6904926  53.5920572  11.7419803
 102.8788376  54.5106792  11.9288957  75.7876921  88.2904625  43.5849667
  75.9035492  87.3829079  43.8663149  76.6275406  88.5285568  43.1922913
 106.5782642  86.9208717  64.0985966 106.4471054  86.2235546  64.7410727
 106.1788177  86.5853310  63.2960415  29.6277715  57.2312916   3.7607786
  29.0331937  57.0490539   3.0331155  29.9123908  56.3676155   4.0595838
  21.4940444  81.0167408  87.7712727  22.1799175  80.5771923  88.2738590
  21.0074703  81.5229511  88.4218311  54.6437927  11.7096433  54.5248890
  55.5622383  11.7302331  54.2560577  54.1647907  11.4940175  53.7246990
  94.6051693  65.7538462  67.7160549  95.5088329  65.9843445  67.5004387
  94.3206215  66.4397573  68.3200264  92.4598026  78.6061335  43.8615799
  91.9902611  78.9048910  44.6403694  93.1226349  78.0031347  44.1981459
   0.2278987  70.3821278  37.5127029  -0.4791268  69.7457790  37.6194549
   0.2940742  70.8119249  38.3654213  39.4957157   1.6554364  36.6094351
  40.0314232   1.0489186  36.0981703  38.7032696   1.1597070  36.8156075
 101.2015343  94.0908527  53.2625675 101.3824558  93.2609081  52.8213453
 101.7416668  94.0649509  54.0523815   2.0857326  78.5836840  55.0040245
   1.3597194  78.2654524  54.4674921   1.9140617  79.5195484  55.1085377
  13.1995002  46.5801096  62.3073769  14.0545646  46.9651127  62.4993992
  12.6942722  46.7060995  63.1105614  94.3424702  62.1226835  57.8845787
  95.0100708  61.5116358  57.5728703  94.7122192  62.4929953  58.6860657
  44.1043183   2.7264890  50.3458214  43.7729355   3.4100923  50.9281492
  43.6373230   1.9354638  50.6149578  75.4926491  55.6682205   9.6891451
  75.2346849  55.1903677  10.4773998  74.9726248  56.4714241   9.7150278
  90.6450272  66.1637926  33.8102865  90.9313107  66.2329483  34.7210479
  89.9881840  65.4675627  33.8178968  67.0664883  58.0120993  28.5130954
  66.5106630  57.9956055  27.7339816  67.2618103  58.9393425  28.6483836
  41.0923382   3.2764443  20.6416941  41.5434929   3.9157018  21.1930966
  41.7451473   3.0184277  19.9909210   3.5085479  82.3747444  39.8646951
   3.7668506  82.8061962  40.6791639   3.2157890  83.0884457  39.2979908
 110.9046841  67.2467041  90.1388741 109.9656010  67.1382856  90.2891827
 110.9761333  68.0679035  89.6522999  99.9174500  77.7858067  38.9072299
  99.3462276  77.3710251  38.2607818 100.6614780  78.1073952  38.3980894
  17.6052090   5.2352628  34.7659826  17.4423405   5.9216889  34.1190386
  16.9162842   4.5895966  34.6087241  40.5670501  53.0149734   4.7387048
  40.4276181  53.8929069   4.3837091  41.4154149  52.7460659   4.3862840
  17.8430263  68.3534956  55.5719471  17.7324287  69.1618109  55.0713158
  16.9543640  68.0139732  55.6780100  -0.0018128  66.3707352  64.6339226
   0.0192729  65.4475069  64.8857880   0.9106246  66.6548014  64.6885490
 100.6601048  74.3743563  53.9157248 100.8465767  75.0760984  54.5394373
 100.3420734  73.6514568  54.4565678  24.2041680  17.3384198  17.7533853
  24.4995304  17.9914483  18.3878446  24.7266289  17.5118264  16.9703209
   3.4964076  96.2287903  50.0277185   3.2187740  96.6019344  49.1911125
   4.1256992  96.8610001  50.3749037  74.1148043  96.7245770  59.5666409
  73.4108782  97.3714447  59.6143436  74.7943068  97.0667648  60.1475143
  97.8569126  73.1376028  35.0788808  98.1898594  72.3401070  35.4904318
  98.4823704  73.3249950  34.3789363 108.2060337  66.3269854  40.1233530
 107.8121758  65.6978893  39.5189142 108.7599182  65.7953644  40.6950426
  16.9615547 104.7552299  17.3818886  17.7303115 104.2049217  17.5315917
  16.9024650 105.3023338  18.1650925  71.8342066  83.9385033  62.6413631
  71.7833996  84.5520687  61.9084358  70.9541702  83.9417362  63.0178785
  15.2777287   5.1539334  81.5272999  15.4234310   4.8656281  80.6262493
  15.3655239   6.1064156  81.4911747  41.6516873   6.3546666  35.6086397
  41.4065739   5.6105813  36.1586261  41.0427757   6.3181409  34.8709965
  85.1331425  93.4342384  60.6455040  84.8533344  94.3098545  60.3786087
  85.9305000  93.5822105  61.1539888  19.4400398 100.7582474  65.5634403
  20.3687374 100.6535912  65.7703304  19.1371623  99.8718452  65.3665161
  30.0220672  80.9502602  62.6717854  29.9444286  80.1279068  63.1554604
  29.9755470  80.6920147  61.7512512  19.8483936  86.9274330  61.6683722
  19.0665904  86.8922806  61.1172152  20.5467311  86.5757942  61.1161804
  91.6318130  87.7729130  66.3239288  92.4313736  87.9178524  65.8180237
  90.9462833  87.6693153  65.6639719  43.3583282  57.5244391  84.2882595
  42.7934544  57.7963644  85.0115893  43.9099984  58.2873207  84.1153327
  36.6584682   2.7434975  34.8954272  36.8901992   3.5127112  35.4158521
  36.3876081   3.0995718  34.0492129  10.2722657   0.9422875  31.6599274
  10.8279109   0.9208217  30.8808064  10.8432508   1.2753721  32.3522139
  28.9495893  79.0755478  46.4493895  29.7054668  79.5184556  46.0637474
  29.2118211  78.8966600  47.3524189  24.8948283  65.9378496  64.3880177
  24.7184844  65.1316396  63.9030838  24.8150344  65.6862417  65.3081036
  45.2531385   1.0273506  43.7327385  45.4708958   1.3598706  44.6035099
  45.5305243   0.1113838  43.7498665  14.1313119 101.9327158  39.3106270
  14.6732946 102.0260722  38.5271931  13.9793582 100.9906546  39.3858838
  62.4004316  15.5946863  24.1435075  62.9525805  15.0814390  23.5536456
  61.6779041  15.8966815  23.5930681  40.9314008  92.5760785  32.8698492
  40.4114814  92.8000144  33.6417127  41.7594381  92.2523502  33.2245064
  98.2619265 100.4492873  46.4804697  99.1683034 100.1514405  46.4030123
  97.8050951  99.7198824  46.8994045  13.2169957  92.1697394  36.4225101
  13.6982818  91.5467063  36.9669604  13.6929603  92.9940013  36.5239096
  19.9782081 103.7768458  31.3547468  19.8912139 103.8116204  30.4021430
  19.5631595 104.5825215  31.6627288  50.3984165  11.3200951  49.4226360
  50.8603907  11.1842036  50.2498865  50.4180336  12.2678912  49.2902374
  39.8479104  13.0858505   7.7472466  39.8306251  13.5177088   6.8931782
  40.7765770  12.9276180   7.9168761 109.6916727  78.0475083  31.1293316
 110.1295451  77.3315326  31.5896320 109.2284802  77.6209560  30.4084039
  41.3731046  85.6611410  32.3788381  42.1338172  85.0804034  32.3958921
  41.1487575  85.7347969  31.4512205  43.8415904  92.6980952  33.5780358
  44.0432449  91.8836812  33.1172776  44.6371455  93.2237986  33.4945726
  63.8912249  34.6111631  56.7806196  62.9791307  34.8515201  56.9435549
  64.0678024  34.9279189  55.8947754 100.5975918 104.1167191  59.7577143
  99.7831420 104.4760383  59.4058752 100.3473095 103.7354041  60.5992556
  74.0897036  14.0587425  39.1077685  73.9535189  13.2005513  39.5092559
  73.7330961  13.9690304  38.2240176   5.4537339  90.7073144  65.8949852
   4.6348472  90.5212203  65.4356098   5.9396215  91.2758723  65.2975845
  89.8023033   4.4934607  43.0921364  88.9511585   4.8865679  42.8991461
  89.6808815   4.0627626  43.9382982  96.6398190  33.8083946  78.3009068
  95.6919955  33.7934422  78.4336976  96.8052911  33.1024575  77.6760033
  13.8246703  18.9645743  67.9112768  13.6303866  18.7283242  68.8182878
  13.4670317  19.8468518  67.8117132  48.7116337  19.7221160  17.9745066
  48.7474251  18.8430154  17.5975013  48.9774323  19.6027124  18.8862765
  14.3452068 103.2593926  36.7777705  14.5726199 103.8359870  37.5071907
  15.1742501 103.1096545  36.3233542  49.2783160  97.5080595  26.7813754
  49.6291347  96.9711295  26.0708404  49.1694350  96.8982384  27.5110984
  65.0631519  94.4397942  76.1884499  65.7281013  94.8641983  75.6462812
  65.0251765  93.5410670  75.8612204  75.1601887   1.1418032  62.2689915
  75.4271650   1.3317440  61.3696146  74.2040920   1.1830695  62.2488022
  69.0808964  41.4350986  29.7698021  69.2725515  40.5274677  30.0058126
  69.8251295  41.9328594  30.1083016  46.8683004  20.8488917  56.4779186
  46.8444014  19.9791384  56.0789347  46.7037535  21.4502048  55.7515764
  97.9522828 100.9551830  75.8210373  97.9709629 100.5506981  76.6883755
  98.8452939 100.8557046  75.4910898  89.8423862  23.5923219  26.7356896
  90.1123142  24.4593525  26.4329839  89.0934467  23.7607002  27.3075080
  56.9706488   3.9120001  35.0170779  57.7519131   3.7050897  34.5041990
  56.3603735   3.2010409  34.8212814  90.6972599  26.1513019  50.9749365
  91.1218929  26.7796040  50.3908491  90.4109097  25.4434037  50.3977776
  59.5453405  10.3543139  45.9208107  59.6060038   9.4657987  46.2716579
  59.3024826  10.2332962  45.0028753  41.9366975 100.7318184  42.0743179
  42.8643747 100.7721639  42.3067331  41.6895623  99.8207012  42.2324991
   9.5902438  83.7567512  34.9084759   9.3382211  84.6570293  34.7030091
  10.2569289  83.5399810  34.2567277 108.8643531 101.5687451  65.7547951
 109.2177728 100.8271179  65.2635574 108.6118821 102.2023872  65.0832415
  62.4515009  14.5685816  48.7024641  61.6101503  14.4942045  48.2520962
  62.7251577  13.6632454  48.8497972  99.1576861  37.2277641  79.5991222
  98.7228583  36.4947426  80.0348250 100.0202416  36.8875706  79.3614212
  44.9614763  15.0066543  32.3052669  44.8987770  14.2959547  31.6671395
  44.3709135  14.7465515  33.0122423  31.7143531  80.1557246  35.2152228
  32.2658439  79.4701162  34.8383546  30.8192821  79.8451105  35.0788260
 100.5412674   2.7333701  66.3522482 100.6605339   3.5956091  65.9540653
 100.8919239   2.1205194  65.7059622  55.6545401  13.5141981  48.9277601
  55.9855270  12.6601160  48.6498737  55.2724314  13.8922453  48.1357336
  37.7848005  40.4699087  10.2322614  37.3943114  39.8730612   9.5938873
  38.5175896  39.9781322  10.6029415  46.0124874  21.6173339  63.5255432
  46.4752150  21.0058689  64.0984535  45.0940132  21.3549590  63.5871744
  53.4394598  11.9854331  40.6080723  53.6942530  12.7640617  40.1130438
  52.4885178  12.0554745  40.6919146  85.6810073 102.4165869  42.6537085
  85.9785846 102.4618619  41.7450666  86.2185529 101.7296079  43.0478334
  53.4219356  87.9733268  50.1069689  53.1601615  88.4179798  50.9131908
  53.2339664  87.0492498  50.2712297  65.6970310   3.5724270  60.6840467
  65.4418993   4.4045261  60.2856112  66.4693737   3.7846652  61.2081385
  49.7721577   7.2200465  48.6531878  50.3847218   7.9499316  48.5622740
  49.9979734   6.8210876  49.4934702 108.9594988  88.8946191  48.3254433
 109.3066005  89.6169582  47.8020144 108.6128596  89.3143347  49.1127872
  32.6000209  92.6258889  52.1251106  33.2580180  92.0537582  52.5199986
  31.8391271  92.0603553  51.9930410  12.9360592  23.4153175  51.0150290
  13.2990098  22.5322700  51.0837650  12.7487838  23.6683321  51.9189882
  35.8556743  93.6206595  49.0587616  35.3829951  94.4192806  48.8242245
  35.6985374  93.0253461  48.3258581  86.9070053   2.9270366  23.6219239
  86.4490414   2.6182938  22.8401446  86.9649410   3.8755041  23.5066676
  36.6774364 102.4799160  41.4995909  36.1741395 102.5397458  42.3115921
  36.7124219 101.5427414  41.3079882  12.9065271  99.6902618  73.3327770
  12.2348828  99.0374390  73.1354237  12.7357431  99.9428577  74.2401171
  26.9023938  96.3458714  72.0726538  26.3732476  97.1411840  72.1335983
  26.2648912  95.6320790  72.0906401  69.4208331  99.5632133  50.5591965
  69.3289180  98.7010888  50.9648132  70.3569217  99.7553584  50.6145000
  26.0000177 103.7718256   8.1919926  26.3834567 104.0305963   7.3539931
  25.2900500 103.1746385   7.9563081  95.2661800  28.1131315   0.9412319
  96.0935307  28.0727243   0.4615638  95.4951096  27.8596473   1.8354169
  29.6432777 103.8578149  33.5898137  29.0978046 103.6765241  34.3552065
  29.7237058 104.8114900  33.5734892  82.0603371  21.4311457  48.5579014
  81.9607544  20.5000114  48.7561607  82.1176720  21.4679408  47.6031303
  11.8330903  95.4252068  68.1805563  11.6159053  95.6192843  69.0923643
  11.9162507  94.4720594  68.1518030  80.7542706  21.1937809  28.6207509
  80.0725937  21.8131542  28.3601213  80.8087635  21.2839437  29.5721364
  70.2355909  35.3102303  13.1757534  69.3680096  35.3156137  12.7713966
  70.8431578  35.3877997  12.4401736  52.8781891   7.3410594  52.5798750
  52.7657175   8.2914084  52.6003647  53.2342529   7.1607172  51.7098618
  46.7377520   3.2652739  51.0229969  46.8494606   3.8322610  50.2599239
  45.7898569   3.1639975  51.1094284  69.8101664  32.7893591  86.8726063
  69.1853094  33.5065746  86.9793224  70.4500151  33.1208968  86.2425995
  69.4678593  26.0156751  37.0217848  70.1138306  26.4547753  37.5750852
  69.9678230  25.3458500  36.5553069  53.6358213  19.6063566  63.2496214
  53.6267805  19.1774249  62.3939562  54.5493841  19.5593905  63.5314512
  34.8977800  91.2582091  21.0820150  35.7056279  91.6625026  20.7655334
  35.1141973  90.9466377  21.9608307  77.9141998   1.4186619  36.7420697
  78.1035709   0.7493789  37.3996639  77.5431919   0.9326385  36.0056138
  83.1224918  24.2634988  55.8262634  83.8222122  24.7948813  55.4464483
  83.4190178  23.3604884  55.7127953  44.3984365   9.3329525  43.5406113
  44.3524837   8.5615313  44.1054392  43.4907436   9.6263498  43.4615898
   6.9423957  84.0626875  30.2845502   6.2815137  83.3824006  30.4136848
   6.6396566  84.7955767  30.8206940  68.5914230   9.3894064  55.9360647
  67.8751612   9.7358036  56.4682388  69.3853664   9.6697313  56.3913774
  74.4675541  22.1190000  41.0849667  74.7254372  22.8096342  40.4744291
  75.1828480  21.4842153  41.0445404  51.9177389  20.4617143  66.4886093
  51.2636137  19.9497473  66.9642639  51.6527796  20.3956914  65.5711842
  58.5633373  25.4428387  48.1865072  58.5875416  26.2311101  48.7289810
  59.3320513  24.9413824  48.4582567  20.9263034  92.2495071  56.0502625
  20.6392093  92.7795068  55.3066826  21.0981031  91.3853029  55.6762743
  42.8133149  95.5405650  79.5453835  43.4009071  96.2930420  79.4765043
  42.0457597  95.7880667  79.0297937  43.8227892   5.0839716  27.1331191
  44.6581841   5.0302374  26.6689348  43.4070349   5.8737993  26.7873549
  50.0183392  19.4975781  81.1048222  49.7504902  20.2891588  80.6380463
  50.8862638  19.2955613  80.7553577  58.3535337   8.6123645  40.7311630
  57.7856255   8.8298786  39.9919724  59.2412043   8.7438053  40.3980064
  56.5091033  99.3161229  43.1716347  57.2810073  99.8402134  42.9577780
  56.5810008  98.5438803  42.6106453 104.8389816   3.7535033  52.6259661
 105.6521225   3.3620310  52.3069286 104.8106289   4.6166623  52.2131872
   9.2759748  75.6080714  78.8185692   8.8907142  76.0189000  78.0446005
   8.7823482  74.7954599  78.9291525  53.6429310  25.4123521  30.1774216
  53.4057808  25.5130768  31.0992932  52.8329945  25.5936050  29.7005725
  34.7206640  28.4556556  63.6996746  34.9519682  27.6044440  64.0713835
  35.3804111  29.0559363  64.0469885  34.0180488  92.7498153  33.1563163
  33.7116285  91.9885198  33.6490321  34.9317022  92.5508002  32.9517174
  39.9585576  71.1337892  60.9194517  40.8811660  70.8853642  60.8618927
  39.9710984  72.0889155  60.9811401  26.6029306  84.6382633  76.7111301
  25.9955926  85.0052599  77.3535395  27.4693675  84.7797147  77.0925808
  81.1858749   1.5455927  29.4865537  81.9085312   1.1195089  29.0256190
  80.9047508   0.9026182  30.1375389  74.2706585  16.8729043  63.8982058
  74.3460608  17.4898803  63.1702709  73.3354187  16.8552256  64.1013002
  83.5879612   6.5960121  56.5216255  83.6905575   7.4043500  56.0193348
  84.1591835   6.7117143  57.2809315  28.2244392 104.4949616  58.4952259
  27.3165412 104.3218919  58.2462215  28.4943958 103.7122985  58.9756346
  18.3066646   9.0998429  33.5196614  17.7229682   8.5106170  33.0418134
  18.4026710   8.6948025  34.3816113  44.2805195  19.9631822  27.5623202
  44.7228098  19.1346848  27.3773837  44.9756432  20.6199980  27.5219774
  88.8387775  30.5542350  42.3202610  88.8802910  29.8122287  41.7169905
  88.1379509  30.3271341  42.9313993  15.5335136  75.7275549  72.4816847
  16.2832875  75.1328221  72.5006819  15.7542939  76.4115659  73.1138420
  54.1025352   1.0498749  19.8911214  54.9659586   1.1746229  19.4972074
  53.9801502   1.8185185  20.4482937  34.4142866  24.8344207  17.0361888
  35.2961707  24.7962427  17.4063981  34.3409848  25.7210350  16.6829586
  78.2477331  32.8387403  25.4661202  77.6889229  33.3133101  26.0815454
  78.4863138  32.0358109  25.9293842  42.2724724  41.9946527  75.3033304
  42.2556877  42.7611065  75.8764791  41.3548326  41.7336941  75.2254200
  61.6012573   2.8019637  58.0367661  61.9956112   3.4588325  58.6105585
  60.7646942   2.5923958  58.4520721  59.0387249  34.7628450  26.5501237
  59.4914913  35.2462339  25.8590579  58.8280582  33.9178681  26.1528039
  99.9677849  18.4236228  76.6299391  99.6981621  17.8325212  75.9269905
  99.3563938  18.2416570  77.3436022  76.3311672  20.8153224  18.4336889
  75.7097340  21.1290812  17.7767193  76.9397354  21.5441203  18.5550678
  62.3006721  79.6870056  52.4814796  62.9797263  79.4565240  51.8474579
  62.7432342  80.2578679  53.1095600  76.6799593   8.7897581  59.8612165
  77.3933458   9.0246040  59.2677832  76.6297626   9.5211661  60.4766464
  30.5574699 104.6219386  49.7306776  30.9006066 104.8114835  48.8574314
  30.9555764 103.7843879  49.9678564   5.2500625  78.3560983  56.7124319
   4.7835012  77.6078502  56.3400412   4.9891610  79.0972487  56.1657524
  85.4768276   3.2794929  26.5300941  85.7259560   3.1235877  25.6191278
  84.5222473   3.2087690  26.5328097  49.2870140  16.6864014  31.9265008
  49.8991680  17.1987391  32.4547124  48.4217691  16.9486976  32.2408009
  67.1977568  27.9687381  26.9760489  67.0859003  28.8905096  27.2085500
  66.7675018  27.4892402  27.6839972  39.0215063  17.1052217  78.7713242
  38.6321688  16.8168950  77.9457808  38.5613465  16.6008425  79.4422102
  22.0198814  12.8347766  39.4149089  21.4908306  12.6414359  38.6409807
  22.2411529  11.9757235  39.7744894  89.0219116  23.1152177  52.0218945
  89.2661667  23.2954383  51.1141014  89.8557186  23.0700493  52.4898291
  38.1113935  13.5887051  52.7349520  38.4414029  14.3372834  52.2380066
  37.3745656  13.9394140  53.2352734  72.4525642  29.0964556  34.4570279
  73.3297729  28.7351489  34.3297672  71.9092178  28.6374307  33.8164806
  63.9023590   8.6639166  61.4070654  63.4336424   8.9013779  62.2071552
  63.2117701   8.4933537  60.7665777  61.2004328  19.3456352  51.8221092
  61.2053156  19.0539646  50.9104443  61.5510654  18.6025822  52.3131895
  59.3958044  15.2310050  60.1375103  60.0504827  15.9054041  60.3186512
  59.2483664  15.2877581  59.1934395  45.3480430  84.6189443  35.6363463
  45.3748317  85.2554933  36.3507128  46.2666221  84.4761125  35.4082346
  54.5851898  17.1374905   6.1792827  54.7636271  16.4970136   5.4906750
  54.7580528  17.9848087   5.7689166  83.7129116  29.9345803   7.0062178
  84.4749069  29.3866324   6.8182099  82.9617691  29.3856883   6.7809874
  51.8097778  90.5778781  46.7143059  50.8985324  90.8469835  46.5983438
  52.3168178  91.3737515  46.5539026  51.2629318  26.1267996  47.7291775
  50.8849764  26.5257287  48.5129070  52.1794510  25.9717035  47.9575920
   7.7069273  97.4383938  87.3385609   8.3184996  96.7096817  87.2327951
   8.1826201  98.0747377  87.8724376  17.1135183  98.9688805  54.7734690
  17.7693267  99.6657363  54.7966528  16.8845315  98.8248364  55.6916475
  57.9668427  34.4592595  54.1953897  57.5258207  34.7659373  54.9876499
  58.6369085  35.1207113  54.0229750  86.3082314  37.6278067   6.9645053
  86.1635780  38.2974482   7.6330000  86.7563820  38.0896330   6.2559116
  36.6445298  96.0576126  26.8845558  37.5361581  95.9740207  26.5465593
  36.6711421  95.6277201  27.7393746  42.0894237  75.9243361  40.9124422
  42.2498031  76.6798798  41.4778328  42.4946542  76.1595050  40.0777483
  76.5531254   0.5315313  59.7480917  76.8425322  -0.3513505  59.9782991
  77.3359823   0.9564492  59.3976498  74.7131681   7.3872966  49.8950100
  74.6611118   7.2695869  48.9464998  75.4039812   6.7860472  50.1734161
  76.0325778  84.0828410  36.8715739  75.7904028  84.9613896  36.5787673
  76.8789459  84.1990772  37.3032928  17.0770736  84.1110793  61.9283438
  17.8431506  84.4064060  61.4362669  17.3238082  84.2241875  62.8462553
  12.0454927  95.3644130  32.7568865  12.5013871  94.5877281  33.0811524
  12.7398820  95.9181503  32.3999190  59.7095871  13.6916292  47.5122213
  59.0560436  14.3658674  47.6980162  60.0036192  13.8820744  46.6214323
  39.4170356  23.7093425  20.2826858  38.5657954  23.3684134  20.5572534
  40.0533533  23.1817865  20.7654047  31.9440742 100.5173308  73.0843878
  32.5337072  99.7633961  73.0723190  31.5886922 100.5576975  72.1965265
  61.0970354  25.4130173  33.6646223  61.5654087  25.3402328  32.8330231
  61.1563730  24.5389366  34.0502334  45.4518504  95.4346052  66.6792345
  45.6384368  94.6374837  66.1832380  45.9665198  96.1138723  66.2434196
  11.5589233  86.5382031   6.8700558  11.5619083  86.2594882   7.7857745
  12.3183532  87.1157495   6.7930037  87.4924088  29.9424005  15.3815293
  88.0170631  29.4351816  14.7620904  87.5667477  30.8460307  15.0746727
  74.0261889  26.1261868  27.9320979  74.0348387  26.7268348  28.6773348
  73.4605217  26.5519261  27.2878909  65.3820419  14.4382608  66.0606432
  65.3061628  14.3752813  67.0127535  64.5618725  14.8451746  65.7814074
  99.5498562   2.9157871  40.7650089  98.7752628   2.6490402  40.2699471
  99.1995430   3.3094081  41.5641212  34.1673350  34.9065328  61.5713978
  34.9483204  34.6370220  61.0880136  34.4806695  35.0695038  62.4610567
  30.8704181  94.4069961  36.5971541  31.1079068  94.8002342  37.4369097
  31.6969342  94.3481532  36.1179519  83.6443901   5.4516304  72.6468658
  83.1548023   5.8561307  73.3630466  84.5629215   5.5602902  72.8932953
 109.2904186  39.1990757  52.3907089 108.9999771  40.1098013  52.3412037
 110.0817871  39.1704893  51.8529701  54.7699118  16.9645071  58.8319159
  55.5370092  16.7715156  58.2928848  55.0728035  16.8430400  59.7317696
  88.5181713  32.1511364  37.0169115  88.3491135  33.0240750  36.6624713
  89.4518280  32.1549678  37.2278500  72.9228163  24.6464801  40.0673056
  72.5344229  23.8369417  39.7356033  73.8670063  24.5038390  40.0010204
  87.2895050  34.2773318  29.5971513  87.6995373  34.1618800  28.7399578
  87.3741055  33.4228492  30.0201583  74.8354197  28.3276367  33.4848189
  75.3513813  29.1164374  33.3180666  74.9913311  27.7733588  32.7201629
  56.3483143  39.4789100  15.4395497  55.8987522  38.6787486  15.7113266
  56.5124130  39.3556786  14.5046067  77.8374672  21.2385726  36.0391808
  78.2888985  21.1533856  35.1994276  78.5345173  21.1814666  36.6927028
   3.3295670  57.2769892  89.0787769   3.3539620  58.1858879  88.7795447
   4.1857329  56.9226965  88.8385943  90.6082726  28.6880279  58.5033274
  90.0125694  29.3538976  58.1598425  90.0333500  28.0364037  58.9046669
  75.4774714  21.8939996  32.4602652  75.0269842  21.4649057  31.7328238
  75.4108334  21.2711835  33.1840682  87.0244884  24.4707489  15.5711591
  86.9294834  23.8486242  14.8499334  86.1267281  24.6602559  15.8438265
  67.0939112   8.5554260  22.1797991  67.8996420   8.8873988  22.5758100
  66.6032887   8.1821394  22.9120398  44.8105521  98.4692345  39.6934962
  45.6558604  98.8002721  39.3900132  44.9085422  98.3968595  40.6429148
  77.7063894  13.2465041  64.7194815  77.0584393  13.7593353  65.2025938
  78.5294914  13.7177157  64.8486757  74.6992111  30.7187247  41.9268274
  75.4992008  30.9046388  42.4184418  75.0076723  30.4247618  41.0697031
  95.4315662  47.2542715  72.7206993  94.8507690  47.0723438  73.4594917
  94.8479748  47.3027086  71.9635296  36.8479037  26.5768909  41.7430019
  36.1552620  26.8171573  42.3584270  36.3929844  26.4395952  40.9120798
  38.1130691  74.7778836  48.9845848  37.4347396  74.7158042  48.3120918
  38.6171384  75.5556170  48.7452602  87.9135895  25.5354404  40.6230640
  88.6279488  25.2366447  40.0603485  87.1278954  25.4371858  40.0852251
  76.8835306  27.9471755  22.4192834  77.4013996  28.4365726  21.7801142
  76.0025120  28.3139396  22.3449707  68.1409693  23.8006210  78.9270115
  68.7667274  23.1906939  78.5363102  68.3283758  23.7678480  79.8651171
  87.3832226   5.5016005  49.0295553  87.6583099   4.6613443  49.3963385
  86.4575768   5.3793615  48.8186836  65.6323195  37.0537138  49.7369146
  65.5909920  37.6972175  50.4443264  65.6365347  37.5780463  48.9361095
  10.7294078  89.4945708  54.2692804  10.8955951  90.0567213  53.5125780
   9.9695296  89.8883740  54.6979237  70.8004999  22.0030141  46.2043858
  70.9100103  21.6060638  45.3402853  70.8618307  22.9448271  46.0448265
 107.0989799   9.8385096  43.3811045 107.4891472   9.1012317  43.8505983
 107.8356552  10.2536988  42.9325914  40.4431868  28.4037542  33.7650943
  39.6240997  28.6836219  33.3564305  40.5810165  27.5139046  33.4404373
  84.5957756   7.0004493  37.1854401  83.8986015   6.4446878  37.5337267
  85.3767204   6.7390764  37.6733446  98.8818932  31.5661931  52.0182323
  98.0629349  31.9916868  52.2722006  99.5278931  32.2725296  52.0152473
  24.8497005  96.9106493  41.5385723  25.6105609  97.2015450  42.0412636
  24.8568912  95.9572366  41.6233349  47.9989290  28.7165499  49.7215033
  48.1962109  29.2551732  48.9552164  47.0427370  28.6976910  49.7612572
  62.8012753  14.1359878  55.5807829  62.2783375  13.4094703  55.9198141
  63.1984043  14.5285022  56.3582468  83.1787300  65.5942488   5.2054214
  84.0892029  65.6419134   5.4969662  83.1940269  65.9432125   4.3142292
  98.2305622  50.8216524  35.2761793  98.2637691  51.7299414  35.5764127
  97.6265526  50.8367348  34.5337677  85.3371429  16.1140931  43.3251286
  85.8581638  16.8033659  43.7370396  85.0975037  15.5317950  44.0460539
  86.1806965  32.2483587  46.0479593  86.7427063  32.7873492  46.6046190
  86.5792465  32.3043847  45.1794863  59.3923664  14.5844412  30.7300282
  58.8195753  13.8323832  30.8801842  59.9604464  14.3126869  30.0091481
  62.2100258  17.2174549  38.7512970  62.2547340  17.9052258  38.0870652
  61.3661242  17.3546374  39.1816902 102.0080948  33.5335374  28.8596821
 102.1592999  33.3271694  29.7820616 101.1191559  33.2231569  28.6874032
  65.9128332  27.0946741  29.4756818  65.8936405  27.9054976  29.9840403
  66.2366295  26.4350176  30.0890660  79.3552256  51.2490797  33.6953831
  78.9912939  50.3741884  33.8308620  80.1722908  51.2484598  34.1940188
  86.3091278  36.7459702  40.3461027  86.0569191  37.6688099  40.3146029
  85.4782391  36.2710428  40.3631449  93.9789963  23.5696459  40.9535551
  93.7107849  24.3853045  41.3766336  94.8737812  23.4235692  41.2605619
  78.1524081  98.2294956  83.8416195  78.2887073  99.1760639  83.8008404
  78.8481898  97.8635839  83.2955074  51.0716534  34.6792722  24.4304633
  51.8398046  35.1626396  24.1262746  51.4269495  34.0041804  25.0086069
 104.4422817  10.4197502  24.2262769 104.6345043   9.9514753  23.4138727
 105.2310371  10.3112960  24.7576237  42.9416418  26.0756540  50.3207016
  42.6759100  26.9934726  50.2638769  42.5611210  25.7666016  51.1428499
  75.4839993  23.9273453  39.3695068  76.1489105  24.2772198  39.9625635
  75.4776287  24.5361590  38.6309028  72.3101282  35.3285456  40.4788923
  72.6935291  34.4610643  40.6081772  73.0623484  35.9056807  40.3473234
  71.6636181  31.9901204  27.5244117  71.1888313  32.5253820  26.8885612
  71.9744253  32.6153302  28.1791973  36.7875619  98.7554983  56.5190077
  36.6741891  97.8085319  56.4375639  36.7220636  99.0826020  55.6218195
  97.6144218  16.5246785  55.5608702  97.4592209  15.6165302  55.8205080
  96.9081497  17.0173287  55.9788561  78.2613754  31.1044002  14.1014779
  78.2500172  30.4850364  13.3717597  79.0922976  31.5701747  14.0073860
  67.9873228  12.9422402  47.6350546  67.8221083  13.7571287  47.1608257
  67.1419477  12.7147615  48.0221224 101.4286518   9.7757727  18.2944918
 101.7980003   9.0729761  18.8291728 101.2102413   9.3546832  17.4631000
  87.1147442  14.9795341  38.0393124  86.7394638  15.5471897  38.7124848
  86.3765144  14.7629917  37.4697900  70.5643845  31.5217447  13.3065033
  69.7393513  31.6450596  13.7759149  70.3212690  31.5575981  12.3813868
  90.9552193   2.0384033  37.6370072  90.0029659   1.9674121  37.7034092
  91.0994053   2.7441883  37.0066833  66.2201595  29.6248960  19.9021244
  66.8802643  29.0254498  19.5540464  66.7165518  30.2414227  20.4403830
 110.7357216   2.7546245  18.8960993 110.0561237   3.3652309  18.6105430
 110.3087711   2.2152375  19.5616853  57.5225687   7.4056733  15.8002138
  56.8177509   6.9229013  16.2319434  58.1427717   6.7300355  15.5261815
  70.0961781  66.3584900  38.1130648  70.8164024  65.7284212  38.0901837
  69.3914413  65.9001589  38.5707831  72.3149772  82.4294797  54.3964100
  72.2449203  82.4449578  53.4419012  72.4033923  83.3495918  54.6450281
  78.0239296  29.3651843  12.2353065  78.6901808  28.6881542  12.3534966
  77.3017740  28.9163995  11.7956233  68.6750884 102.8502450  45.7530832
  69.0201087 102.8144470  46.6452265  67.9288287 102.2508562  45.7606554
 102.7619267  19.1500795  37.1406984 103.4862614  18.5455632  36.9790697
 102.3969173  18.8677490  37.9793239  33.5249849 100.2001295  50.1366615
  34.3411250 100.6422344  50.3705215  33.2786603  99.7185544  50.9263754
  90.1007748  52.1605635  41.7736197  89.2505646  51.7344332  41.6650534
  90.6192303  51.8536472  41.0298204  84.5362759  31.9054270  56.5521383
  84.6651077  32.8407025  56.7099142  83.8161182  31.8656611  55.9228420
  50.5180979   5.1729363  12.6275241  50.1262331   5.5868226  11.8585157
  50.2946949   4.2462277  12.5407267  79.7146034  28.4304333  28.0320334
  79.3285561  27.6844263  27.5730443  80.6034088  28.4930158  27.6822495
  42.1560712 103.4680956  25.6677270  41.9483466 104.2385210  25.1390243
  41.3550134 103.2935742  26.1617732  75.2460194  30.2075386  53.8265514
  75.4213762  30.4943585  52.9303265  76.1045456  30.2059460  54.2498255
  65.3000827  77.9967800  35.7093406  65.1636882  78.7638751  35.1532888
  64.5315833  77.4479643  35.5530381   3.5698491  31.0744643  48.2140017
   4.3357936  31.3320684  48.7270308   2.9912871  30.6470513  48.8455200
  82.4120712  21.5822315  37.0970345  82.7289009  20.7059813  36.8778658
  83.0882072  21.9452477  37.6691294  88.1875515   4.0933087  17.2862983
  87.8295326   3.8650677  16.4284170  88.2372093   3.2599315  17.7545369
  76.7349100  45.6358051  30.8492684  77.3412609  44.9120140  30.6921148
  76.5131378  45.9565687  29.9751043  55.3167439  10.4310238  58.9287519
  55.3309679  10.4365003  59.8858309  54.6568012  11.0838604  58.6952829
  41.7522330  83.0032984  39.1084385  42.5965257  83.3407990  38.8092828
  41.1112065  83.6296717  38.7723231  74.3302441  35.5499601  42.7359200
  74.5681477  36.0564137  43.5125399  74.3791771  36.1786199  42.0157623
  42.3565674   9.6454030  15.5225372  41.4143038   9.8084569  15.5647969
  42.6965857   9.9903148  16.3481593  74.5665026  25.9960437  35.1400900
  74.7865105  25.3608370  34.4586682  74.7183466  26.8481231  34.7312689
  80.7917023  13.0811417  65.2080154  81.0012627  12.5656211  65.9868288
  81.5277195  13.6861622  65.1160765  66.8757486  22.7374697  74.5025873
  66.7147398  21.8652177  74.1427517  67.6840401  22.6431894  75.0065756
  72.5046492   4.1860935  19.9539053  73.1615543   4.7872460  20.3050828
  72.5271940   3.4342569  20.5459070  39.1939402  25.0314617  24.3115449
  38.6263418  24.8034382  25.0477982  39.8376298  25.6345987  24.6831918
  33.8040729  90.7141737  57.1992302  34.3156285  90.0326124  57.6351404
  33.7405820  90.4214445  56.2901068 107.5062943  11.1808562  25.0895953
 107.4372673  10.4727781  25.7299805 108.3912373  11.5258110  25.2083993
  52.7587700   5.7027113  41.7168379  52.9952478   5.6177914  40.7932043
  53.1692600   4.9483368  42.1395063  89.4138432  23.8793254  58.7114811
  89.3827724  23.4404564  57.8613901  90.2655220  23.6371160  59.0750837
  35.1372428 103.4828562  43.7500334  35.1163526 104.1204150  44.4636965
  34.7983356 103.9600057  42.9926014  82.7631760  24.1411757  47.2764111
  82.6560402  24.4070792  48.1896782  82.8442764  23.1880951  47.3123884
  87.5098515   2.1884967  40.8116436  87.4645615   3.0409342  40.3785992
  87.5944710   2.3967190  41.7420816  94.0492821  27.9250932  50.1985455
  94.5658588  28.1772852  49.4331789  94.6858978  27.5403738  50.8009958
  86.0873413  20.1107121  64.7202587  85.7695580  21.0106564  64.6471643
  86.7204762  20.1378012  65.4376459  25.2199264  96.8754915  10.6673372
  26.0354800  96.8158666  11.1648822  24.5820375  96.3944313  11.1945069
   9.2322440  97.0418081  36.9887042   9.5810838  97.6312420  37.6573658
   9.9085994  97.0205626  36.3117099  82.4264717   6.2255037  51.7435884
  83.0305386   6.5586501  52.4071741  82.7933502   5.3787863  51.4892149
  81.8592834   9.2582750  53.3759403  81.1658478   8.8939476  52.8257990
  81.3960171   9.7812307  54.0302658  49.7761345  42.4693871   1.8771377
  50.5909061  42.9478455   2.0302902  49.3756151  42.3950100   2.7433270
  55.5607510  21.5583062  45.2502203  56.0924578  22.3536611  45.2197123
  55.4374552  21.3883018  46.1840963  60.2086306   9.2912519  15.5471706
  60.2116013   9.3979138  16.4984035  59.4242907   8.7731045  15.3667057
  59.9807739  11.8211460  55.7787323  60.0424814  11.4287174  54.9078608
  60.8715582  11.7748153  56.1259842  75.0193453  25.2672410  69.7249126
  75.1846933  24.4031763  70.1021147  74.5933104  25.0853729  68.8872671
  67.6084423  19.2590606  36.8894029  67.7479887  19.8806310  37.6038313
  66.8628120  19.6139836  36.4053535  40.7003398  97.3065052  52.5379992
  41.6142507  97.2877601  52.8219795  40.2459760  96.7329112  53.1550694
  76.9632769   4.3534210  27.9474616  77.5541258   3.6742729  28.2728672
  77.1731329   4.4275010  27.0164919 101.5559101  59.7434521  33.3853793
 102.2307205  60.1041985  32.8102922 100.7510853  59.7908592  32.8693867
   5.3133435  97.9998389  27.1914029   5.2429004  97.7260247  26.2769103
   4.8566671  98.8403777  27.2256064  62.9999113  38.0783391  16.7180991
  63.8557768  38.4355068  16.4811122  62.8509712  37.3744535  16.0867584
  81.6170597  54.7201824  42.7275372  81.9737053  54.0392971  43.2980061
  80.6974316  54.4801331  42.6140690  83.4070110  32.7058625  46.6219425
  83.1782436  32.4408770  47.5128317  84.3444347  32.5255203  46.5516758
   8.0131523   1.7938264  46.5938330   8.5872070   2.0317253  47.3219061
   8.5954849   1.3855430  45.9531975  16.2688966  72.9642526  54.4812441
  15.9374995  72.0662538  54.4788074  15.9206243  73.3458940  55.2870274
  47.5527382  25.2782559  55.1804256  47.8800440  24.4548559  55.5425215
  47.3550415  25.8154702  55.9475946  55.8398533   3.8870814  39.1069555
  55.8737850   2.9757255  38.8162494  56.0802698   4.3948084  38.3319426
  60.0526237  22.7241230  31.1475134  60.7916546  23.3301973  31.0951209
  60.4364777  21.8633413  30.9803438  60.9184980  33.2357574  65.9144831
  60.1134205  33.4836841  66.3690329  61.4405060  32.7868843  66.5795040
  43.8168192  32.1288180  74.6266651  44.7080088  31.7831659  74.6770573
  43.2802725  31.3736057  74.3858290  45.2064796 101.6962150  65.8162498
  45.8984943 101.3657678  66.3891029  45.6410117 101.8437148  64.9762154
  82.8597736  54.3946791  31.4677668  83.0731392  53.6287212  30.9348345
  81.9642925  54.6199799  31.2156248  67.5539684  12.6748645  58.6795092
  66.9062805  12.8630447  59.3587160  68.2408476  12.1857440  59.1324854
  68.2846165  12.0206952  42.4022865  69.0780020  11.8957973  41.8815422
  67.7665854  11.2318063  42.2425032  78.1228876  22.8535342  60.0224829
  78.6305189  22.0780468  60.2615643  78.7466049  23.5768867  60.0855350
  94.5478630  21.9464970  14.7507811  93.6368179  21.6609979  14.8193920
  95.0328732  21.1499739  14.5350182  84.3964195  27.1938586  55.4095078
  84.6542645  26.6572380  56.1590338  83.7829590  27.8328943  55.7721853
  89.1813469   2.9395473  69.4951630  90.0496864   2.5467134  69.4062614
  89.3021011   3.6466348  70.1289463  80.2136803  25.3457618  16.1344707
  80.8559608  24.7106242  16.4511907  80.4661083  26.1697388  16.5510964
  61.2160921  36.7492247  28.5836005  60.2649069  36.8054152  28.6748171
  61.5347719  36.6148520  29.4761348  55.1495838  26.1501074  39.1543698
  54.8891592  25.2325153  39.2345881  56.0517263  26.1161041  38.8362241
  77.5492907   3.8693377  42.2356367  78.2145596   3.7991011  41.5510082
  77.9003906   3.3573458  42.9642105  66.7854881  41.8919849  22.8843951
  66.8355656  41.3858700  22.0734882  67.5473070  42.4706745  22.8529811
  73.4210443  22.5036669  43.5603333  73.2738113  21.5671468  43.6925602
  73.7199783  22.5734615  42.6536894  71.4097452   4.0757006  50.7389593
  70.8988047   3.8918310  49.9506950  71.7656851   4.9524516  50.5945778
  15.4527847  19.4999373  36.3568568  15.0427524  20.1244998  35.7585025
  16.1729900  19.1221035  35.8520961  73.3492374  19.7648644  38.5481715
  73.0284691  19.6613014  37.6522851  74.0214014  20.4434156  38.4849691
  66.1200619  11.3648486  52.9912376  65.2869844  11.6770315  52.6380253
  66.6776037  11.2479699  52.2220087  56.5446186   2.4778771  52.3769236
  56.2008142   1.5881132  52.2972298  57.4691963   2.3588243  52.5942183
  52.7712154   9.7671151  42.5920868  53.0483866  10.6637073  42.4035978
  53.5796165   9.3104196  42.8247786   4.2920581  16.3242877  43.2386446
   4.7483817  17.1580994  43.1256962   4.2482463  15.9538937  42.3571014
 104.7561932  25.0842929  70.2330256 104.7381210  24.1453028  70.4179621
 104.2469406  25.1797295  69.4281721   6.3613982 103.9769914  83.4057426
   7.0120998 103.5212703  82.8717518   6.0510535 103.3141280  84.0226078
  70.6052108 104.7643693  45.6624746  71.4584918 104.4144576  45.4061651
  70.0059409 104.0232781  45.5736303  84.7798634  28.7174749  58.3125925
  85.4792690  29.2297649  58.7183380  85.1640606  27.8509450  58.1793642
   7.8200046  42.2568130  47.3045635   7.3681728  41.4130831  47.3186064
   8.0488578  42.3906708  46.3848162  85.9206009  30.0619912  33.3331513
  85.1727962  29.4792986  33.2008958  86.0749817  30.0429392  34.2776275
  59.0294600  24.8910356  55.9071207  58.6520195  24.0704703  56.2240505
  59.4011021  24.6696806  55.0532341  57.3900318  20.7507277  26.6435194
  58.3102179  20.5030394  26.5532708  57.4148560  21.6380095  27.0017767
  56.6817856  17.4876928  44.0621042  56.3684416  18.0782104  44.7471857
  56.0500097  17.5899792  43.3503246  60.1135778  30.2097583  19.6510148
  60.4933023  30.7002854  18.9220262  60.8590126  30.0032711  20.2148581
  53.8071819  95.4621688  29.5726395  53.3261104  96.0664818  29.0073013
  54.5533176  95.1812306  29.0429425  65.5025911  26.5294600  57.4415636
  66.0843611  26.3784337  56.6966009  65.0591612  27.3525119  57.2361612
 103.8273525   7.0452064  56.6406488 103.8799572   6.3543046  55.9802580
 103.0315208   7.5285631  56.4187241  79.6629715  23.8180351  50.6445360
  78.8969612  24.3126822  50.9357214  79.5209455  22.9345441  50.9843922
  93.3866501   7.2862017  82.7143002  93.0447674   7.0530874  81.8511677
  93.4172916   8.2428986  82.7093983  51.8545580  29.0154386  14.3597257
  51.5739012  29.2309046  15.2491283  52.3132086  29.7991014  14.0568352
  90.0027084  24.2773724  39.4335198  89.6864510  24.5679021  38.5780621
  90.8594990  23.8904881  39.2533755  18.0448861  94.1930917  14.0823174
  17.8883071  94.4603208  14.9880230  17.6915116  93.3050421  14.0301156
  88.5856819  49.0239382  41.5269089  88.4724712  48.0873013  41.6885519
  88.0439758  49.2014837  40.7579708  89.8703003  13.4190810  31.8508506
  90.6401062  13.3321834  31.2886405  89.4509029  12.5593090  31.8172622
  37.4801517  21.1363053  34.1361666  37.8327107  20.8749366  33.2855082
  38.0079532  20.6540227  34.7726083  57.0263572  97.5283710  56.0476780
  57.5637622  97.4346510  55.2611351  56.6635986  98.4120182  55.9860086
  93.1952381  18.8035452  27.4269748  92.7563381  19.3904793  26.8112540
  92.9571629  19.1408455  28.2905602  59.1780519  16.0686815  27.2170043
  59.8400021  16.5328145  27.7294874  59.6207714  15.2749348  26.9166756
  68.0435324   2.3671021  30.1195407  68.4740639   1.6026351  29.7368288
  68.7371159   3.0231908  30.1882839  14.9294229  96.4134816  13.9164877
  15.8598085  96.3289795  13.7079799  14.5996947  97.0532629  13.2854617
  81.3346954  99.5724151  59.7865963  81.7634769  99.0335051  59.1218042
  80.8004756 100.1895500  59.2866135  58.1809282  16.5741432  32.2031164
  58.6819124  15.8475280  31.8326068  58.3798027  17.3172438  31.6334820
  85.3310776  26.5097523  31.9288731  84.7573566  27.2739410  31.9844532
  86.1698055  26.8142271  32.2753787  80.7945628  85.9595624  37.7516675
  81.3314719  86.7469743  37.6625633  80.7329841  85.6098059  36.8627858
 102.8837972  87.7695588   7.1716424 102.3074965  88.4925345   7.4194547
 103.6190896  88.1910638   6.7267629  74.3046470  89.2554668  14.2215681
  73.5429473  89.7413508  14.5377350  74.5973106  89.7433177  13.4517717
  69.2289877  25.2126908  57.3528576  70.0902653  25.4975057  57.0473862
  68.9067745  25.9452820  57.8779507  83.0599880  12.6516628  30.9589386
  84.0121651  12.5933909  31.0376334  82.8408146  13.5062087  31.3303518
  73.1798267  16.7524946  19.2700565  73.5449314  15.8678186  19.2533040
  72.8177643  16.8788266  18.3930278  97.3661804  24.8813248  27.3684549
  98.1820583  24.4923258  27.6835179  97.5705910  25.1823258  26.4831042
 108.1646804  88.6172715  19.2212510 107.5625447  88.5924486  19.9649227
 108.5665277  89.4848159  19.2672920  84.5160389   5.2323377  34.5900822
  85.4699135   5.1973718  34.5184326  84.2144108   4.4287395  34.1664290
  34.7997713   5.3035831  26.8656993  35.2731395   5.8490139  27.4939179
  34.0471745   4.9721658  27.3555923  72.5336170   2.2375324  84.4732666
  72.5557137   1.5885305  85.1764965  72.2176313   3.0367380  84.8947525
  36.8514152  91.7091099   8.1616646  35.9082217  91.6824058   8.0007190
  37.2386928  91.8358329   7.2955298  42.6862760  69.9386159  24.9612260
  42.7208944  70.0067798  25.9153676  42.1786590  70.7016221  24.6848536
  51.8391609  26.6190553  66.1710978  52.4379492  27.3348475  66.3840055
  51.7547655  26.6527915  65.2182245  11.6340156 100.9397489  57.6311255
  11.7479272 101.8630413  57.8564882  11.1460395 100.5718255  58.3678389
  64.3366289  19.4650769  31.4602232  63.7826681  18.7055826  31.6405773
  64.2919731  19.5739257  30.5102801  73.4848213  19.6901488  43.4950113
  73.3902407  19.0699875  44.2179823  73.8331604  19.1659570  42.7738237
 101.1441326   9.8029536  75.3353167 100.2847481   9.3962836  75.4462624
 101.3717365   9.6361989  74.4206476  50.1324177   1.9698137  31.4337993
  49.2528772   1.5959093  31.3804841  50.0553179   2.8247237  31.0102248
  90.8790493  64.4649887  48.6312723  91.7100716  64.0003300  48.5326338
  90.8895206  65.1243925  47.9375076  63.1717825  15.7705474  88.0720615
  62.6357889  16.4967072  88.3908653  62.5443077  15.0701606  87.8932858
  72.2005939   9.4387847  16.9549370  71.8524837   9.8662692  17.7374375
  71.4263916   9.1155207  16.4941311  21.7432019  37.6389173   9.0129205
  20.8435818  37.8357462   8.7518140  21.6769119  37.3963074   9.9364873
  88.2536788  98.6000345  38.9929509  88.7480159  97.7864591  38.8931751
  87.3600478  98.3700648  38.7384295  24.0903846   7.4254727  38.8028312
  24.8075572   6.8249190  39.0058780  24.1408721   7.5469500  37.8547144
   7.1529952   0.5956282  58.1488800   6.2852184   0.6716593  58.5456181
   7.2446433  -0.3361955  57.9500389   9.8668428  78.2836286  65.1017284
   9.2908139  78.5512200  65.8178377  10.7385345  78.2490555  65.4956722
 106.8597889  15.0274384  33.2686186 107.4532032  14.6588755  32.6142073
 105.9947109  14.7045755  33.0163479  43.4719939  74.8690454  55.3516483
  43.8670917  74.1689268  54.8320723  42.8204627  74.4256536  55.8949137
  79.0613747  59.8339415  40.3357553  79.5433378  59.3665791  41.0180473
  79.4626665  60.7026148  40.3113031  79.3044806  24.0931535  22.6783776
  79.4625092  23.5465550  23.4481120  78.6347961  24.7162008  22.9604578
  30.9222865  13.5804486  71.4885855  30.3651285  12.8658724  71.1800623
  30.6843758  14.3252122  70.9363556  77.0172262  15.9159243  37.2465134
  76.0980558  16.1730206  37.3190403  77.0737553  15.4637659  36.4047360
  26.7381568  90.9134785  24.5855832  27.5975366  90.6379417  24.2665553
  26.8626685  91.8240408  24.8531771  45.6524611  12.0310652  43.7618065
  45.1410246  11.2624228  43.5091066  46.0912609  12.3024285  42.9555511
  87.3180866  36.9221592  60.6470537  87.6600647  37.4152184  61.3928270
  86.5788841  36.4298701  61.0040712  14.9557014 101.1421285  33.5247183
  15.1705499 100.2203110  33.6672831  15.8006473 101.5633870  33.3671021
   0.3760234   4.1021618  58.0109930   0.7104198   3.6982596  58.8117933
   1.1590854   4.2980516  57.4965239  90.9026146  25.7022715  41.7096186
  91.7425156  26.0899734  41.4636612  90.6208992  25.2258039  40.9286880
   5.7568923  27.0514560  35.3744531   5.2353374  26.4758611  35.9338355
   5.8175556  27.8712964  35.8647704  61.5048790  52.6555681  12.5396919
  60.9400320  52.8548431  13.2863295  61.2180042  51.7907381  12.2464263
  56.6523933  16.8602598  51.3526249  56.0813904  16.1068749  51.2022972
  57.5021553  16.5899467  51.0046768 104.0797997  44.7327757  21.6739726
 104.4679451  45.4332829  21.1496997 103.9136219  44.0285683  21.0473061
  32.4422733  42.6607084  56.1216116  31.6855995  43.0678892  56.5433598
  32.9981891  43.3964825  55.8650494  59.8985624  47.2022867  19.4061387
  59.8588610  46.6108894  18.6545348  60.7957745  47.5357771  19.4013691
  43.0440612  96.8418977  47.9405499  42.8666778  95.9415302  48.2127762
  42.5017924  97.3782310  48.5189342  73.0577374  27.6955175  26.0549545
  72.4728680  28.1003881  26.6954541  72.6474285  27.8748870  25.2089596
  88.5367489  15.6360054  42.7217722  89.3410587  15.6267846  42.2028971
  88.2207584  16.5372729  42.6577806  53.2909250  23.6587119  64.2543936
  53.0129623  24.3522596  63.6560917  53.2806206  24.0697145  65.1187992
   6.5390006  40.2435207  68.5400343   7.4594871  40.1699972  68.7920952
   6.4895240  41.0646963  68.0506897   1.2560073  55.3267193  25.5911040
   0.7746211  55.8330345  26.2454247   2.1566764  55.3118801  25.9148455
  86.4535904  43.0687761  42.6462698  86.1221886  43.6990309  42.0065928
  87.2913456  43.4341764  42.9306650  77.6058340  27.9485416  40.9539175
  77.9401016  27.4599576  41.7061043  77.7796650  27.3808217  40.2031136
  86.8220806   5.3632712  56.1907434  87.1832180   5.1704043  57.0559645
  87.4059963   6.0309255  55.8308697  63.6077495 105.1484362  37.4682593
  63.3911987 104.2162886  37.4891734  64.1964050 105.2743274  38.2124829
  78.1264973  30.2153516  26.3568735  78.7642527  29.6959686  26.8465114
  77.3021030  29.7394800  26.4576459  80.8428574  39.7564268  41.9388819
  81.1558819  39.2864442  41.1659908  80.6832314  39.0709829  42.5876665
  74.9084711  50.7915401  33.7003422  74.9118233  50.8341646  34.6565866
  74.5546293  49.9248934  33.5004592  76.0775328  41.1464405   8.4094357
  75.4717016  41.7557430   8.8312793  75.5191565  40.4405117   8.0836862
 109.9762821  36.4234257  35.4051900 110.0543785  35.8372998  36.1579132
 109.2202950  36.9743872  35.6080627  74.3272352  47.6866961  41.4917231
  73.7296724  47.2789621  40.8649015  74.6285963  46.9629812  42.0409489
 103.5745144  65.4093981  64.6094751 104.0100002  66.2535715  64.4913244
 103.6939240  65.2060604  65.5371761  72.7713962  80.1886955  65.8867550
  73.5037418  80.3827206  65.3017330  73.0637641  79.4309751  66.3933277
 103.2546711  12.9605627  55.3142595 103.1101322  13.8708758  55.0560570
 103.9034367  13.0108488  56.0162687  80.2741718  41.1682558  54.7878981
  80.4799461  41.2404585  53.8558722  79.3274260  41.3011932  54.8351479
 104.3147849  96.4712441  89.6033574 103.4960936  96.6159784  90.0777253
 104.0395163  96.1902582  88.7307147  77.7157974  34.2521572  37.0109534
  76.8000364  34.0741277  37.2252440  78.0347443  34.7802329  37.7428269
  15.7590190  72.0341110  32.3498726  16.2173263  72.8165531  32.0433187
  16.3256256  71.3075638  32.0903993 101.0226345  23.5580564  36.7796898
 101.6336823  23.0260468  36.2699723 101.3413906  23.4926391  37.6798820
  78.6167240  38.8370943  52.8023720  79.1099215  38.8488317  51.9820976
  79.0034389  38.1195021  53.3041143  89.0628433  23.7909293  61.5895605
  89.0050793  23.7796998  60.6341743  88.2828426  24.2690444  61.8710661
  88.3444977  20.5993700  57.9510164  89.0959930  20.4814577  57.3699903
  87.6262379  20.1472735  57.5083590  86.6056156  23.8212419   7.9358017
  86.1228943  23.1288886   8.3873022  86.0034180  24.1311312   7.2593725
  77.0288086  36.6915631  44.7631645  76.1124229  36.8726659  44.9721622
  77.4795628  36.7331982  45.6065607  88.4671974  49.7420120  34.3221760
  88.0619907  49.7318649  35.1893163  88.7530708  48.8395023  34.1808081
  91.8094444  41.3418388  58.5722208  90.8835030  41.4561653  58.3582401
  91.8473625  41.4266777  59.5249033  84.4463444  21.9411540  56.0296392
  84.9553871  21.3215637  56.5523386  83.6914349  21.4361000  55.7275486
  84.7617912  40.3042650  24.9515772  83.9959240  39.9847865  25.4286671
  84.4328690  41.0407829  24.4362307  78.8354731  18.8220811  29.7790360
  78.9686632  19.1544700  28.8913369  78.3767843  17.9908204  29.6572232
  26.9261066  11.0983706  50.4141378  27.1758834  10.2431703  50.7641029
  25.9716121  11.0622430  50.3519917  77.5593233  23.8947320  54.2538404
  77.1724987  23.7329245  55.1143122  78.2958174  23.2853746  54.2039108
  11.5001955  51.1595316  82.3838917  11.2574282  50.5736327  81.6669390
  11.6679850  50.5759029  83.1237934  57.2590442  96.5678552  44.4745827
  58.0163093  96.8073300  45.0088406  57.0978828  97.3375765  43.9288807
 103.0684662  30.8523941  57.6313925 102.9385567  30.9237075  58.5770512
 103.1097126  31.7587233  57.3262739  70.3829241  76.0020208  39.7377205
  69.9982452  75.7182503  40.5670166  71.2384510  76.3567638  39.9795008
  48.6881876  17.8545272  48.9557362  48.2556963  17.4056315  49.6821451
  48.1338453  17.6717126  48.1971073 102.4599171  25.4264164  44.4009781
 102.1616364  24.8470020  43.6998749 101.6589355  25.8302569  44.7350025
   4.5573131  35.5086279  54.5625830   5.4638568  35.3914356  54.8466253
   4.0650455  35.6261301  55.3750420  85.0581646  16.5756810  50.3682137
  85.9321690  16.3639855  50.0402975  84.8730659  17.4449730  50.0128222
 101.9866848  12.9010880  64.9436045 101.5096760  12.3485994  64.3243742
 101.6085434  12.6867044  65.7964087 101.9258022  21.0925341  38.8458133
 102.2039604  20.5234647  39.5634651 102.3532295  20.7273364  38.0711055
  72.4365044  64.0357924  10.5034304  73.3174992  64.4075155  10.5470538
  72.4347115  63.5177517   9.6985310 101.2159824   4.8091483  36.2566519
 101.1794949   5.4159337  36.9960523 100.5220795   5.1066190  35.6682301
  89.5351219   9.2477536  28.8947201  88.6117935   9.0180117  28.7902665
  89.6729088   9.9703443  28.2822585  96.1766148  18.0922031  53.2057285
  96.9094276  18.7063420  53.1604958  95.7750702  18.2608175  54.0581131
  69.6589899   4.2253748  47.1260214  68.8522625   4.1194329  47.6302052
  70.2517891   4.6892840  47.7172995 103.0016422   0.9451725  35.1514816
 103.0582619   1.7018938  35.7349181 102.3668671   0.3652923  35.5722427
 106.9337654  33.4288907  37.9490948 106.7472363  32.7269459  38.5725641
 106.1058044  33.9020514  37.8663921  69.8512125  31.5654206  54.6618414
  70.6084538  31.2245941  54.1857576  69.7371054  30.9605813  55.3949022
 108.5752964  24.5478511  56.0681152 109.4415379  24.2959261  56.3881063
 108.1633472  23.7213826  55.8161545  86.3708496  30.0847101  43.2192373
  86.3991356  29.1752481  42.9220676  85.5465412  30.4248452  42.8713131
 100.4855537  38.3099699  60.8154345 100.2057552  37.3946667  60.8024120
  99.6824265  38.8035870  60.9814453  65.0476408  31.1093259  31.1592031
  64.2197371  30.8920074  31.5876698  64.9351454  32.0133042  30.8652616
  86.2954044  18.9029717  54.3021584  86.6322231  18.0248773  54.1240120
  86.7256737  19.4606042  53.6539698 108.2869720  41.8038368  28.8448405
 107.9091454  42.3064804  29.5665240 107.8234482  40.9666586  28.8675809
  87.3106098  16.7479420  17.3115087  87.8351116  17.5485730  17.3005712
  87.9419136  16.0504305  17.4880409  72.3487711  57.8381634  17.2236419
  71.6921520  57.7381372  17.9129028  72.6260185  56.9437122  17.0253336
  16.1101047  39.1056609  51.5576792  16.6884319  39.8657012  51.4935398
  15.3620807  39.3263721  51.0027266  67.8857131 100.1854524  57.5969601
  68.7578769 100.5796981  57.5854111  68.0100150  99.3416730  58.0314922
  67.8023434  80.8108139  48.4134912  68.1653690  80.6629276  49.2867470
  67.9044247  79.9706984  47.9662514 106.7954540  21.3002753  32.9018092
 106.8007278  20.9664392  33.7988925 107.3883533  20.7184362  32.4262381
  14.0223113  36.2484670  62.8616619  14.1468040  36.7317128  63.6784887
  13.1362430  35.8922720  62.9267597  66.9875765  37.0852423  14.8762679
  67.9336452  37.2264099  14.8408711  66.6233540  37.7578306  14.3007684
  83.1769943  18.3385241  57.2535181  83.3521080  17.6311147  56.6329241
  82.3961926  18.0530918  57.7279758  95.6797694  61.5739131  86.9221762
  96.0611772  61.6994190  86.0532645  95.9977769  60.7154142  87.2016109
  88.5603428  30.6534910  49.1444826  89.1946411  31.0948539  48.5796022
  87.8414059  31.2793493  49.2320633   3.2560054  35.4860473  39.2089367
   2.5267307  35.9837055  39.5786953   3.4391300  34.8094201  39.8607612
  96.0300159  36.4307761  58.4455490  96.6263771  36.8925333  59.0349245
  95.1559258  36.6779661  58.7473536  83.8876534  35.9561348  36.4313507
  84.4094372  36.0229230  35.6316543  83.7178135  36.8639016  36.6830373
  75.4296637  20.3411674  34.6340609  76.1656189  20.7075715  35.1243138
  74.8101282  20.0593257  35.3070927  83.5495853  26.8511868  39.8983741
  83.2701492  27.7654815  39.9453902  83.7829781  26.7190146  38.9795208
  71.7374659  36.4386749  17.0131338  71.9547033  35.5448341  16.7483962
  72.3238707  36.6201520  17.7475941  59.8322105   9.6813017  30.3687501
  59.6588230  10.6217432  30.4104471  59.0018463   9.2968863  30.0877714
  91.1461544  21.7852092  28.5579371  91.4143181  22.6956868  28.6818528
  90.8275032  21.7500114  27.6560211  86.1268711   8.1846613  35.3604007
  85.6550026   7.4374616  35.7281828  86.2320328   8.7874073  36.0965180
 110.3585243  51.9957495  61.4237356 110.8043671  51.4476585  62.0695305
 110.7145882  52.8726149  61.5671110  53.0318732  99.0846685  70.5678558
  53.5379310  99.1672311  69.7595739  52.3276801  99.7264854  70.4761600
  92.8126717   6.7224872  50.2534819  93.3739853   7.4534327  50.5120945
  91.9572544   7.1217597  50.0951290  11.0633842  20.2353573  42.3206091
  10.1730720  19.9607301  42.5400686  11.1750213  19.9771094  41.4056873
  89.1928196  35.8302140  44.1281176  88.2942104  36.1516643  44.0546370
  89.7266006  36.5183687  43.7309313 102.7807331  28.3839011  56.4033651
 102.9561424  29.3165779  56.5281773 103.1956482  27.9595566  57.1543694
  66.1404800  17.5805271  17.1611047  65.8080626  16.8084097  17.6188862
  66.1222363  17.3366308  16.2356794  78.2125902  44.5696974  53.4894371
  78.1142807  44.5147038  54.4399834  77.3598576  44.8727131  53.1775808
  96.3835716  28.9152765  26.0418248  97.3230839  28.9595199  26.2195849
  96.1691093  29.7718835  25.6724143   2.5620452  57.8779268  47.8741550
   2.7685920  57.9314804  46.9410419   2.6462451  56.9480705  48.0851221
  74.0185165  33.7876153  48.8447714  74.6351051  33.1039095  48.5828590
  74.0204763  34.4049382  48.1132412 100.8599186  30.4294991  53.6981058
 100.0798607  30.7123065  53.2208633 100.6407452  30.5689716  54.6193790
  78.3246660  16.1714005  50.4589319  78.7333822  16.9890499  50.7428885
  78.4034109  15.5892074  51.2146330 101.4076900  28.0020475  33.3519244
 101.8031597  28.8734651  33.3302712 100.7852650  28.0394697  34.0781641
  56.6966963  33.7430573  51.8118906  56.3920784  34.6224976  51.5882349
  57.1167803  33.8450670  52.6659107  99.9781609  39.7619534  25.9064102
  99.3723774  39.6509576  26.6391706 100.6074238  39.0475082  26.0055375
  77.5824976  42.4068213  33.3336091  78.0838823  41.6027451  33.4689164
  77.2270393  42.6156664  34.1974759  72.7979655  66.3279549  24.0739989
  72.2897048  65.5170075  24.0577292  72.4139209  66.8652621  23.3811450
  89.2127895  61.7042446  12.4010491  90.0844002  62.0289612  12.1750307
  89.2108250  60.7950830  12.1016228  85.9723949  26.7605543  25.9192848
  85.2905560  27.2798014  25.4930139  85.4951477  26.0701609  26.3795209
  96.4460945  34.0281796  47.9667807  96.1779690  33.7902737  48.8543272
  95.7118988  33.7593031  47.4146080   4.8957340  87.3512650  56.0070562
   5.1095191  87.8088474  56.8201685   5.5178253  87.6969910  55.3669786
  77.6006317  63.3117199  21.3077569  76.7742777  63.4374714  21.7741942
  77.4132109  62.6231050  20.6698537 100.2873707  27.2825813  55.7154179
 100.2565002  28.0466819  55.1397181 100.9318542  27.5127959  56.3846493
  60.5701733  25.2701783   6.7891759  60.8313084  26.0893273   6.3684189
  59.6254253  25.3568172   6.9163853  98.3450127  46.1230707   1.1246968
  97.5995731  46.1284494   1.7251250  98.4720325  47.0429087   0.8923149
  92.9259109  24.6748376  64.6636820  93.8394547  24.5285153  64.4182110
  92.9229832  24.6202135  65.6193161  65.0401449  21.4208150  41.1521721
  65.2929831  20.5252790  40.9278536  64.0875578  21.4312363  41.0589123
 106.9745445  17.4557686  31.5179515 106.4184380  17.3386157  30.7477212
 107.1057224  16.5697777  31.8556547  55.3020048  37.6039720  64.7129536
  54.6543121  36.9153261  64.8629332  55.1761913  37.8559780  63.7981319
  74.7702837  40.0226688  54.5822906  73.9563417  40.4516125  54.8463821
  74.5465088  39.0932441  54.5340919  89.3318939  26.6830611  65.0684404
  89.0040398  25.8554506  65.4203033  88.7329769  27.3445702  65.4147720
  99.0860844  35.8454418  37.5362158  98.6916447  35.9038520  38.4064126
  98.5561180  35.1944470  37.0762396  37.4324126  10.3949376  81.3277910
  38.3211847  10.5240460  81.6589222  37.2207065   9.4899055  81.5565512
  74.2846537  24.2575073  17.5542164  73.8153028  24.9501586  18.0191660
  73.9731026  24.3214321  16.6513979  63.9344597  29.1495728  57.5604534
  63.3610439  28.4958720  57.1603251  63.3998680  29.9423623  57.6043415
  63.6754417  40.6970787  53.5163164  64.4306278  41.1951780  53.8290739
  63.0287504  41.3633394  53.2836866  98.7264347  13.9713466  32.7961779
  98.1028557  13.9546955  32.0701551  98.2167816  13.6903358  33.5561299
   2.6952259  48.1398487  40.5443859   1.9725505  47.6869249  40.1098394
   3.4631244  47.5996637  40.3579426  82.8080940  59.6288347  50.5902719
  82.7318382  60.2469778  49.8634195  83.7494659  59.4815397  50.6816530
   5.9704391  39.4342256  14.7989881   5.3776447  39.1429424  14.1061866
   6.8463413  39.2961550  14.4384849  58.5392380  17.6972699  47.9535675
  58.4460878  17.0665598  48.6675406  57.6425886  17.8646338  47.6633263
  11.0421459  32.4335647  43.3230639  11.1225692  33.0923343  44.0128374
  10.5078594  32.8553820  42.6501274  84.0295315  30.3049612  24.0543866
  83.1237411  30.6097722  24.0008545  84.5555496  31.0850215  23.8781953
  80.3503323  54.7224474  11.8121541  79.4987774  54.5881701  11.3961470
  80.7959747  53.8800240  11.7229474 100.1665211  17.1532416  21.6572833
  99.4146156  17.2910964  22.2333598 100.1451397  16.2178516  21.4552426
 103.8247967  27.1785641  54.2558765 103.8189507  26.2214446  54.2448235
 103.4844208  27.4101949  55.1200056  70.0701809  38.2119656  51.0864162
  69.2897129  38.3405280  51.6254616  70.7792902  38.6072206  51.5935326
  82.3641109  15.7275069  45.4597378  83.1738853  15.2879918  45.7191992
  81.7659760  15.0146699  45.2354002  59.8148775  17.7583337  62.6871538
  59.4644308  18.6309326  62.5082970  60.4340315  17.5982749  61.9749260
  79.9093533  36.6932082  53.8283587  79.2548561  36.1709762  54.2921925
  80.0002480  36.2630987  52.9780817  26.8388645   9.9356502  87.7013111
  26.5532390   9.1719329  88.2026958  27.3871795  10.4304922  88.3101749
   9.5561973  38.5593295  33.3203292   9.4241420  37.7304196  32.8602171
   8.6775676  38.8255095  33.5912347  95.2039528  16.0001338  36.6881490
  95.0690174  16.6586626  37.3695922  95.5781841  15.2502072  37.1505284
  77.8155231  36.8073487  47.4333334  78.7319040  36.7256069  47.6975250
  77.3720121  37.1491170  48.2096815  84.5676708  53.6311817  11.9674373
  84.7313786  53.7100315  12.9072332  84.3553638  54.5210409  11.6858125
   0.6934062  60.5500889  48.3503819   1.6042701  60.4233742  48.0848646
   0.6660835  61.4431000  48.6939144  72.4845648  36.9238591  29.6753144
  71.8114662  36.5834856  29.0859795  72.2449303  36.5807676  30.5361819
  17.8752700  30.0413203  47.0583344  18.6661807  29.7175622  47.4894667
  18.1835262  30.3869438  46.2206268  71.8670702  30.7070780  52.9250526
  72.0009947  30.6404352  51.9796133  72.3270464  29.9492621  53.2861185
  70.4747009   6.2122697  76.4011955  70.0391483   6.9386685  76.8471479
  69.8721695   5.9662986  75.6992817  97.4686718  57.2660112  51.3004303
  96.6007996  57.6696730  51.2910175  97.8752422  57.5908995  52.1037865
  80.7166381  98.8914183  40.2970839  81.5795131  99.2672411  40.1226091
  80.1151939  99.4177172  39.7702909 110.3045273  76.1839914  11.5982842
 110.1405334  75.3493357  12.0372438 111.0894680  76.0282326  11.0730875
  80.8081532  75.8726501  10.5081177  80.7061195  75.0574303  10.0169623
  80.0698471  75.8792734  11.1172867  94.8745251  16.0190356  84.8128796
  95.6727314  15.5345869  84.6021557  95.1557255  16.6807342  85.4447937
  73.9934874   9.8650664  55.2931261  73.7093544  10.0569153  56.1868238
  74.9420452   9.7564572  55.3614855  65.3060579  13.5570586  37.1781087
  65.9820604  12.8801823  37.1449947  64.4835424  13.0713153  37.2393823
  91.2743664  32.8143454  36.8485546  91.5884399  32.1153283  36.2750030
  91.3182449  33.6042118  36.3096476  62.1215244 100.7534337  60.9215784
  61.6585250 100.5184830  61.7257309  62.3821349 101.6650671  61.0528851
  32.7376356  97.1086084  90.1261615  33.3177748  97.4600374  89.4507623
  32.5118246  96.2318527  89.8154424  50.9066100  93.5398022  59.6473265
  50.8062835  92.6749269  60.0450182  51.3142390  93.3673338  58.7986040
 102.0752239  36.8680978  54.8379421 101.1632729  36.6282654  55.0024271
 102.1373558  37.7808547  55.1194525  11.1818978  82.8137473   0.9560891
  10.3517529  82.5867871   1.3751146  10.9720608  82.8703193   0.0238820
 105.9229946  53.8014364   3.0417782 105.8732605  53.3789444   2.1843047
 106.3780594  54.6270561   2.8759545  99.9831963  21.1217475  49.6511555
  99.5876312  21.9933176  49.6399355  99.2631340  20.5291224  49.4354391
 100.9422874  33.7957621  34.1457653 101.3187885  34.3978882  34.7875738
 101.2625027  32.9332471  34.4098902  89.9589915  88.1349865  34.0924835
  90.3730102  88.4973684  33.3092213  89.1667171  88.6593405  34.2089939
  86.9457817  46.3684130  39.4577336  87.5982380  45.8497095  39.9283433
  87.3484612  46.5456247  38.6076260   2.3864929  63.5842276  37.3785591
   3.2195751  63.2463264  37.0498943   2.4392692  63.4699011  38.3274412
  77.6251459   1.2569281  31.7499590  77.6247501   1.2824880  32.7068186
  78.4528685   0.8336648  31.5220118  85.5925751  33.2432365  38.7745905
  86.4787769  33.4745455  38.4964371  85.5571556  32.2901440  38.6933947
 104.2439461  48.6944437  30.8715057 104.0820694  49.3629646  31.5371704
 104.4891453  49.1893291  30.0897145  53.9484072  35.8900595  18.6282432
  54.7115707  35.4258323  18.2842803  53.2177448  35.2883530  18.4857178
  65.7868481  32.4926376  54.3762827  66.6487074  32.2944689  54.0100145
  65.2809429  31.6906118  54.2457151  92.3221970  69.4156361  20.5442691
  91.4124870  69.1265154  20.4731131  92.6285076  69.0415001  21.3703632
  42.8350206 104.6851849  31.5784788  42.3840804 104.0136859  31.0666466
  43.3735080 104.1927752  32.1979952  78.0002308  30.2066064  54.6337986
  78.9549303  30.2355433  54.6965837  77.6986217  30.8556819  55.2693796
 109.8464108   7.2768915  61.7030478 110.5188465   6.6537142  61.4278984
 109.0360737   6.7674381  61.7097235  96.4039803  37.1382427  33.4768772
  96.1622047  37.3733020  32.5810409  95.7563686  36.4825511  33.7355280
  82.7150917  31.4327478  32.2184324  82.0609951  30.8432460  31.8430948
  83.4693909  30.8711123  32.3968267  83.3947849  33.9011884  27.9079604
  83.4175110  33.4772611  28.7658668  82.9111767  34.7140074  28.0551839
  77.5107861  43.5479069  55.9310341  77.3062038  42.6415825  55.7009125
  77.7125645  43.5178614  56.8662405  79.0034151  39.6395445  17.7582502
  79.7853041  40.0315952  17.3694348  79.3078995  39.2691255  18.5866880
  98.6865616  54.8270082  18.9459145  99.2463493  55.5860949  19.1091895
  99.2895985  54.1427469  18.6554766  81.6504478  37.9873872  48.3926296
  82.5975227  38.1171107  48.4421253  81.5049934  37.6135945  47.5235224
  87.0284367  40.3302050  31.4536929  87.1083736  41.2759829  31.5775537
  87.4543667  39.9511123  32.2225261  57.9706092 103.0045861  38.1215930
  57.6914210 102.6996953  38.9849186  57.7768035 103.9419574  38.1244063
   0.5345527  17.4954975  56.6591740   0.3638069  16.9533539  55.8890104
   1.2979499  17.0916235  57.0719004 105.0103569  26.7169237   9.9408203
 105.6170464  27.3012567   9.4861609 104.4137287  27.3046684  10.4043210
  61.0529566  24.3617630  26.8346143  60.5105591  25.1375556  26.9766808
  61.9210005  24.7103238  26.6315460  71.5860176  41.2666416  36.8628407
  71.4648771  42.1640158  36.5525627  71.0753393  40.7320166  36.2548804
  86.8502712  32.1434855  31.9427252  86.4492702  31.6130328  32.6312351
  87.1519470  31.5067101  31.2948513 102.4289417  34.5728564  10.5424333
 103.1867790  35.0242734  10.9140944 101.8887138  35.2731991  10.1764929
  64.1534996  17.4051905  22.1943617  65.1033497  17.2970426  22.2425365
  63.8078308  16.5143907  22.2511029  68.3074713  33.6700296  29.7166562
  67.9675293  34.3801641  30.2610636  68.1226206  33.9467406  28.8191628
  52.3885489  28.3870292  54.4069386  51.8369198  29.1691637  54.4212103
  52.2656250  28.0232072  53.5301495 106.3849258  59.5695686  60.3526974
 106.6818047  58.7350512  59.9898291 106.1247730  59.3615437  61.2500715
   4.0696327  18.0424964  76.7841768   3.9062587  18.2644463  77.7008438
   3.2069580  17.8198683  76.4342260  94.0629292  59.3034029  28.7168741
  94.1686440  60.1171827  29.2096424  93.4117126  59.5118856  28.0470395
  73.4211969  68.6036253  31.3567400  73.7162685  69.5142078  31.3548708
  72.4755001  68.6580229  31.2191534 106.4513206  57.6697922  29.5541167
 106.9477463  58.4324932  29.8509049 105.5854607  57.7798557  29.9470711
   7.3678008  65.9227228  40.3982496   7.4831954  65.4824162  39.5562029
   7.4435226  66.8547106  40.1935625  87.9070282  47.9981899  23.1982160
  88.8428974  48.1991291  23.1987834  87.4975777  48.7631035  23.6025620
  83.3063221  52.7385283  50.0998163  82.7354240  53.4431887  50.4060316
  83.6515141  53.0555391  49.2652035   5.0373641  35.5188179  27.9364181
   4.8845283  34.9162126  28.6642528   5.8121101  36.0170913  28.1966496
  70.3101587  41.1781645  25.4464126  69.6211195  41.7715216  25.7453752
  71.0455275  41.3492870  26.0347843   7.4394599  74.7531796  27.9587841
   6.6190998  74.2644596  28.0250812   7.9853908  74.2266798  27.3748398
  16.9004337  54.1303492  54.4867325  16.5165225  54.0891075  53.6108637
  16.1830036  54.4221592  55.0492048 102.9569530  39.7089410  35.4628897
 102.4158669  40.2153254  36.0687256 102.8842545  38.8065624  35.7737923
   0.3688518  25.3614664  45.7566309   0.7213966  24.5928359  45.3081322
  -0.2989110  25.7011104  45.1608324   3.0880062  23.9855433  15.0508082
   3.6747924  23.3939409  14.5797253   2.3299304  24.0803552  14.4741333
 101.7958832  44.2466021  41.9013453 101.2607479  43.4729099  42.0781565
 102.6076889  44.0917921  42.3842907  71.8597794   6.2577826  56.4535666
  72.6731539   6.7502111  56.3432407  71.7392015   6.2037867  57.4016047
  88.0758190  51.0868788  52.8082180  88.5015488  50.4172468  52.2728920
  87.1595860  51.0677004  52.5318193  98.2390022  38.1901550  45.2641249
  97.9956722  37.3697948  44.8351336  98.2565594  37.9765677  46.1970234
  82.7339840  34.6441197  53.5712194  82.8328705  35.3327346  54.2286873
  81.9871902  34.1282248  53.8751745  78.4693766  39.0502143  27.2333455
  79.0271378  38.9735246  28.0074620  78.2061100  38.1509495  27.0377827
  85.5570316  68.8796329  41.6600752  86.2382698  69.5395613  41.5311003
  84.7374249  69.3464756  41.4972019  85.7740402  49.7500563  10.1026022
  86.3084126  48.9850664  10.3158414  85.8917427  49.8692703   9.1601771
 108.1481266  26.1574364  79.2371225 108.6885548  25.3830552  79.3936539
 107.3086643  25.9506845  79.6479464  11.6079608   8.6758852  15.8988273
  10.8477298   8.1687862  15.6139755  12.3308650   8.0485255  15.8911848
   4.9025527  67.2308922  47.5704288   5.3411476  66.3801956  47.5569963
   5.0700942  67.5728989  48.4486055 100.8861351  61.3032579  74.8496008
 100.0325775  61.2382364  75.2779007 101.2465000  62.1344328  75.1586628
  71.5096331  86.4495277  60.6277561  72.3171663  86.7432022  61.0495186
  71.7547512  86.3080883  59.7133446  16.6060630  55.2899551  59.5416880
  16.1843578  55.2711439  60.4007864  16.0233203  55.8225870  59.0004396
  80.4019451  58.9140511  53.9663696  79.6045160  59.4275379  53.8372803
  80.5224419  58.8933754  54.9157333  45.2296253  19.2957028  15.2884007
  45.4402920  18.5279378  15.8198023  44.9052235  18.9343652  14.4635201
 101.4093261  97.9438619   7.3201200 100.5419307  97.6944093   7.0013257
 102.0059018  97.3231057   6.9018003   4.3958084  67.3535299  42.2557783
   5.1616279  67.7918053  42.6268148   4.3513194  66.5166473  42.7182436
  65.3689666  82.5084344  13.8121974  65.9215350  82.5827304  14.5902574
  64.8802180  83.3310381  13.7860954  78.6508274  68.2539320  47.2747135
  77.9768991  68.1565046  46.6019869  78.1673717  68.2470560  48.1008196
  73.1715584  73.1293869  30.4442620  72.3789263  73.6598778  30.5251551
  73.7090731  73.3860874  31.1935377  97.2343636  59.1945696  39.6681118
  97.3281860  58.5870457  38.9343905  96.4492607  59.7013092  39.4605947
   4.0779964  73.8750362   0.8647749   3.3246795  73.6861181   1.4242908
   4.3184749  73.0266857   0.4923528  93.7759590  35.8863664  26.1226130
  93.2926273  36.6872478  25.9196115  93.5861015  35.2999091  25.3903198
 108.9415741  60.3301287  38.6462998 108.6299229  60.6421566  37.7967477
 108.9261627  61.1059380  39.2067599   3.1025211  56.4287376  29.1550875
   3.8297645  56.2101889  29.7378278   2.4226657  55.7903433  29.3706894
  97.2864437   8.7724942  50.9355927  97.9827404   9.1121137  50.3733921
  96.5631294   9.3886364  50.8197546  22.1297447  11.0965979  14.9728489
  22.3666183  11.1189020  14.0456891  22.4532215  10.2505684  15.2824116
  84.1824245  29.2128372  45.9331894  85.0392056  29.3148708  46.3476181
  83.6824989  28.6738634  46.5462208  97.5087357  28.5277104  41.8452120
  98.3081436  28.9440703  41.5230036  96.8969059  28.5837698  41.1112118
 110.3897667  50.0747919  15.1947880 111.3440132  50.1492405  15.2050817
 110.1280308  50.2245522  16.1032462  75.5658484  24.2002010  47.9235268
  76.0426569  24.8569512  47.4160194  75.9949493  24.2007804  48.7791586
  77.9975557  32.3985100  39.7937298  77.5250101  33.1745911  40.0947809
  77.3140526  31.7458153  39.6419263  89.5258617  48.0950928  64.7139120
  88.8187218  48.6095762  64.3246889  89.2680836  47.1848631  64.5680952
  92.5722790  32.5517702  45.0483036  91.9018555  33.0204368  45.5454111
  92.0791626  32.0182443  44.4250727  92.5859070  40.5269670  42.4772453
  92.4283600  41.2204885  41.8365908  92.9627609  39.8103547  41.9666815
   3.2953254 102.9889584  37.2815061   3.1056873 103.6989689  36.6681886
   2.4486820 102.5675201  37.4292064 100.3513908  24.6133041  14.1340244
 100.3286076  25.5699611  14.1111624 101.2819576  24.3972492  14.1940081
   4.3399803   4.7647470  40.4176188   4.1672603   4.2642909  39.6201563
   4.4388381   5.6680590  40.1168108  90.1558113  18.2499528  60.7596445
  89.3627834  17.9760957  61.2204456  90.2033043  19.1947997  60.9053850
  24.6265880  40.1800108  29.6408081  24.7703449  39.3725276  30.1343036
  24.9824802  39.9960017  28.7714887  96.5704155  18.7995243  42.7159405
  95.6652546  18.6158347  42.9672766  97.0390415  17.9845023  42.8958225
 105.2411270  87.4331570  67.5988865 105.1914501  86.7135811  66.9696188
 105.6602764  87.0492935  68.3690786  79.6949053  91.6400146  56.7387724
  79.4242811  92.1963882  57.4691391  79.6952152  90.7536697  57.1001863
  95.5446148  60.8397865  21.8352532  94.8884201  61.4322281  21.4683056
  95.1034737  60.4225063  22.5751901  74.1750145  28.7676954  29.3370509
  73.6019993  29.0469313  30.0511312  74.7635078  29.5097160  29.1980696
  18.6745159  19.8543608  75.6428480  18.2453529  19.3808162  76.3554573
  19.6092121  19.7823155  75.8361673 101.1828709  47.7458048  53.6832476
 101.3603115  48.5874844  53.2633400 100.4885006  47.9346991  54.3144369
  33.3056059  90.8841669  82.8406039  33.8673487  91.6570866  82.8978828
  32.4250403  91.2369954  82.7127752  86.1849785  73.3046103  28.9847970
  86.4425850  72.6245928  28.3623481  86.9634914  73.8541794  29.0749145
   2.3618881  48.3753490  61.7146397   1.9397727  48.0244303  60.9304810
   3.0260936  48.9778376  61.3798475  90.1021290  61.4418888  55.7229996
  89.4157791  61.7690229  56.3044930  89.9562454  61.9031382  54.8970509
  17.0499316 103.1655752  74.6843747  17.1690455 102.2167313  74.7261099
  16.2014380 103.3189594  75.1000181 106.9837570  83.8105202  56.0742807
 106.5374851  84.5915413  55.7470512 107.4047375  83.4337807  55.3015757
 105.6091881  36.0331488  64.6626663 105.1834869  36.6866899  64.1077852
 106.5410137  36.1179399  64.4608116  79.5103884  79.8621893  26.1154771
  78.6254835  79.5900917  26.3586664  79.6717787  79.4302130  25.2766800
  47.0464612   4.5987881   0.1738855  47.0074273   3.6423958   0.1785585
  47.9254628   4.8041904   0.4923173  81.6735363  25.3191686  45.1417065
  80.8129120  24.9020028  45.1025581  82.0396042  25.0349188  45.9792185
  79.6476746  68.1354427  35.1847339  79.7944450  67.2004175  35.0418520
  78.8712072  68.3384657  34.6630859  99.1589642  61.7525196  58.5773039
  99.7681618  61.5013027  57.8830385  98.5799122  62.3948479  58.1670046
 107.8982830  46.0708714  24.0702510 108.5295200  45.9001541  23.3712339
 107.7241707  47.0102739  24.0115690  92.3093224  63.7802267  28.1916881
  93.2382393  63.6436701  28.3779645  92.2509098  63.7587738  27.2365141
   6.2300006  39.3690276  44.7099972   5.6369487  38.8380742  45.2416134
   5.6665889  40.0341749  44.3145466  97.8615475  28.2183743  59.6139669
  97.8525162  28.7531590  60.4077911  97.0010090  28.3604741  59.2196321
  91.2046242  52.0014191  31.5848804  91.0843563  52.2701740  32.4956703
  90.3237534  51.7813587  31.2817740 105.9588242  12.1693230  27.0950103
 106.7669296  12.5476599  27.4414992 106.2098312  11.8043184  26.2464809
  67.8832960  30.5478144  27.9717827  67.5758410  30.2231240  28.8181162
  68.5901499  31.1550140  28.1906295  82.6867485  42.5637197  27.2473168
  81.7528820  42.6983881  27.0861459  83.1079006  42.7891016  26.4178181
  76.1896133   4.7586271  22.9027367  75.5571795   4.9733424  22.2170568
  77.0363092   5.0129879  22.5357985  85.1523876  70.6340599  38.5718942
  85.9425068  70.6724215  38.0329466  84.4516850  70.4227161  37.9549789
  89.0628147  40.0793934  25.3077579  88.3366776  39.4964457  25.0861025
  89.6415806  40.0412607  24.5463061  99.4168186  48.1549978  28.0712271
  99.8194885  47.6124859  28.7492919  98.6192417  47.6839733  27.8298950
 102.9296207  57.5154495  30.6993961 103.1483269  57.5788021  29.7696733
 102.7734280  58.4199572  30.9708786  96.2658405  51.2524605  48.3870506
  96.7736626  51.3070536  49.1966009  96.5939045  50.4659796  47.9511023
  92.3354435  46.0269165   8.7878597  92.2178364  45.8037519   9.7112226
  91.4490128  46.1918783   8.4665346  21.6106121  68.4878826  44.4280672
  20.7746498  68.8146544  44.7606611  21.4143649  67.6059437  44.1119957
  76.1222982  76.2642813  26.9828415  75.3324652  75.7881784  26.7264795
  76.2343073  76.0600758  27.9112720  76.6536856  49.7168970  46.5374517
  76.2155628  50.5491781  46.7151833  77.1276379  49.5184660  47.3450613
 108.6759758  20.3732038  57.0142937 108.1330299  20.1272893  57.7632666
 108.1554031  21.0249925  56.5448189 101.0897827  70.8439064  52.9788208
 100.6621361  69.9902439  53.0466604 101.6401672  70.8988333  53.7600327
   1.2658492  68.5209131  54.4130564   0.8014861  68.4515095  55.2471924
   1.0487358  69.3954372  54.0900993  83.0352402  78.0273104  60.0472021
  83.1468773  78.5526371  60.8395386  82.4334335  78.5369921  59.5047235
  90.8822155  44.9040365  38.4198022  90.4122066  44.5166922  39.1582346
  91.7309093  44.4613743  38.4173250  98.9491272  96.9709873  81.9786167
  98.5718155  96.3529587  82.6046467  99.3461800  97.6509094  82.5229454
  56.4465666  13.1627595  25.5573225  56.9553804  13.0482566  26.3599634
  56.1622477  14.0764177  25.5822682  89.9934959  50.9010220  37.3378277
  90.5093384  51.2422371  38.0683851  90.6301022  50.4446125  36.7876840
  89.6549225  42.0202255  44.2821789  89.3416500  42.7524328  43.7511730
  89.1206932  42.0540285  45.0757074  86.5454006  65.4227781  65.2862501
  87.4045467  65.3675270  65.7046366  85.9256363  65.4537582  66.0150528
 107.9954815  56.8592978  36.1085129 107.1748638  56.4212990  35.8827496
 108.3725929  56.3184977  36.8024492  65.7191372  19.2708850  51.0954762
  65.2495527  19.9047399  50.5533075  66.5405798  19.7086644  51.3186741
  91.0376072  47.0128059   1.9371103  91.6806889  47.0583344   1.2295723
  91.5328312  46.6914129   2.6905626  66.1715746  78.5903549  56.1268187
  66.7575645  78.1023645  56.7053604  66.1980391  79.4872189  56.4602327
 106.5159225  49.7133970  29.2977929 106.8436718  49.5970678  28.4060073
 106.2466335  50.6311321  29.3361902 108.8569736  77.9294872  24.2703867
 108.2737064  77.2821522  24.6665978 108.7116623  78.7265539  24.7800922
 108.5951614  69.3948650  12.1224344 107.9108238  68.7256098  12.1267080
 109.3322086  68.9866781  12.5767231 104.5434380  88.1055546  10.5359960
 104.9029732  88.7227726  11.1731887 103.6793232  87.8811073  10.8811855
  96.3172340  69.1474485  56.1599970  96.9223022  68.5118103  56.5421963
  96.7288017  69.9965668  56.3207531  78.6039066  11.6155851   9.0831137
  79.2682838  11.0967290   8.6296558  79.1042280  12.2034955   9.6490377
 102.0664501  43.1084824  52.6095009 102.6587677  43.7853575  52.9369640
 102.6452160  42.4020815  52.3226738 103.1093407  66.6045237  48.1313705
 103.9939976  66.7314339  47.7885723 102.7094078  65.9724712  47.5340462
  98.0674553  65.6867075  43.2807350  97.9531860  65.4203987  42.3684549
  98.6700630  65.0387239  43.6457157 104.2724037  64.1928482  68.4109783
 104.6412659  64.3814993  67.5480890 103.4429741  64.6703815  68.4265089
   6.4473239  58.8746071  83.7588024   5.9667198  59.4520760  83.1656933
   7.0670215  59.4517040  84.2050743 102.0272541  51.2249374  19.7156692
 101.4118862  50.8363724  20.3374124 102.5889397  51.7841530  20.2523470
   0.9423534  77.1325111  47.2767353   0.7074062  76.5032816  46.5947485
   1.3993255  76.6110229  47.9366207  88.7172699  36.6261053  48.9154816
  88.4026146  37.5264525  48.8342333  87.9239368  36.1056018  49.0416718
   0.2235881  28.9605761  80.6145382   0.5484764  29.1497922  79.7342730
   0.1008884  28.0113387  80.6256580  97.2737122  71.2383461  45.1718330
  97.8263855  71.5934563  44.4756413  96.4532471  71.0115099  44.7341013
  97.5476074  27.0661712  13.1449497  97.8536415  27.3478770  14.0070522
  96.7877865  27.6206374  12.9675579 107.2154713  48.6198711  22.2942495
 106.8010426  48.0595589  21.6381073 107.7845573  49.2001820  21.7886567
  88.1284904  53.7167978  27.7942514  87.5715160  53.4942865  27.0482635
  88.2863140  54.6565199  27.7034450  89.5611286  28.2432747  40.7619381
  89.5377827  27.3812318  41.1773539  89.9877834  28.0912971  39.9186683
 104.8712730  23.0495143  28.4462619 104.9835396  22.4572182  27.7027488
 103.9293480  23.0443478  28.6164999  71.3975048  24.6653795  51.7000771
  71.2218189  24.1356301  50.9224319  71.3882113  25.5681396  51.3820124
  87.3257923  43.5965252  79.6398687  87.4502277  44.5277548  79.8230505
  87.9590034  43.4016085  78.9490175   0.6597988  48.8013554  52.5265646
   1.6071597  48.6888504  52.4485064   0.3098480  47.9108238  52.4998331
 101.5514660  42.9017162  46.8847847 101.0868835  43.6825275  47.1859980
 102.3599434  43.2382345  46.4983225 103.6758232  43.9951515  18.0324256
 102.7629662  44.1445637  18.2786083 103.6362839  43.7360525  17.1118081
 100.4181004   9.7807682  53.4735870 100.5375195  10.4666090  52.8166294
 100.7438946  10.1680267  54.2860651   4.9753848  54.6697712  26.4340878
   4.4201938  54.2096710  27.0636153   4.9923507  54.0977383  25.6668019
  92.9632950  19.8218572  44.6145630  92.6085186  20.5540919  44.1103792
  93.1981182  20.2045989  45.4599047 105.4849815  46.7683125  62.1114683
 105.9632301  45.9555960  62.2758007 104.6711540  46.6714907  62.6059723
  92.1245098  58.0089903  38.0847430  92.7579975  57.4286318  38.5067797
  91.7890263  57.5007772  37.3462319  87.8211117  52.1918678  55.3234434
  88.2604313  51.6828346  56.0047054  88.0239773  51.7292118  54.5104074
  81.5934086  58.8485765  33.2736206  80.9562683  58.4464073  33.8639927
  81.8744278  59.6421432  33.7291574  65.8887625  38.2345605  52.1125746
  65.5318689  39.0468740  52.4717426  66.7776728  38.1872797  52.4644804
  34.5802394  64.0736961  15.0637853  35.1409809  64.5212030  15.6974554
  34.1328994  63.3988714  15.5744100  19.2237655  38.6105132   8.6361331
  19.2156307  39.1818333   7.8681761  18.4359447  38.8524556   9.1230041
  89.8501778  45.5918074  16.9475937  89.8279381  46.4382648  16.5012181
  89.9495411  45.8120108  17.8738081  82.5663185  35.0394630  48.1064844
  82.8834915  34.3795586  47.4899149  83.3058739  35.6365013  48.2197571
  33.1759159  85.5376339  11.6306043  32.9952232  85.5672646  12.5701284
  34.0502159  85.1532364  11.5668535 105.6035328  59.2157745  42.7683449
 106.2330437  58.5864353  43.1203127 104.8620796  58.6803865  42.4857759
 106.4283180  45.5154228  31.1704016 105.4885483  45.6493425  31.2933540
 106.5238285  45.3316879  30.2358699  95.0097752  65.0162220  63.5673761
  95.1490402  64.0935802  63.7808323  94.1273499  65.2053261  63.8864422
  85.8297825  20.8007026  50.1600122  85.8079910  21.4802766  49.4862652
  85.9010410  19.9808872  49.6710777  99.5161724  58.5601044  56.7397928
  98.9362526  58.6420584  57.4969006  98.9442444  58.2662678  56.0307169
  86.7404556  46.4388943  61.6274834  86.8422985  47.3708439  61.8206882
  85.8050919  46.3307953  61.4553452  78.1503868  36.4498496  26.7338109
  78.9139891  36.1322403  26.2518692  77.4177265  35.9443569  26.3817930
   4.9473468  43.7597227  44.9432278   4.3067161  43.6750698  44.2370701
   5.7363120  43.3380556  44.6026850  92.2627258  26.3943458  33.8657403
  92.7049828  25.7166886  33.3544517  92.1859646  27.1357107  33.2651424
  14.2113487  62.4367476  24.8378205  14.8607246  61.7849684  25.1018929
  14.6898643  63.2657528  24.8390818  78.7813807  77.6914787  56.7566204
  78.2688999  78.4981918  56.7035389  79.0328741  77.5075006  55.8515596
  95.8054161  76.3788223  40.0060940  96.5315723  76.6702700  40.5574369
  96.1092091  75.5545950  39.6258497   0.7395450  53.1225586  54.6110630
   0.7365981  52.2430801  54.9888754   0.7003490  52.9772758  53.6657619
 108.8345432  33.3104777  53.7955236 108.4869862  32.5845981  53.2773113
 108.1308079  33.9592886  53.8010883  91.2821770  37.7247620  35.5797911
  90.5272865  37.4094510  36.0767388  91.3432121  38.6540914  35.8008170
   6.2544242  25.3991580  65.3141260   5.3022949  25.3809047  65.2174234
   6.4432994  26.2712073  65.6606674 100.8898544  50.6126213  24.9248600
 100.7853889  50.0524139  24.1557765 101.8371582  50.6854248  25.0412536
   7.5517742  49.5861816  49.8174095   8.0879585  48.9087582  49.4052982
   8.1836788  50.1667738  50.2414989  92.3720455  33.4511137  39.6285319
  92.1553135  33.6926222  38.7280154  91.9871998  32.5821543  39.7426963
 108.4512711  22.8967810  25.1553679 107.9963017  23.7267923  25.2978826
 109.3006516  23.1484151  24.7927833  79.0295172  50.1248980  22.7467752
  79.4940138  50.9608889  22.7069020  78.1773901  50.3421497  23.1248188
  77.9081488  26.9362402  33.5015869  78.1756401  27.2758532  32.6475716
  77.6827002  27.7156949  34.0093851  83.6316586  22.6509142  39.6354556
  84.3990612  23.2191539  39.7020173  82.8991890  23.2523561  39.5013380
  50.3331181   4.1524705  56.5822697  50.8508679   4.5303067  57.2931910
  49.4245049   4.3196877  56.8326426  13.1864826  19.1938388  22.7402735
  12.4695197  19.3057108  23.3645177  12.8193561  19.4726431  21.9013929
  67.9232979  11.1926615   9.0517020  68.1624937  10.3263903   8.7221736
  67.0641708  11.3664055   8.6670631  92.5479412  75.7468557  28.0227208
  91.9805908  76.2536669  27.4417782  92.1912289  74.8591614  27.9913020
  29.3846789 103.1075775  81.5906284  28.9486685 102.6346266  80.8817962
  28.9037123 103.9322865  81.6596404  11.5457913  97.8336886  10.9576722
  11.8460366  98.3026151  10.1790925  10.9957978  97.1289186  10.6155607
  14.9954311 103.0922413  16.7706156  15.6901828 103.7297821  16.9352138
  15.3610412 102.2581291  17.0652676  13.3519069  66.9091177  52.5778198
  13.1995670  67.7914286  52.9162741  14.3041030  66.8114758  52.5835705
 110.4788113  36.8860769  57.1198559 109.6851444  36.4832115  57.4720192
 110.1932812  37.3103690  56.3107300 101.2729836  31.5855813  46.5735340
 101.8399429  32.3263693  46.3589954 100.4584408  31.7633104  46.1032677
 108.0342579  34.3131232  33.0855989 108.8243484  34.5076632  32.5814843
 107.3135281  34.5593977  32.5058270  91.0884666  18.5212576  18.1028569
  91.8483353  19.0222192  17.8064239  91.4568043  17.7051234  18.4412074
 103.8616753  41.8373299  43.7665224 103.8019848  42.7313757  43.4298515
 104.1304398  41.3144064  43.0111742  97.6244164  56.8691254  13.8187075
  97.3985767  56.0837841  14.3171692  98.5546303  57.0069742  13.9974105
   0.5509750  59.1703081  33.5281968   0.9605400  58.4073973  33.1202006
  -0.1732262  58.8087893  34.0391445  71.3467026  39.6853137  27.7049065
  71.5866995  40.5767584  27.4520040  71.3795567  39.6906805  28.6615276
 101.3058090  17.8830492  38.9970684 100.5310440  17.3374605  38.8618135
 101.2850094  18.1018388  39.9286962  94.6967793  41.5317249  40.4291582
  94.9879932  41.8229866  39.5650983  94.2138386  42.2783852  40.7834101
 110.5645084  53.8555288  35.8628416 110.8141899  53.0823851  36.3689470
 109.8959446  54.2853308  36.3962507  82.1890545  87.5036049  50.6261396
  81.5924740  87.0143032  51.1926270  82.9288101  86.9117737  50.4892921
   0.9799854  48.5803890  37.8844094   1.4932720  49.3367577  37.6003671
   1.3619605  47.8406715  37.4120307  98.1371880  50.6937170  50.5386543
  97.8012180  49.9033499  50.9613609  99.0564823  50.7340193  50.8022928
  81.3913345  52.0517159  44.0254116  81.0094452  51.9344950  44.8952723
  82.1139431  51.4247227  43.9945984 103.6782360  54.6790791  23.9572287
 104.2066860  55.0951576  24.6382928 102.8089428  55.0668526  24.0582108
  69.8321056  68.9399958  46.7209530  69.1605997  69.2304039  47.3381853
  69.3493748  68.7376738  45.9195375 103.8436222  47.9652262  72.8677750
 103.4916306  48.7607050  73.2672119 104.5662975  47.7090645  73.4407854
  61.3137150  71.3367510  14.3406594  60.7835197  71.9233942  14.8800814
  60.9682369  70.4634762  14.5257986  78.3106136  65.9988070  57.8510284
  78.6661482  66.6417313  57.2374535  77.5182629  66.4100266  58.1964397
  62.7782488  19.2016423  46.3847399  62.9209375  18.3820844  46.8582344
  63.4599924  19.7887969  46.7113972  81.2063503  58.8737345  56.4826870
  81.7074108  59.6021795  56.8494749  81.3334942  58.1579971  57.1054077
  83.9123249  56.5490532  21.1100268  84.5292854  55.9488487  21.5287733
  83.7815666  56.1855888  20.2342248   5.5623714  28.5833335   7.9131573
   5.4815189  27.9904771   8.6602974   4.7994033  28.3883357   7.3690176
  91.6977596  37.9340529  73.0932045  92.6358032  38.0889654  72.9822826
  91.5920448  37.7645516  74.0293264  89.6659756  36.3488936  22.4128246
  90.5215359  36.5830159  22.0530558  89.4055939  37.1125722  22.9278278
 103.0303478  71.2609339  54.6887970 103.2187939  71.5389729  55.5851269
 103.8915443  71.1161757  54.2968559 109.1850853  75.9582567  79.7745705
 108.9262581  75.8978653  78.8550091 109.2679024  75.0484657  80.0603294
  90.2583694  68.3421659  17.2974098  90.7779789  68.8991547  16.7177618
  89.4450760  68.1888151  16.8165052  37.4564644   8.9845475  14.3475652
  37.3408505   8.7681493  13.4223425  36.6991421   9.5290097  14.5626438
  80.1218891  35.2742457  41.4675140  79.4486856  34.8748016  42.0183992
  79.6927643  35.4053473  40.6220007 107.1394062  61.9217253  36.8520951
 106.9988251  62.4957561  36.0991287 107.2882748  61.0570097  36.4695549
  90.3792095  61.7521667  39.3483329  90.1826191  60.8271170  39.2004633
  91.1697006  61.7457390  39.8880601  12.2027294  49.2316389  36.1531854
  13.1137744  49.4165516  35.9250522  11.9052497  50.0192738  36.6085601
   3.7030021  59.9543571  64.1413689   2.9121200  59.5443201  63.7912226
   4.4190017  59.5528412  63.6490679  16.8916789  37.3842549  38.2405400
  16.1844913  36.7395544  38.2624125  17.3555938  37.2590637  39.0683913
 108.8119507  72.4190044  44.5396423 109.7624302  72.4976349  44.4581366
 108.5015678  73.3221722  44.6042490  89.8676395  39.1293216  40.4200315
  89.5135593  38.3858514  39.9320698  90.3222179  39.6538210  39.7608685
   8.0371276  86.0787678  86.7082977   7.0869247  86.1905766  86.6790867
   8.3856670  86.8993473  86.3598728  70.4507589  62.9049158  28.2311511
  69.6566582  62.6425743  27.7655149  70.6372738  62.1722412  28.8182092
  85.3060627  58.4097624  47.9885864  84.8457146  57.6050901  48.2269573
  85.3543472  58.9086246  48.8040876 110.1530552  69.9886322  75.3283596
 109.9656677  70.0190544  76.2665462 110.3137970  69.0627909  75.1461172
  14.2613212  37.5146937  11.7814600  14.5979396  37.6216960  10.8918130
  13.3890907  37.9081678  11.7564583  84.2205429  63.5320139  26.8973756
  84.5962524  63.6971998  26.0326290  84.9738979  63.5214806  27.4877930
 106.4630508  44.8475170  39.0217066 107.0643806  44.1721678  38.7077880
 106.9205952  45.6716728  38.8554287  88.0972290  68.6073303  50.1585674
  88.1541443  67.6731539  50.3593349  87.4544811  68.9473677  50.7810497
 107.1515465  99.5499611  52.8640652 107.0759392  98.9257145  53.5857582
 106.5099335  99.2503357  52.2200203 101.6252422 100.9453678   6.4902425
 101.4317226 100.8303356   5.5598950 101.5517616 100.0658321   6.8607104
 110.3509903  71.5629721  39.9153614 109.4790840  71.7325544  39.5586324
 110.7633400  72.4256277  39.9602890  79.5432854  71.8249321  31.5128112
  80.1210594  71.6785383  30.7638216  79.6302986  72.7589083  31.7034769
  46.3261215  15.4503608  58.3348274  47.2317211  15.2794409  58.5935020
  45.8467094  15.5029416  59.1616488  25.6019012  40.3897524  45.7760954
  25.7976047  39.6380734  46.3354778  24.6474735  40.3921175  45.7033348
  85.6771660  74.5145321  20.0097179  85.5618477  75.0367641  19.2158639
  85.4637337  73.6207867  19.7415686  79.8615122  81.5420437  19.8219025
  80.0465298  82.2431660  20.4467392  79.1015911  81.0894585  20.1878524
 105.9562302  32.0775676  29.1027832 105.1537418  32.3678184  28.6692023
 106.2971210  31.3848853  28.5369062  97.8675556  68.8133144  33.2317305
  96.9916439  68.4316492  33.1738853  98.0295753  68.8997889  34.1711450
  97.9795456  36.5170622  47.7084923  97.3438835  35.8072162  47.7994776
  98.8274288  36.1005545  47.8629303 101.4957047  78.8234091  52.5203228
 101.7530537  78.1569815  51.8832397 102.3213673  79.1211176  52.9022789
  62.1765375  11.8050623  57.1548414  62.0967627  11.8560779  58.1073427
  63.0781984  11.5208972  57.0048809  72.7595377  64.6448612  71.6824341
  72.1339226  65.3021240  71.9871378  73.5830164  65.1236200  71.5880775
  68.8667345  52.3136568  16.0137403  68.6783361  52.4782991  16.9376612
  69.1465950  53.1626034  15.6713879  93.4091759  99.0533257  77.0581102
  93.1424904  99.8761082  76.6480684  94.0295887  98.6675549  76.4396429
 107.6400280  51.8441153  41.4956474 108.3252048  52.5086260  41.5676355
 106.8781853  52.2386646  41.9201040  77.5907421  81.3835907   5.5286568
  77.6843977  80.4529762   5.7321852  78.2523966  81.8148136   6.0694808
 107.1479034  55.9606838  41.3192844 107.7343273  56.3618279  40.6778574
 107.3578167  56.4000320  42.1433830  24.3751041  69.7989750  36.2557721
  24.5421592  69.5727110  35.3408241  24.9900905  70.5081081  36.4432597
  94.6923828  91.2625122  59.0598917  94.8470497  92.1209145  58.6655998
  93.7584019  91.2599564  59.2694139  72.9471159  77.1946621  82.8139114
  73.7031507  77.4531651  82.2868156  73.2995987  76.5706348  83.4484005
 106.3742065  16.7399919   3.7669921 106.9959450  17.4050999   3.4715194
 105.6508064  16.7941010   3.1425014  14.0507595  59.9858570  63.1981993
  13.6678115  59.1352129  63.4126520  13.3430854  60.6122446  63.3500814
  10.8828823  40.9512138  48.6662102  11.5135280  40.7313728  47.9805040
  11.2946502  40.6495714  49.4759607  98.2043457  42.6288509  29.5080972
  98.2292652  43.4941530  29.0996051  99.0842438  42.5068808  29.8646474
 103.4691906  85.1581955  52.0533657 103.6817074  85.8146095  51.3899040
 103.0111694  84.4698048  51.5711260  35.3871147  84.4322491  30.0145817
  34.7411910  83.9036560  29.5459604  36.0230628  84.6829033  29.3445206
  55.4699989  12.7887889  82.3195485  56.3186736  13.0054637  81.9334910
  55.0512500  13.6365243  82.4686543  85.9850216  31.6722226  49.3209028
  85.1896954  31.9548225  48.8694334  85.6683826  31.1834908  50.0805855
  98.3182812  36.0919142  30.5799508  99.0522480  35.7298422  31.0763717
  97.5672817  35.5579782  30.8390594  25.7835571  17.7577758  56.2426138
  26.3958732  17.0273495  56.1543655  26.1595813  18.4522152  55.7016945
 107.3311996  79.1115284  63.9297676 107.9404163  79.7657251  63.5875607
 107.0292568  78.6370897  63.1551886  83.0358410  48.3032084  15.9367931
  83.3509731  49.1777802  15.7086694  82.4575043  48.0608273  15.2135992
   0.7994453  89.1615868  43.7306309   0.1557151  89.1527748  43.0222702
   0.3808586  88.6749744  44.4407225   7.7935687  31.4109468  42.7989054
   8.0815784  31.0799408  41.9481897   7.1611968  30.7617331  43.1069136
  46.5701675  53.6624861  11.1606193  46.0589647  54.2052269  10.5603361
  46.9463253  54.2838669  11.7840183  78.9699697  69.5021582  61.6352463
  78.3763313  69.9795437  61.0556507  79.6925545  69.2322969  61.0684299
   3.3405773  74.9157238  46.1266279   4.1349784  74.6760321  45.6494427
   3.6556140  75.4107666  46.8828773  89.3840027  59.0778255  54.0099287
  89.7920036  59.4055891  53.2084703  89.5476341  59.7619724  54.6590757
   0.1729289  46.8848228  34.0257120   0.0175754  46.9262362  33.0821109
   0.0153438  47.7772856  34.3337893  21.0866920  55.5700731  24.1947746
  20.9390060  55.4124022  23.2622719  21.7656032  56.2444067  24.2190909
   4.4460288  72.4960661  48.9743471   3.7249462  71.9152260  49.2170143
   4.6218101  72.2890806  48.0564785  90.7313824  57.5533104  48.4698582
  90.6376648  57.0088625  49.2515373  91.4282417  58.1713009  48.6905432
  26.9086256  95.9954798  87.4503592  27.8406802  95.9136927  87.2483254
  26.8721667  96.6421425  88.1551520  47.0251361  54.1620636  21.4190364
  47.0699779  53.2429695  21.1554360  46.1310474  54.2754030  21.7415094
 106.3281727  58.6159420  48.1777573 105.6230545  57.9785538  48.0647182
 105.9261322  59.3335867  48.6672258  29.3310920  55.8078671  37.7578735
  29.4540779  55.0784206  37.1504068  28.5111705  55.6078243  38.2094860
  95.1013756  54.0123749  30.6692910  94.2056561  54.2260027  30.4080081
  95.5397034  54.8605728  30.7375884   9.8242942  63.9867020  29.5079279
  10.4875652  64.6745729  29.4518828   9.1530029  64.3478632  30.0868535
  89.9136829  43.7693214  36.2542701  89.0037918  43.5580826  36.4633441
  90.3271008  43.9159203  37.1050477  83.4520054  47.5619078  32.5661421
  83.7255383  46.9662714  33.2637262  83.8348484  48.4053469  32.8075504
 105.2578449  52.5909281  60.8897400 105.3812408  52.9844046  60.0259209
 105.7214451  51.7549324  60.8405638  94.1508865  81.3132477  77.1544790
  94.8989677  81.8822289  77.3357773  93.8210106  81.0685349  78.0190754
 106.5616226  65.7568216  36.1164665 107.5047588  65.8992481  36.1967945
 106.1869049  66.6374826  36.1005664   0.1071350  62.5364161  20.7026100
   0.6022350  63.0003357  21.3778043  -0.2418526  61.7649555  21.1490297
 106.8859482  40.8456469  53.5413122 105.9370899  40.7400703  53.4723520
 107.0524979  40.9058714  54.4819832   6.9590465  52.4857759  26.5639663
   6.0309497  52.7187634  26.5397406   7.2775451  52.6788139  25.6821895
  22.3544208  55.9391928  42.9805851  22.0209018  55.9149742  43.8774776
  22.2242347  55.0494337  42.6525354  14.7403900  87.5741577  57.5040197
  13.8135044  87.3397732  57.4573183  14.7774879  88.2760906  58.1537485
  98.0745792  34.5883274  56.6399288  97.5448704  33.7910843  56.6330624
  97.4859619  35.2640820  56.9762659  88.2074928  68.7770844  47.5577831
  88.3632374  68.7487221  48.5018015  88.4849072  69.6548700  47.2955370
  84.5001984  52.3333693  45.1262999  83.9329243  51.6084814  44.8636913
  84.0674496  52.7108765  45.8920956  91.0016727  54.0179920  54.5595503
  90.1602745  54.1270208  55.0027132  90.8782482  53.2543516  53.9957666
  87.6274681  27.5051332  19.3631005  87.9034042  27.1956158  18.5003793
  87.4019051  28.4253025  19.2265689   4.0732948  74.3086767  53.5174084
   3.1716339  74.6293259  53.5381031   4.4152538  74.6095896  52.6755381
  19.9075595  45.4823351  44.0643740  19.6813671  44.6557856  44.4908619
  19.4992820  46.1535692  44.6111727  98.6668682  54.7893906  45.4419947
  98.5500717  55.7171774  45.2375603  98.3950901  54.3326521  44.6459055
   9.3874542  67.7783012  38.0215335   8.7207977  68.3573723  37.6521111
  10.2192298  68.1706810  37.7561665  95.9209824  57.0841980  48.4441614
  95.0517464  57.0193434  48.0486250  95.7586670  57.0461035  49.3867302
  97.2198963  23.4790683  57.3914862  97.9560852  23.4571862  56.7801189
  97.5145245  24.0502620  58.1008244  61.4133644  56.1056137  13.2873702
  61.1871147  56.2651587  12.3710787  62.1906853  55.5483866  13.2486188
  14.0097419  46.3861227  46.5845776  14.6263782  45.6545305  46.6121626
  13.7987987  46.5563011  47.5026035 102.1994019  37.5833035  20.7007551
 102.9487991  37.8256464  21.2447214 102.4267864  36.7223644  20.3495932
  82.8309822  39.7171402  26.6034865  82.0519543  40.0713634  26.1746812
  83.1264210  40.4201078  27.1820903  99.3138695  63.0475187  50.2133512
  99.7474575  63.8711691  49.9901152  99.9819565  62.5433636  50.6778049
  27.2275821  65.6332541  18.5078514  27.9948703  65.6486177  17.9357779
  27.1959869  66.5103912  18.8897789 107.4502945  49.5268774  35.9171796
 108.0421162  49.3407965  36.6461158 106.7551517  50.0598574  36.3031101
   0.5187503  89.0679073  53.5155678   0.3619281  88.7652302  54.4100046
   1.3316051  88.6346912  53.2551575  74.2736578  65.0673676  37.5909424
  73.4805536  64.6458197  37.2600126  74.9805355  64.4667530  37.3547029
  83.1679536   4.3148888   5.0497552  83.9722348   4.0468729   5.4941961
  82.5693227   4.5496786   5.7587930  75.5337143  55.3227901  27.4506068
  75.4485512  55.8090687  26.6305375  76.2607765  55.7470608  27.9062462
   9.2555705  39.8123908  56.9893169   8.3899204  40.2089548  56.8912506
   9.4750015  39.9414492  57.9120445  20.8146659  95.0588989  31.1729074
  20.4450599  95.3465748  30.3381205  21.0680953  95.8693790  31.6146350
  87.0243168  71.4583874  26.9207478  87.5382996  71.9985342  26.3205051
  87.6248169  70.7641554  27.1921802 102.3213768  86.5002060  72.1253920
 101.4994240  86.8911171  72.4217463 102.8200912  87.2342777  71.7667246
   6.7146484  71.9505978  26.7476368   7.2204582  71.6541481  27.5042772
   5.9849445  72.4419260  27.1249461 104.3755150  45.3041458  43.4045267
 104.2146492  46.2351847  43.2511711 104.9995804  45.2852345  44.1300678
   7.5423137  56.9782066  38.0177236   7.6403419  57.8770494  37.7035451
   6.6867248  56.9664097  38.4467387  18.5954181  92.7647305  36.8766475
  18.4926692  91.8697453  36.5531254  18.6300174  93.3028126  36.0857582
   6.0450260  77.8885698  51.8656826   5.3302375  77.7158022  52.4784327
   5.6182853  78.2825708  51.1048317 106.4027309  72.1454287  33.1830215
 106.1204624  72.5653553  32.3704815 105.7247162  71.4945459  33.3643293
 105.7273293  42.4859667  72.7615833 104.9376869  42.3636436  72.2345829
 106.0039997  41.5980721  72.9881430  86.3863182  70.7556486  68.0981493
  86.9793224  70.2917576  67.5070620  85.9612751  70.0626659  68.6034632
  32.4069873  59.0517473  60.4562855  31.6326515  58.5859108  60.1406336
  33.0668155  58.9065599  59.7782087  69.6873140  78.1590319  21.1335874
  69.8866558  78.2145834  20.1990247  70.5421829  78.1900740  21.5630865
  88.1334496  73.8365793  20.5667663  87.2088337  74.0841770  20.5651212
  88.4231758  73.9985466  21.4645743  73.8016605  74.1391850  19.9981010
  73.5175180  73.3278465  20.4190850  73.7025785  74.8080206  20.6756496
   7.3239604  31.4747810  46.9601822   6.9508258  31.3078713  47.8257132
   7.5424568  32.4066663  46.9691992  99.9400425  66.5283442  14.4550312
  99.2913055  67.1013308  14.0463018  99.8141003  66.6563225  15.3952396
 101.7260551  63.1864357  31.4026833 102.5395966  62.7126360  31.2298012
 101.0341835  62.5626516  31.1825705  19.4928924  81.0102749  22.6629424
  18.8396350  81.5829372  22.2609997  19.0789787  80.1473045  22.6765180
  24.8676578  56.3391781  24.9640298  25.3258315  57.0562696  25.4023075
  25.5152599  55.9742880  24.3609500  92.2958851  37.0620131  31.8745637
  91.6818810  36.4269161  32.2431874  92.8752708  36.5404630  31.3191056
 108.1206417  64.1269493  68.9827633 107.8291512  64.9867678  68.6794949
 108.2535458  64.2374372  69.9242306  81.3382626  51.2358856  38.7622380
  80.5416298  51.5020370  38.3031392  81.0785484  51.1837816  39.6820569
  86.4275551  54.4196272  32.1287274  86.4414120  53.7938356  32.8528976
  86.4563847  53.8757420  31.3415909 100.0984764  58.6459684  53.4148359
  99.6541500  59.4801998  53.5660362 100.8694267  58.8757896  52.8961229
  15.1787082  62.1233177  46.4209747  14.9306861  61.2059212  46.5354109
  15.6699554  62.3392820  47.2136021  14.3154236  14.3440732  53.8276005
  14.6157261  13.9957150  54.6670628  15.0387474  14.1726025  53.2245827
  90.7409096  54.7530317  40.7971048  90.4954910  55.5654669  41.2397718
  90.0804996  54.1190386  41.0766411  21.3385955  47.4376202  30.8054781
  20.8570472  47.5679970  31.6223907  22.2541610  47.5885010  31.0404563
  56.5577841 101.5069008   2.8023598  55.9397411 100.8269405   3.0705154
  57.0053196 101.7561722   3.6109450  96.9548702  44.1151619  46.2922859
  96.6418266  44.9016953  46.7390537  96.6034794  43.3902073  46.8091917
   0.8768073  69.3405104  24.2721748   0.6499664  69.6685362  23.4020138
   1.2322132  68.4660435  24.1133451  19.3094245  73.6220360  57.4143934
  19.0727989  72.7112293  57.2392654  20.0640766  73.5650110  58.0004549
 100.5810833  96.0674095  65.1655817  99.8880863  96.0121536  65.8235550
 101.3652706  95.7549191  65.6168365 104.3142891  48.3920765  27.4238324
 104.1145706  48.6453915  26.5226245 104.7650814  47.5516367  27.3420906
 105.3344822  82.9550457  45.7550240 104.6553326  83.5737228  45.4862881
 105.2719402  82.9305840  46.7098665  98.4548855  81.2917614  50.6579208
  99.1221333  81.1854649  51.3359451  98.8479614  81.8954372  50.0275993
  10.7634441  90.1428223  60.2527475  10.6913558  90.0700760  59.3010426
  11.3790599  89.4527245  60.4997587  69.9487448  71.4787817  43.7192154
  69.1041374  71.5729189  44.1596746  70.1638365  70.5504513  43.8095760
  16.7169277  86.9630337  55.5069971  17.5975410  87.3167133  55.6321096
  16.2438861  87.2117138  56.3011169  78.9008665  95.6752968  52.3433161
  78.1408501  95.0941277  52.3143196  78.9816427  96.0087299  51.4497089
  79.6512938  98.4669971  23.0351281  78.7138748  98.2740116  23.0196500
  80.0722694  97.6233006  22.8702235  28.2390872  66.5475893  54.9110174
  28.4968273  66.7729759  55.8048820  27.5584880  65.8831310  55.0183249
  92.4587917  78.3875036  70.6447268  92.3917198  78.7171698  69.7485924
  92.6736736  79.1593790  71.1684275  28.5254756  74.7134924  48.4412813
  28.0705825  75.3171444  47.8539944  29.4216529  75.0474644  48.4807920
  79.6997595  63.6812019  65.1000690  80.5344486  64.0227413  64.7793198
  79.9157333  63.2665300  65.9353161  10.1209060  90.4133797  71.8187904
   9.8135559  89.7002125  72.3783970   9.4169132  91.0612774  71.8481493
   4.9514624   7.9860219  23.4851766   5.0448557   7.1013745  23.8386178
   4.1286560   7.9631146  22.9966092  32.0317451  64.6839333  32.4420643
  31.8927566  63.8610983  32.9109502  31.1554328  65.0576878  32.3492551
 109.6264409  49.1357308  89.9686333 109.4607400  49.3074795  90.8956056
 109.3213176  49.9246525  89.5205984   0.2131119  31.8842470  75.2510945
   1.1308232  32.0609319  75.4580275   0.0651255  30.9911382  75.5620423
  54.7804451  14.7611928  62.7151775  54.0449047  15.3733838  62.7360153
  55.5303478  15.2776539  63.0103779  71.5360069  10.5922651  24.7112608
  70.8807516  10.8669734  25.3526735  71.9160080  11.4105713  24.3915606
   0.2391616  31.4782858  39.9928832   0.7685748  31.4334464  39.1966772
  -0.0261696  32.3960280  40.0527143 109.6568966  27.7443933  11.3631821
 108.8882637  28.1616306  11.7522204 109.5217228  27.8261757  10.4191101
  43.6044974 102.7848481  38.9377975  42.9961009 102.0472372  38.9826798
  43.3758159 103.2347966  38.1244802  41.3084169  92.3483900  30.0934172
  41.6772409  93.2304231  30.1405096  41.2098212  92.0809070  31.0071802
  91.9270897  10.4370761   7.1085590  92.2306728  10.6823587   6.2345445
  92.6228714  10.7329404   7.6955760  55.6232023   2.5795761  44.3322372
  56.1937618   3.1958061  44.7915316  54.7424221   2.7938730  44.6397066
 107.5830506  56.4847719  85.3928331 108.1516360  57.1863964  85.0755534
 107.8427123  56.3603943  86.3057054 108.9242743  26.6772782  88.8174074
 109.3321656  27.5375664  88.9162133 108.5598325  26.4843666  89.6812349
  54.3402286  65.1108328  36.4535975  53.8988204  65.5061618  35.7018638
  54.2982669  65.7810751  37.1356869  58.4043598   4.4137034  42.5116873
  57.7008533   5.0621223  42.5410557  59.0216160   4.7590393  41.8667269
 100.3273678   7.5993329  43.2223511 101.1603260   8.0705994  43.2045364
  99.6890926   8.2518840  43.5104799  87.0206924  91.8978981  25.5061793
  87.3988052  91.1226395  25.0911689  87.1560569  91.7579452  26.4433670
  84.0674210  19.4504821  51.7998171  84.2895412  19.5381236  52.7267551
  84.5070934  20.1883507  51.3773632 107.8387451  26.1597729  49.5969820
 108.5164833  25.9825969  50.2492952 108.2071304  25.8362269  48.7748909
  36.8680978  16.1108911  46.3752222  36.6423249  15.5171371  47.0912647
  37.7526021  15.8505821  46.1180830  63.4664392   8.6229211  16.0463631
  62.8606606   8.5240561  15.3118658  63.3418941   7.8300279  16.5679395
  49.3833685  37.6743126   7.5083745  48.5029316  37.3208618   7.3813260
  49.7248363  37.1998930   8.2663703   4.4166370  98.7238178  18.9467895
   5.1507659  99.2274419  19.2984247   4.2295404  98.0706004  19.6209812
   2.1723071  37.1139956  28.1566525   2.2579662  36.3139367  27.6381946
   2.6432887  37.7775979  27.6526332  74.6611881   6.6074604  26.7775702
  74.5715952   5.8686870  27.3795819  75.5178738   6.9815892  26.9833612
  59.2405601  94.5270375  41.3552904  59.6901221  95.0625769  42.0089912
  58.5145755  94.1255609  41.8327713  91.4957047  46.0846949  22.3071098
  91.0671806  45.4092216  22.8327799  92.3883724  45.7619047  22.1838927
  98.9088631  31.7912269  18.9375889  98.5346889  30.9658194  19.2456961
  99.2147160  31.5994191  18.0510843  23.9132643  17.7531660  43.1143522
  23.1220770  18.2906890  43.1507587  24.2825174  17.8104722  43.9955997
  93.9515972   4.3780956  33.3975768  93.1064701   4.1486636  33.0111122
  94.0825939   5.2959037  33.1594610  42.7312751  93.3147017  55.2893353
  41.9633193  93.6533013  54.8290968  43.0532832  92.6077643  54.7300673
 106.1614990  25.2443480  30.5082965 106.8372250  24.9332356  29.9059391
 105.5640697  25.7501864  29.9574423  79.4952440  19.3898726  21.4565563
  78.7830448  19.0057445  20.9452415  79.3926764  20.3341937  21.3383698
  88.9793777  25.8791757  44.1252851  89.4388103  26.1260843  43.3226681
  88.6103535  26.6996908  44.4521046  40.9079361  44.0366602   1.1430626
  41.6375875  43.4223795   1.2236862  40.2101898  43.6505747   1.6725123
 102.7544498   9.4964164  28.9763212 102.3314095   9.2104596  28.1666923
 103.3773804  10.1673675  28.6970210   7.7834026   8.2565856  21.1369681
   7.7765933   8.5948664  20.2415633   7.1432105   8.7956351  21.6015267
 106.9657420  89.5784795  84.7218499 106.5402125  90.4321134  84.6414134
 107.1152305  89.4729602  85.6613979   4.9087849  99.9719059  67.6086310
   5.8418742  99.8093187  67.4702791   4.6092692 100.3618824  66.7873887
  78.6085701  20.5624533  47.6229572  78.8695621  21.4597821  47.4158001
  78.6282301  20.5219746  48.5790968 104.6894883  76.9811666  69.8648218
 105.0684403  76.2949979  69.3154601 105.0421714  77.7961337  69.5075039
  61.1216922  99.6227673  63.1609821  61.6860099  99.1875992  63.8000441
  60.2320285  99.4110313  63.4436607  59.3782091   0.7246172  62.4265909
  59.0752220  -0.1236925  62.1028566  60.2545547   0.5507696  62.7701378
  74.8101664  28.2021213  40.0409174  74.9389267  27.5830388  39.3223166
  75.5871248  28.0967307  40.5899668  38.7962670  98.4527246  25.8358955
  39.0392776  98.3566079  26.7567325  39.0782781  99.3377880  25.6048870
  13.2372752  74.0636623  90.4990797  13.6765280  74.4995916  91.2293241
  12.8192225  74.7740852  90.0124987 100.9849548  50.0577021  36.8948007
 100.9441566  49.3039703  36.3061905 100.0882339  50.1618767  37.2130418
  37.8404808  17.8489602  70.1505852  38.4389496  17.9030550  70.8956623
  38.2025790  17.1526754  69.6025848  75.7688904  23.5754108   8.2661802
  76.6975069  23.4166384   8.4355754  75.7568693  24.3516135   7.7061856
  26.8812986  98.8422135  58.8805866  26.0020919  98.4698353  58.9481258
  27.1290202  99.0369294  59.7844410  46.7173572  89.4090906   5.7610130
  45.8354945  89.3006829   6.1170936  46.9142814  90.3372482   5.8874232
  76.5170093  92.3398260  61.6861343  76.6876979  91.3995067  61.7399406
  75.7008548  92.4632195  62.1708107   1.0193149  62.9849100  28.5898662
   1.9551078  62.8316927  28.4592772   0.6542198  62.1147203  28.7502313
  65.8279800  34.4951987  27.7639461  66.4960337  34.8955703  27.2074962
  65.0015926  34.6829057  27.3188758  78.6655474  27.4875379  30.6515813
  78.8596344  26.7827559  30.0336480  78.9338923  28.2857370  30.1964951
  81.1222839  30.3881788  45.6026793  81.8636322  30.5608034  46.1830521
  81.4009762  30.7254887  44.7513342 105.1632977   8.0880201  62.9875278
 105.2680683   7.1531212  63.1642103 104.8843956   8.4601092  63.8241816
  23.6748209  36.7781937  75.3069082  23.3421984  37.0732212  76.1545829
  23.2365313  37.3409533  74.6686033 106.2834262  20.1997649  77.8316513
 106.3405322  21.0093414  78.3391503 105.4438304  20.2613723  77.3761049
  66.2676096  21.9062090  57.0387077  66.2725401  21.0426044  56.6259146
  65.3840876  22.2404933  56.8841887  16.3904086  56.4856553  71.5087155
  16.0907355  57.1496892  70.8878390  15.6099310  55.9646061  71.6974012
  87.5440216  31.1893725  23.1463265  87.3503590  30.2556896  23.2297635
  88.0190659  31.2624073  22.3185396  94.1146469  29.1658306  23.3429885
  94.6980572  28.5931540  23.8408947  93.6301041  29.6523476  24.0098786
  73.8724227  97.3292885  22.7609825  73.8370605  96.6114435  23.3931851
  73.8871951  96.8962470  21.9074655 109.8887062  53.6073685  45.8554935
 109.7532749  54.3330479  46.4648247 110.6852913  53.8404703  45.3786850
  80.6970401  95.9755776  22.5237250  80.7317062  95.2653596  21.8829274
  80.4335303  95.5495760  23.3393955  77.0672226  18.2389331  43.1890392
  77.0678759  18.5277867  44.1016150  77.5415230  17.4075878  43.2006168
  11.3990871   0.6795574  12.9517984  11.9288627   0.0597553  13.4532082
  11.1903087   1.3752973  13.5751700  69.9770260  29.0293217  10.8502531
  69.3012714  29.3189692  10.2373147  69.6326351  29.2600846  11.7130244
  87.1329403  11.2344456  46.7148542  87.6274490  11.9327033  47.1439552
  87.5311661  11.1568642  45.8478880  47.5843425 101.5464405  20.4150248
  47.1162028 101.0009453  19.7829509  47.3994346 101.1428056  21.2630343
  63.8698478  90.2124766  42.4349594  63.1945987  89.9452058  43.0585241
  64.4467158  90.7870582  42.9382563  71.4468479  14.1198862  20.2363038
  72.1580124  14.2536879  19.6097457  70.6932306  13.8822806  19.6960866
  60.1154661  31.9809508  27.8620291  60.4640865  32.5866699  27.2079635
  59.1693497  31.9905186  27.7171183 102.1188259   5.6793445   0.9382963
 101.3554955   5.4415238   1.4646032 102.0100498   5.1890910   0.1234030
  69.4064803  97.6813361  55.0942755  68.5618301  98.0924789  55.2780199
  70.0480361  98.3765957  55.2400303 107.2481728   8.9548916  37.1101236
 106.3503361   9.2063200  37.3266983 107.6391029   9.7503644  36.7486978
  11.4103403  69.6095848  83.7270853  11.4805308  69.4702899  84.6714911
  10.5806723  70.0734615  83.6144069  95.5776261  29.0285551  70.8931652
  96.1503743  28.5443461  70.2984146  95.8509206  28.7512385  71.7675999
  33.5727210  91.3511149  44.5546865  33.4485145  91.3385681  43.6056614
  33.9455075  90.4934469  44.7588110  12.8122225  71.3192963  86.1172095
  13.1558886  71.3224649  87.0105812  13.3814135  71.9226420  85.6394831
  18.5699935  95.5199263  22.4315047  19.3477101  94.9627421  22.4620271
  18.5329004  95.9270284  23.2970238  90.1152325  44.5541859  33.6079907
  89.6622562  43.8002491  33.2303333  89.8709965  44.5414495  34.5334196
  87.9869366  49.6110201  16.8923676  88.8787079  49.2804337  16.7842305
  87.4964237  49.2173624  16.1708021  80.6106758  29.6066785  42.7814770
  80.6162739  29.0088367  43.5289955  81.5233421  29.6403503  42.4948788
  10.4298965  25.8896685  50.5166054  10.7686416  25.4233408  51.2808180
  10.2750484  26.7810464  50.8291721  53.7428851  88.8277129  28.4196591
  53.6443515  89.4750181  27.7214360  54.3511863  88.1807498  28.0623817
  98.8120747   1.5613066  24.5048976  99.5106792   0.9251754  24.6582699
  98.0140495   1.0345988  24.4604468  18.5336199  53.4770404  86.3756452
  18.3809176  52.9108392  85.6191209  17.7735796  53.3335111  86.9395271
   3.4558765  27.2115588  20.0322652   3.4630863  27.0769262  19.0846086
   4.2308895  26.7457318  20.3462672  83.8213916  99.5637581  17.0612228
  84.1638656 100.3174329  16.5806842  84.2390247  98.8072661  16.6494739
  99.3271065  34.3989372   6.5133405  99.6732807  33.5140514   6.3976979
  98.8448620  34.5749450   5.7054460  50.3821559  81.2469903  35.3722262
  50.5879016  82.1458140  35.6291580  51.1480804  80.7397381  35.6410933
  87.1645355   4.3875954  51.9719410  87.3374748   3.7584928  51.2715435
  87.5703812   4.0001845  52.7474594  39.8603272  34.2812157  23.0398440
  39.5518565  34.7349882  22.2555161  40.4703379  33.6212301  22.7103996
  70.3612280  12.6258326  26.1421895  70.6099319  13.5174143  26.3860321
  69.8239613  12.3188305  26.8724823  71.7866039  24.4619727  42.9033566
  72.1655560  23.7675738  43.4422827  71.4261627  24.0054393  42.1431637
  19.3763439  58.7102318   9.2525858  18.9830009  59.5827484   9.2375088
  18.7488071  58.1565428   8.7879813  79.1399145  15.7652807  43.9230156
  79.8738337  16.3199508  43.6585522  79.0616131  15.1203787  43.2200193
  78.6225367  39.5357442  35.7202363  77.7025938  39.2741537  35.7590461
  79.1030884  38.7112164  35.6463742  49.1464229 104.5136416  61.9191980
  48.2479472 104.8071360  61.7681217  49.4132037 104.9622275  62.7215910
  63.5780954  25.4641151  66.5168858  64.2105579  24.7635603  66.3573599
  63.9399862  26.2224770  66.0584545  32.0798440  84.8859612  57.9221773
  31.1704869  85.1141373  58.1151342  32.5901504  85.6125692  58.2797527
  63.2727528  26.0324860   3.7110373  63.2799530  25.9118986   4.6605840
  64.0454102  25.5584860   3.4035391  62.5779343   8.8771439  46.5825272
  62.6925850   9.7876710  46.3104486  61.6703463   8.6724144  46.3575792
  61.0809517   4.8015857  66.4889765  61.5548468   4.1330087  66.9836044
  61.2596655   4.5928246  65.5720758  65.5260658  18.4613979  25.9016323
  65.1982307  19.3599379  25.9387922  64.9826145  17.9821038  26.5270662
  95.4599094  35.5833292  21.1016893  96.1048126  34.8794007  21.0323358
  95.9714031  36.3530803  21.3508582  73.0181599   5.4899514  35.5956364
  72.4843884   5.9067374  34.9191689  73.6322451   6.1711454  35.8696985
  98.0007935  24.0521741  43.2827520  97.5914192  24.7833943  43.7453079
  98.2394123  23.4348083  43.9742374  93.0473423  10.3523147  26.0865116
  93.6724663  10.2011931  25.3775620  93.5633564  10.7705402  26.7757487
 102.3379707  32.2847652  43.7418795 103.1108284  31.9692612  44.2102528
 101.6879940  31.5917492  43.8580751  73.1220579   7.2477973  70.3796053
  72.7741337   7.3031491  69.4895983  73.8401365   7.8805155  70.3958368
 102.3960018   0.5214284  43.3360481 101.8473148   1.1571185  43.7954712
 101.7751503  -0.0365525  42.8676081 109.4834900  62.0677710   1.4763893
 109.3597698  61.6292572   0.6345874 110.3942490  62.3619318   1.4616382
  91.2790680  41.5958071  66.4231205  90.4676819  42.0462990  66.6575050
  91.9699287  42.2278643  66.6217518  74.3869209  13.5414886  30.9342575
  74.8572826  14.3736994  30.9834075  74.2134857  13.4191549  30.0008821
  66.6029310  16.7280483  14.6990919  66.0058212  16.9988775  14.0017068
  67.4588633  16.6740668  14.2740107  66.4724255  27.1076083  24.3972778
  66.7703485  27.3794794  25.2653551  66.3608456  26.1595964  24.4683766
  68.4279394   1.5859839  56.1787033  69.1093779   1.0089061  55.8339500
  68.7936306   2.4663959  56.0928202  78.8541842  21.5899181  33.5409117
  79.7950888  21.7463827  33.6212063  78.4525824  22.4340701  33.7467217
  33.7408967  91.1386016  62.4717760  34.3539949  91.8155697  62.1853209
  32.9462047  91.6184178  62.7051783  71.4374781  22.6917148  10.1716471
  72.2649431  22.3878574   9.7985446  71.6945934  23.2102346  10.9340525
  54.1944408  31.4278412  10.4470885  53.5983181  32.1692133  10.5530977
  54.4824362  31.4804840   9.5357609  77.9190540   3.0997425  10.7303548
  77.5961971   2.7557579   9.8974872  77.5482368   3.9804640  10.7856202
  27.7744937  19.0611708  51.3559532  28.2936430  19.8313177  51.1244535
  28.2706332  18.6400449  52.0579052  73.9262772   9.8720288  13.7184942
  74.3892670  10.6843841  13.5136747  73.1240606  10.1573002  14.1558707
  98.7236786   5.5140215  35.0700593  97.9551792   5.6024528  35.6338072
  98.4666157   4.8654541  34.4146895  83.1661510  32.5818038  14.3569279
  83.2192230  33.0303454  15.2008617  83.3619976  33.2612920  13.7118137
   8.8891212  47.5897980  59.1429186   9.1720573  47.6349878  58.2296085
   9.5621482  47.0651245  59.5764828  65.6442828  99.1598359  30.6942201
  65.9056945 100.0754199  30.5962276  66.4111514  98.6604515  30.4135847
 100.7649136  38.9940572  51.5676451 100.8839130  39.8999286  51.2822199
 101.2378502  38.4741116  50.9178638  62.2798534  89.5357696  31.5895867
  61.6630931  89.3671659  30.8772564  62.4654193  88.6709395  31.9554615
  74.8505306  38.9489937   6.8943393  74.4247770  38.3517146   6.2793428
  74.2223215  39.0433884   7.6103520  71.1484051  13.4504902  28.8590884
  71.2540436  14.1104245  29.5443320  70.2679491  13.6011970  28.5151172
   7.7651778  97.1814787  65.7672933   8.6382285  96.8106567  65.8957819
   7.7590838  97.4690353  64.8543266  79.3180037   6.6595584  10.8033836
  78.9382315   7.4808061  11.1157250  78.5780048   6.0537958  10.7623684
  91.6402149  12.3037314  61.3619995  91.6017056  12.7222693  60.5020142
  91.8103313  11.3811398  61.1719608  59.6453857  14.6716917  45.0713825
  60.2014685  15.0174308  44.3731928  59.0873432  15.4085290  45.3201628
 102.6016712  18.1735992  32.7854061 102.0318604  18.8979864  33.0438709
 102.0234394  17.4111998  32.7603579  18.9084716 101.9193832  54.9833918
  18.9838739 101.7624385  55.9246206  19.2342038 102.8112911  54.8624372
  52.4917026 102.4736974  45.8367491  52.6715369 102.2188199  44.9318027
  53.3055682 102.2865376  46.3045406  32.0160575 102.2162012  15.3722858
  32.0520349 101.6464195  16.1405873  31.5559240 102.9987583  15.6757891
  83.8732147  10.1219499  19.9794030  84.7447014   9.8206598  19.7225678
  84.0365028  10.7755256  20.6594086  50.8171649  93.7425927  34.6676445
  50.4300494  93.7528423  33.7922764  51.0815520  92.8324905  34.8019695
 108.5775948  13.7385929  31.5068102 108.9227104  14.3050778  30.8167243
 109.2907047  13.1283569  31.6947317  76.1726852  87.8707663  28.6059260
  76.3355441  87.1169785  29.1729474  77.0385261  88.1173483  28.2807207
  85.1551247  42.1977472  37.7541351  85.4376698  42.8244638  37.0880842
  84.1994953  42.2049809  37.6997733  68.3713293  43.5213947  26.4102268
  68.5358620  44.2438173  27.0162511  68.7284565  43.8233232  25.5750442
  44.4976425  19.0614486   0.7931089  43.6588907  18.7589312   1.1412609
  44.8391676  18.3116543   0.3058678 101.1586285  12.9982245   8.9175099
 100.5044842  12.8243876   8.2406747 101.8594170  13.4624934   8.4597015
  49.5271583  79.8015467  72.5928640  49.6040626  79.6867028  71.6456938
  48.8829417  80.5017010  72.6977158  97.9898643  25.8999467  55.1989603
  98.8251495  26.1155558  55.6137466  98.0229855  24.9517226  55.0724459
  60.4956245  12.5885415  59.9126530  60.5430365  12.2781026  60.8168745
  60.5631685  13.5407972  59.9825001  70.1483817  95.9234056  38.6125875
  70.5875392  95.1226458  38.8992119  69.8209281  96.3192240  39.4202590
  96.9193363  16.4534068  58.6860943  97.3773384  15.6807113  59.0168667
  97.5951004  16.9558024  58.2309246 110.6124115  65.2243471  28.7024546
 110.1294804  65.4899979  27.9198670 111.2335968  64.5670271  28.3889484
 100.4128742  47.3595953  59.7934771 101.0548782  47.9833221  60.1326180
 100.8642387  46.5157700  59.8149157 108.5526180  38.4923196  54.9961901
 108.6365128  38.4809709  54.0427399 108.4159184  39.4144154  55.2136374
  95.7825279   3.9397791  65.3361511  95.3187752   3.1114656  65.2134371
  96.6355896   3.6866832  65.6889534   4.8785869  49.5813036  25.2220106
   4.3081180  49.9893045  25.8734131   5.4281036  48.9817667  25.7268167
  91.5672207  53.9681149  34.8170400  90.7799053  53.5524225  34.4655037
  91.2876225  54.3428516  35.6522822  87.5295067  16.8096209  61.0617399
  86.8324089  16.1558342  61.0082674  88.2306671  16.3731086  61.5455294
 107.1151638  29.0079904  37.8120446 107.2995758  28.1095934  37.5379896
 107.1751404  29.5212722  37.0063305  72.4998522  31.6410255  33.9162803
  71.6078949  31.8306661  33.6252785  72.5686407  30.6873393  33.8717699
  96.6333389  36.5337706   6.0011685  96.3883209  37.3584437   5.5815065
  96.2547398  36.5897632   6.8785310  34.4727413  58.4476137   3.0131087
  33.6597053  58.5089064   3.5145468  35.1434127  58.2515144   3.6673096
   4.3257133   0.2739598  37.3893428   3.4141151  -0.0051159  37.4750376
   4.4745914   0.3191232  36.4448690   3.5378925   6.9863158  28.5903072
   3.6566917   7.0924240  27.6464534   3.2682315   6.0740709  28.6967111
  96.0098839  33.6926794  17.8569269  95.4969311  34.5000076  17.8204501
  96.5880108  33.8100910  18.6107230  21.8516914  14.4834864  18.3613896
  22.7594940  14.5165336  18.6631179  21.3643733  14.1315341  19.1062939
  89.2145920   0.9089477  13.6520159  88.5759449   0.6001211  13.0093777
  89.0685081   0.3560834  14.4196308  97.2856331  54.2264986  50.2473354
  96.6713333  53.9077282  49.5860815  96.8902206  55.0358057  50.5712271
  69.0347576  23.5545421  25.9819102  69.2058229  22.6292753  25.8062673
  69.0939808  23.6325169  26.9340897 105.7978344  35.9294367  46.9483471
 105.4051399  36.7719603  47.1767664 106.0103321  36.0084915  46.0183859
  95.0607204   3.0744371  19.3623757  95.3979015   3.8758180  19.7627902
  95.3976345   3.0941588  18.4666443  78.0413055  18.8208687  45.6834888
  78.2411528  19.4388044  46.3866615  77.6799583  18.0563438  46.1320019
   6.2625972  19.1395688  48.1352472   6.0460750  20.0183272  48.4469080
   7.2190086  19.1274178  48.0983496 101.8860340  31.6879988  40.9888887
 101.8132782  32.0213747  41.8832016 101.6410351  30.7651639  41.0566092
  81.0208797   8.6156267  16.6003609  80.9761620   9.3793750  17.1756184
  80.1491928   8.5592490  16.2089205  15.7604877  28.9646316  14.5830560
  16.1094562  29.8133159  14.8554277  14.8402397  28.9887071  14.8453653
  79.9942303  37.4658608  34.9545550  80.9092617  37.2936082  35.1765370
  79.5715618  36.6081572  34.9984789 103.4758377  22.1750569  24.8860788
 103.8959694  22.3252916  24.0392280 103.1519318  21.2756920  24.8365569
  89.6461868  24.0464115  49.2396736  89.1919899  24.4170833  48.4830093
  90.2233887  23.3787537  48.8691235 101.5816116  36.7627621   1.6695561
 102.2346401  36.4041471   2.2705343 100.9505749  37.2048235   2.2375496
  99.9260330  42.2028542  42.2084475  99.9518108  41.6681576  43.0019617
  99.0008354  42.2241735  41.9639444  84.8466015   5.5961746  11.6014183
  85.4513550   5.8479607  10.9034860  84.3105793   4.9033606  11.2155080
  97.0913219  53.7349176  33.4856606  96.4783764  53.7991858  32.7532697
  96.5401268  53.7988901  34.2656088  83.8623519  93.9786402  15.1347327
  84.0161319  93.0376462  15.2190757  82.9296394  94.0517131  14.9323833
 103.5953045  43.2790804  49.7914696 104.3371582  43.8636589  49.6360540
 102.9939556  43.4578276  49.0685129  94.9782944  32.2797418  36.8394208
  94.0995502  32.0798826  36.5167713  95.5488491  31.6667843  36.3757563
   1.6667644  44.3855095  67.5783300   2.6198188  44.3590498  67.6632500
   1.5026466  45.0755692  66.9355917  70.2024078  38.4352255  25.0488687
  70.0406218  37.8952241  25.8224678  70.0753641  39.3338227  25.3531957
  88.7101078  25.8461356  30.3220987  89.1587162  26.6179371  29.9766874
  87.8792572  25.8196211  29.8475218   5.9938613  26.7580199  32.7703047
   5.9990779  26.8091488  33.7261224   5.4915325  25.9668493  32.5755072
  73.5729313  23.0021095  49.1206408  74.2138672  23.6592937  48.8494539
  73.8037443  22.2207952  48.6181450  96.4177322  48.8563251  24.5960784
  96.8574142  48.0068827  24.6329188  97.0391369  49.4651794  24.9953079
  92.4833393  53.5896158  44.5123768  92.5804424  54.5265675  44.3423176
  91.8724442  53.5417032  45.2477312   8.9075939   0.6359538  40.3069782
   8.4807292   1.2525988  39.7121954   9.5149509   0.1481155  39.7507715
  49.2175479  93.7337557  32.2911191  48.8306995  94.6084229  32.3303914
  48.6561198  93.2505611  31.6848564  66.8743320  86.1221496  64.0851498
  66.8016811  87.0643369  63.9327145  65.9686465  85.8137468  64.1145563
  11.3229267  36.2463570  41.2888861  11.0371772  35.7328081  40.5333424
  11.4734165  37.1243644  40.9386206  85.7232571  22.6113629  30.2472043
  86.1712456  22.9230213  29.4608140  86.3868713  22.1056628  30.7163692
  92.1139431  26.3361025  73.2496452  92.3678207  27.2155714  72.9698038
  91.5032482  26.4816284  73.9722157  11.8685237  12.3251891  36.5291381
  11.5490619  11.4247394  36.4711237  11.0837737  12.8645027  36.4314413
 105.8648014  37.9532909  43.7008524 106.2000179  37.0567608  43.6913300
 106.3604927  38.3869791  44.3954277  11.3654319   4.2711630  29.3332410
  10.8787242   4.3779469  30.1505184  10.7669822   4.5850343  28.6553192
  90.1011753  44.0958881   6.5604103  90.1362610  43.5015249   7.3098975
  90.5836010  43.6402273   5.8705825 103.1744194  32.2837424  18.0194688
 103.5165215  33.1749535  18.0897617 103.8518333  31.7352605  18.4150863
  78.1961155   5.6402874  21.1814380  78.6266661   5.2827877  20.4048729
  78.8975430   6.0773760  21.6643333  52.4105826  80.5282080  90.4099154
  51.9657984  79.6833694  90.4781367  53.0313864  80.4146278  89.6902410
 105.1856041   2.7948186  59.3052006 105.8196449   2.2762263  58.8099432
 104.4099331   2.8234830  58.7450647  56.5522909  25.8298349  34.0756845
  55.7430696  25.8977532  33.5689521  57.2332668  26.1486983  33.4833765
  68.1172271  99.6127287  44.5454311  68.9423938  99.4459555  45.0009823
  67.5129028  99.8843351  45.2362585  96.0190582  17.2747850  67.9235935
  96.9717216  17.3311412  67.9977274  95.8530140  17.2533047  66.9811487
  89.5576954  35.2513885   5.7805473  88.8318253  35.8472371   5.5953383
  89.6839237  35.3146744   6.7272747  89.7853184  23.3428979  31.3454914
  90.5690193  23.4068513  30.7996392  89.2752647  24.1221523  31.1244965
  15.3518669   9.7122836  27.9704666  14.6156303   9.3501437  27.4774790
  15.6013290  10.4987633  27.4852300  98.1357384  43.9572620  25.7589483
  98.2858944  44.1080093  26.6922021  98.3341312  44.7975349  25.3456473
   8.5768596  53.1292534   1.2733245   8.6024372  53.9988232   0.8740430
   7.8912918  52.6651573   0.7928592   5.5874911  78.6760342  90.5813319
   5.1452961  77.8417337  90.4243736   4.8907891  79.2659485  90.8691489
 103.1354046  19.3428957  40.7045698 103.5540485  19.9896073  41.2726688
 103.7903404  18.6519909  40.6048870 102.7051640  14.1574061  18.7284672
 102.3017502  13.7146890  19.4751191 103.6452961  14.1124952  18.9027357
  76.8682051  51.9907284  14.6479070  77.5043964  51.3297606  14.3747592
  77.2227287  52.8157806  14.3164885  42.8518911 100.3759838  12.8972697
  42.3511548 101.0524855  13.3531666  43.7604137 100.5385864  13.1509864
 100.5422020   8.7023956  36.6930461  99.9349880   9.4100308  36.4767718
 100.8734703   8.4038150  35.8460855  93.7176704  12.8966713  23.6023402
  93.5951900  13.7138975  23.1192541  93.4771061  13.1126606  24.5032907
  16.0420791  15.3797781  23.5376930  15.1803390  15.6150341  23.1937456
  16.1678783  14.4703102  23.2669997 109.6036720  31.8693614  51.3000584
 108.9543533  32.4415207  50.8910942 109.1485691  31.4893079  52.0515060
  38.1672850  85.1670801  83.4553847  37.9868403  86.0329520  83.0894080
  37.7819434  85.1921999  84.3312368  97.5864410  20.2473021  51.9855499
  96.9729519  19.9140728  51.3307047  97.4364471  21.1926293  51.9951296
  71.6602564  41.6885567  32.9691505  71.6553068  41.9327068  32.0436239
  70.9899902  42.2441435  33.3670068  93.6564159   6.0378599  11.0794508
  93.1761169   6.8462694  10.9005260  94.1699505   5.8838671  10.2864826
  97.9787159  24.1954136  34.0708876  98.1541824  24.2444253  33.1311846
  97.2976017  24.8507953  34.2218637 103.3767986   9.7045898  46.3665247
 102.9376698   8.8826013  46.1480570 102.6928997  10.3696930  46.2881613
   9.8150913  16.1546791   6.9341731  10.5089752  16.7975521   7.0807159
   9.3890563  16.0636175   7.7864826 104.6631241  11.7690086  62.1697092
 105.0773621  11.8774438  63.0257940 103.8066387  12.1859908  62.2635221
  36.8985358  85.3109037  85.9146584  37.1091833  84.9434268  86.7730412
  35.9780207  85.0870692  85.7776437  50.1862235 101.9892177  35.5093575
  50.5221267 102.8838298  35.5648184  50.5715461 101.5415800  36.2626052
  14.8892490  38.1692767  31.3855672  13.9438812  38.0248737  31.3449621
  15.2389804  37.6759934  30.6435490  84.2437649  24.8727274  21.9744706
  84.4606018  25.7957959  22.1054649  83.5072613  24.8841214  21.3631868
  98.1106949  10.8876240  23.5814404  97.9442310   9.9825484  23.8448024
  97.8361893  10.9248078  22.6652002  31.7444506  58.4903788  76.0454920
  31.3679972  57.7745461  76.5574530  31.5826121  59.2727774  76.5726474
  79.7129345   5.7270551  23.8720298  80.5722046   5.3138006  23.9563799
  79.8787117   6.6574937  24.0237999  99.7820759  40.0743055  23.0100703
  99.5267105  39.6154928  23.8103914 100.2852345  40.8286810  23.3166289
  86.5218639  15.5858302  21.2522149  86.5922451  16.4988339  21.5309691
  86.0841465  15.6280470  20.4020095   9.5668785  26.4007330  12.8038836
   9.0125076  25.6509829  12.5875974   9.4664470  26.5079117  13.7497473
   8.4868137  58.6902285  35.5579281   9.2106429  58.0752563  35.4391265
   8.9013282  59.5529556  35.5473232   9.4025794  52.4258661  48.1689072
   9.1538993  51.8816233  48.9160299   9.0084640  51.9899654  47.4133301
  78.7004232  45.6722546  11.1846793  79.0428019  45.0763750  10.5183911
  77.8226089  45.3408813  11.3740528 106.1243153  13.0419207  12.8276587
 106.2163448  12.3752892  12.1469498 105.4327679  13.6197793  12.5050485
  93.7039471  72.2798300  12.4252594  94.6373940  72.0679569  12.4274492
  93.3059025  71.6140413  12.9860854  93.7942028  39.0176845  33.5020232
  93.7279797  38.0761504  33.3427644  92.9067993  39.2826700  33.7439537
  99.4922638  69.4064522  27.6090527  99.2288399  68.7282038  26.9871044
  99.9903488  68.9372540  28.2783747  74.1159582  31.7811537  11.6973746
  73.4815693  32.0592332  11.0367274  74.5539999  31.0255408  11.3057148
   8.0728141  55.0315475  30.9367609   8.4671585  55.5738115  30.2536273
   7.5160686  55.6344128  31.4295316 101.5328121   5.1277357  33.6629272
 102.3304081   4.8107511  33.2391381 101.7219067   5.0743252  34.5997405
   9.3370811  26.0945129  53.8020658   8.5376922  26.3579679  54.2579079
   9.6011154  26.8732500  53.3120775  15.0966827  49.0500593  16.4786816
  15.0989715  49.1167068  15.5238080  14.7149555  48.1907558  16.6578853
  90.1793480  61.4542246  29.6820331  90.8139420  61.1539555  30.3326869
  89.3630505  61.5540028  30.1718760  64.4865322  22.9984903  52.3178482
  64.8451376  23.5258150  51.6040134  64.5224667  22.0989704  51.9925737
  15.7245532  20.0444269  18.0271804  14.8772708  19.6050978  17.9541755
  15.5223075  20.8896613  18.4283125  73.5232258  31.4910150  45.0532961
  73.4483576  30.7478523  45.6519079  73.0428600  32.1966910  45.4863167
  58.9432998   7.3900529  89.9351236  59.5645328   8.0834838  90.1575002
  58.4034343   7.2915860  90.7193925  14.5735160  28.7827563   4.7025371
  15.4579917  28.4454179   4.8444542  14.0233127  28.2682228   5.2930969
  37.5549975  74.4733965  71.2147251  37.2024813  73.5842740  71.1769751
  37.0447054  74.9044597  71.9002989  92.8541470  17.9607165  41.4826632
  93.3277225  18.5801637  40.9274673  92.0657921  17.7463019  40.9839153
 109.4803524  53.3745909  10.7115304 109.2192936  54.2020178  10.3072417
 109.5338917  53.5713673  11.6467547 106.7229271  39.7950172  29.3993258
 105.8139324  39.8714447  29.1093087 106.6754436  39.8519182  30.3536534
  30.1447001  77.1370589  89.1844397  29.6163264  77.8189575  88.7696298
  30.9490862  77.5842154  89.4475990  98.7580585  53.2183313  47.6127672
  98.3970833  52.4807024  47.1210051  98.6741257  53.9653111  47.0201397
   9.2139808  19.4120502  15.7605469  10.1024047  19.1445756  15.9959078
   8.9906017  20.0891757  16.3991666 109.7726154   5.7805490  58.5284281
 110.5041790   5.1633066  58.5356283 109.0831566   5.3406209  59.0257692
  90.4448223  40.2876902  22.7058792  90.6338310  41.2205458  22.8073072
  89.5899105  40.2618694  22.2761178  15.9745208  27.8062844  56.5823412
  15.1235572  27.9554272  56.9944668  15.8127967  27.9306054  55.6471300
  60.1396751  28.8447261   9.1676015  59.3058872  28.6963844   8.7214804
  60.3594208  27.9964805   9.5528531  85.9201999  91.8991629  34.2153597
  85.2958579  91.1893288  34.0651512  85.9440227  91.9998184  35.1669550
  65.8612347  40.1440907  28.0509305  66.3793755  40.5639696  27.3642993
  65.9281445  40.7380867  28.7985444 103.3132362   8.1982130   1.2924904
 102.9014015   7.3356771   1.2409560 103.5755730   8.3925152   0.3926805
  22.0668597   3.4794494  78.6392370  21.2034793   3.8832112  78.7274388
  21.8828769   2.5668164  78.4167842  67.8687859  20.6856704  51.9155598
  67.9603052  21.5677357  52.2758627  68.4602404  20.1489043  52.4430990
  27.3091979  87.8744916  45.9187746  26.9721790  88.0380586  45.0379229
  26.6265578  88.2064906  46.5018749  99.5341492  49.8935461  55.1932001
  99.4424820  50.7178879  55.6709957  99.9629688  49.3037319  55.8132458
 102.8892326  14.8686290  30.4190254 102.3394871  15.3642523  29.8120904
 102.6442528  15.1947522  31.2849712  47.5834274  23.5277605  34.1618395
  47.8265572  23.9899683  34.9640131  46.6299295  23.4562874  34.2062187
  79.5353937  43.0152512  18.0245972  79.1825056  42.6726866  17.2034085
  78.8563442  42.8293896  18.6731184  10.2626791  69.5103395  80.1043884
   9.6925726  69.4181132  80.8677397   9.6715346  69.7537553  79.3919734
 101.1517525  56.0131216  23.6822987 100.4937172  56.5011501  23.1872773
 100.7025623  55.7536507  24.4867444  79.1776800   7.2351849  37.3700976
  79.4999981   8.0506980  37.7538705  78.8158178   7.4956781  36.5230846
  70.5492830  20.5324888  43.7831068  69.8426628  20.4558563  43.1419802
  71.3440609  20.3322768  43.2886648 105.4473877   6.6043830  34.1556621
 105.7600117   6.3613123  33.2842183 105.3191376   7.5517780  34.1084790
  80.7118797  51.8084955  29.5039225  80.8531094  51.5591574  28.5906219
  81.5903282  51.8367052  29.8830867   9.7868816  16.5096903  17.9931796
   9.5461837  17.0999277  18.7072647   8.9910118  16.0071242  17.8192627
 110.4334545  51.0421324  36.5582657 110.6956673  50.7653618  35.6802726
 110.1929474  50.2297163  37.0036530   2.2742359  14.2309654  27.7245975
   3.2305805  14.2686260  27.7095366   2.0697395  13.6192894  28.4318924
 102.8373718  15.7616282  39.1937065 102.3378658  16.5519607  38.9885068
 103.5024643  15.7136023  38.5070014 110.2158833  23.4877253   0.7152504
 109.7934818  22.7253556   1.1109828 109.7177982  23.6483979  -0.0862020
  92.4840927  30.8208632  35.5183601  92.8081989  30.1514649  36.1209273
  92.6432323  30.4565859  34.6476078  77.7749681  13.3148277   3.2002789
  78.6788750  13.6278677   3.2347989  77.8464508  12.4093723   2.8981656
 108.1164074  46.5665627  16.0892153 107.3180485  46.0908508  16.3184500
 108.4058571  46.1673784  15.2687883  10.6527605  55.3715202  84.9196896
  11.5700808  55.3017467  84.6553192  10.6801405  55.3928187  85.8762610
  94.9711800  16.6597450  76.1721230  95.7410049  16.4004219  76.6784382
  94.7123909  15.8649373  75.7057095  69.5944786   8.0263114  25.3376460
  69.7684240   7.0850921  25.3285933  70.1710224   8.3698738  26.0201383
  86.9297600  37.7443576  36.5658593  86.2831116  38.0235505  37.2140312
  86.4103889  37.4945092  35.8016229  16.9399921  23.9217806  20.6719995
  17.1917621  23.4721828  21.4786625  16.1511794  23.4652019  20.3795147
   3.5934440  75.8944750  28.2031679   3.5704700  76.6191912  27.5782800
   3.8607303  76.2984610  29.0287495  65.4981227  71.7177263  42.4666166
  66.3508887  71.9757191  42.1166849  65.0504298  71.3062135  41.7273855
   4.9917022  12.8835964  25.3165340   4.2129795  12.8576851  24.7605181
   5.4372398  12.0542657  25.1435137 108.9875603  43.4902859  63.1091928
 109.0493965  44.2846680  63.6396313 108.0983448  43.5072184  62.7552938
  93.8938808  47.3349810  16.0537112  93.3904171  46.5707445  16.3342369
  93.2622242  48.0541277  16.0619938  95.2756214  26.7572427  27.2732306
  95.9584332  26.1924148  27.6351333  95.7535458  27.4312639  26.7899966
 101.5248203  47.3515844   8.3656204 102.3657703  47.7242708   8.1007791
 101.7223263  46.4382648   8.5731643  87.4993515  38.6257648  10.1609647
  87.0059299  38.0390382  10.7341325  86.8999386  39.3517566   9.9881262
  11.6843501  19.9831891  59.9995947  11.0576908  20.4444003  59.4420767
  12.3872272  20.6165385  60.1447153   1.3212387  31.0565472  46.4824200
   2.0229713  30.7988238  47.0802355   1.2083713  30.3009892  45.9056807
  36.8889232 103.5951427   9.8351395  36.5238042 103.1486991  10.5990827
  37.7989764 103.7720132  10.0733507  66.0093594  12.7149296  18.5301960
  65.8600473  12.3467374  17.6593506  66.9359112  12.5495446  18.7045181
  75.0972795  14.1018999  49.6791697  75.7607174  14.6441531  49.2525005
  74.6791267  13.6260629  48.9615631 109.6542931  16.6105044  17.1973479
 109.5054150  17.3230898  16.5758276 110.6049347  16.4995158  17.2112465
  82.8369999  52.8339481  22.7493191  81.9075489  52.9159546  22.9629111
  82.8627491  52.8220749  21.7925382  98.6983395  46.4156294  24.5548058
  98.5012817  46.9036198  23.7552643  99.6122265  46.6271114  24.7453856
   4.5655528  68.5973072  23.5450196   4.7886936  68.0374146  24.2886353
   5.1230136  69.3683195  23.6499596   7.1759883  14.7037458   7.4751264
   7.0195762  15.2538180   8.2427120   8.0211536  14.2882979   7.6463902
  93.5726166  11.9582152  46.2315512  93.6666679  12.6259708  45.5522203
  92.7453613  12.1709168  46.6635704  99.3952370  50.9588051  14.7668409
  99.1446495  50.1893520  14.2555928  98.5805225  51.4491320  14.8766446
  99.3220329  34.6933603  26.2276196  98.7725258  35.2517724  26.7775702
  98.7169838  34.3166232  25.5887079  74.8143196  56.5503025  32.4555349
  75.5683231  55.9643984  32.5220537  75.1032591  57.3609972  32.8744864
  29.2223922  49.5548820  21.1277819  29.2013351  50.4932022  20.9397864
  28.6462871  49.1657877  20.4698014  18.0440704  13.6069703  12.6889610
  17.7588073  14.5178962  12.7601671  18.4289256  13.4090745  13.5427475
  11.1733047  38.3202338  12.6687253  11.5723983  39.0996099  12.2820377
  11.8320171  37.9925823  13.2810771 109.8972321  14.3364477  14.2433107
 109.1611671  14.9026847  14.0113521 109.5891476  13.4513342  14.0486610
 108.3254814   5.9177959  26.7779398 107.7774715   6.7024243  26.7612910
 108.6122799   5.8066839  25.8715010  72.1766753 100.5362991  51.2035561
  72.3164745 100.0825450  52.0346928  72.8717132 100.2094013  50.6323385
  98.0044746  49.6026802   7.4189287  97.4601269  50.0696468   8.0528492
  98.1495380  48.7433577   7.8148466  26.5429012  14.8472559  55.6946659
  26.3179771  14.3882096  54.8853922  25.9574119  14.4730020  56.3529730
 105.4724312  21.4188862  48.3231354 105.5428123  21.9030666  49.1458416
 105.8513069  22.0043802  47.6674795  74.7942538  88.1788984  40.5598688
  74.8676105  88.3801619  41.4927912  75.6693645  87.8829828  40.3091526
  82.9214382   7.4980682  33.5922241  83.4201527   6.9219643  34.1715503
  83.2166767   7.2661716  32.7117205 108.8935375   0.6570821  20.0832629
 109.3643379   0.6114680  20.9154272 109.3724060   0.0639929  19.5043325
  83.4808159  17.8230333  24.6871662  84.2308617  18.4055841  24.5675707
  83.3685684  17.3993170  23.8362265  49.2746153  72.4695193  77.3927585
  49.2980185  73.0098474  76.6029922  50.0963869  71.9791305  77.3718992
  81.1636829  15.5857420  15.4679811  80.9301567  14.8825181  16.0739279
  82.0998955  15.7243264  15.6112683 108.4697247  33.0034256  42.1178913
 107.7695179  32.3784947  42.3060894 108.0568886  33.6660528  41.5640640
  83.0381775  19.0916550  36.9209313  82.6587105  18.6488307  36.1618900
  82.9841137  18.4467745  37.6262236 103.2893467  61.1319351  22.3864508
 102.5322151  61.0033941  22.9578209 104.0321445  61.2044382  22.9858065
 101.9460583   3.6577886  40.0419712 101.1840153   3.4264523  40.5730057
 102.3237610   2.8164136  39.7857285  74.2093515  13.4823322  47.1966887
  74.3748665  12.5413513  47.1384573  75.0011110  13.8871622  46.8424940
 106.7127323  20.7936525  83.8094139 106.5363598  20.2675152  83.0294800
 105.8733559  21.2048721  84.0157700 110.1368523  31.9438982   5.8662677
 109.2567825  31.8587422   5.4995912 110.2475071  31.1621761   6.4074671
  97.6808262   3.4742248  38.6896729  98.0514526   2.9304925  37.9945350
  98.1848431   4.2871240  38.6523676  21.7969599  57.1236521  90.6587242
  21.9360056  56.7329147  89.7960408  22.2907534  56.5636360  91.2577140
  54.2602248  87.5620977  20.9661293  55.0857539  87.2341362  20.6095004
  54.3559833  88.5144285  20.9548759  71.0902496  98.1690470  21.1377597
  71.6829105  98.7999508  21.5463471  70.4575153  97.9558489  21.8236399
 101.5674114  31.2053418  34.9456382 101.1171532  30.6237721  35.5582356
 102.4772263  31.2084579  35.2430606  65.5361509  26.7642760  44.3064880
  65.2996922  27.6651096  44.5274210  66.1012602  26.4817548  45.0255585
   1.3352863  34.2960596   7.6264685   0.8843032  33.4527469   7.5855517
   1.1288444  34.6360707   8.4971058   4.7807876  14.6499991  38.5273886
   3.8274375  14.5665514  38.5075855   4.9681274  15.3931117  37.9538751
  84.7526264  20.0793314  39.3735766  84.0914631  20.7234812  39.6268868
  85.4759789  20.2262139  39.9830222  91.8097496  32.5994563  31.2256265
  91.1097527  32.0907831  31.6348696  91.4394855  32.8887796  30.3917027
 105.9122658  42.0838976  58.5464859 106.8049240  42.4132013  58.6511612
 106.0089207  41.1317873  58.5272884  85.3029633  36.1545873  24.3790412
  86.1145782  35.7124829  24.1299367  85.4196644  36.3654256  25.3054118
  90.7163525  31.2315035  39.6576309  91.0554218  30.8708501  38.8383675
  90.3338623  30.4797149  40.1101160  88.5767455  91.9904688  13.0168486
  88.5698409  91.4986018  13.8379765  89.0159984  92.8127686  13.2339108
  62.2634411  19.2712390  36.8671846  63.0949450  19.6335995  36.5613627
  61.9188786  18.7928104  36.1131215  16.9276325  59.7347689  84.0543365
  17.8548519  59.5883656  84.2415905  16.7996684  59.3701982  83.1785870
  91.3213539  38.5736990  12.4311674  90.8264446  38.0399156  13.0527520
  91.2468052  38.1045961  11.6001344  91.9034195  35.0206423  35.1159954
  91.8584061  35.9556127  35.3160858  91.2387276  34.8880911  34.4400859
  29.3945877  73.8669777  45.5311060  29.1041557  73.4046030  46.3172960
  28.6820308  74.4749069  45.3338051  10.6698982  65.7598543  25.7646418
  10.0499050  65.1189137  26.1125326  10.5156509  65.7540083  24.8199701
 101.9455624  73.2253790  18.9630079 101.6470909  73.0988550  19.8636389
 101.2422657  73.7224102  18.5451984 105.9672356  19.5476234  37.4593735
 106.5970325  20.1156092  37.0155549 105.1124763  19.8593819  37.1619892
  72.9653549  48.3734131  37.2236061  72.6034212  47.4988556  37.3663950
  73.0928469  48.4281635  36.2765145  16.6501991  31.3552260  10.1023996
  15.7305137  31.3600850   9.8370677  16.8940822  30.4296184  10.1041651
  89.3177700  32.8538251  11.3545811  90.2286816  33.1423306  11.4115572
  88.8072872  33.6623740  11.3979793  80.3834438  66.5439177  28.1435061
  81.1658382  65.9934950  28.1770658  80.3824139  67.0099449  28.9795971
  90.8077049  59.4838142  51.7151737  91.3634682  60.0477219  51.1772442
  90.1556015  59.1383743  51.1055231  44.6584792  95.5916778  19.6510327
  43.9529033  96.2381891  19.6306586  44.9330325  95.5079219  18.7378848
  16.4800159  20.8949804  48.3863831  16.0011951  20.1148224  48.6662292
  16.2563983  20.9941387  47.4609661  17.9215517  86.9922459  83.7919125
  17.6016798  86.1002195  83.6569897  18.8643160  86.9346726  83.6366836
  86.6116333  59.4012308  20.9496188  86.9312477  60.1634550  20.4668236
  86.1573124  59.7705889  21.7068458  99.1107368  40.7791567  56.8450499
  98.8516903  41.2922859  56.0796595  98.4941959  40.0471640  56.8625116
  96.8691444  23.1162643  46.5057230  97.3982525  22.3846626  46.1878586
  96.1803722  22.7047181  47.0276880   7.0050041  33.9173961  50.3022146
   7.7343456  34.2122936  50.8474922   6.2260620  34.0865445  50.8321810
 107.1872993  16.4712163  84.5606700 107.0443244  16.8204518  85.4403434
 107.6775451  17.1571132  84.1074226  39.4869605   3.9292964  46.4573812
  38.6229221   4.3382829  46.5064621  39.7923747   3.9051363  47.3642254
  33.3779136  82.3327351  25.2422619  32.9689304  83.1638145  25.4836488
  33.0122272  82.1267891  24.3819785 106.9437599  57.6185894  32.6155686
 106.6862583  57.8669977  33.5033846 106.5236568  56.7704391  32.4728036
  55.5793758 104.0886001  46.9563150  55.5163856 103.2450264  46.5083790
  55.8969016 104.6929395  46.2853527  13.5951797  44.1134882  34.4962645
  13.7939922  43.7456799  35.3573227  14.2978755  44.7436142  34.3369222
  80.8252622  20.1881445   0.1309224  81.2469483  19.3815554  -0.1654509
  81.5192605  20.6697929   0.5810663  96.6535378  42.8463793   2.9263029
  96.1558628  43.2891226   3.6137143  97.5696945  43.0000782   3.1570768
  98.0625534  40.3771734  61.2089252  98.8160896  40.9625244  61.2849045
  97.3940754  40.7735205  61.7677498  23.8166419  42.1947241  36.6889501
  23.4800331  42.5205231  37.5236845  23.1699172  41.5483618  36.4057803
  94.5753098  33.1831551  23.6155605  95.3128052  33.7894320  23.6845851
  94.6500301  32.6259136  24.3902397  23.9266197  60.5565500  41.0435009
  24.6259586  59.9073553  40.9679317  23.2841197  60.1498890  41.6249275
  15.0376598  47.4361324   7.2513568  15.7994930  47.1076488   6.7739248
  14.3626014  46.7721367   7.1112227 106.5968323  52.4480677  29.5871782
 105.7752895  52.9085970  29.7580981 107.1111488  52.5716686  30.3849435
  85.4233742  43.3967924  65.1558304  85.3935814  42.9747915  66.0144663
  86.2044716  43.0343437  64.7377920   4.3609562 102.3187983  78.4719363
   4.9416819 102.5189840  79.2060426   3.5579434 102.8035891  78.6626795
  74.9518681  31.3929200  21.2410378  74.2551851  30.7576799  21.4063692
  75.0339317  31.8775892  22.0623755 104.0658188  31.1357832  63.3969402
 104.6932411  30.9407377  62.7008581 104.0865231  32.0893383  63.4777784
  85.2132416  62.1788788  47.8806877  85.8696938  62.1539068  47.1844959
  85.6102467  61.6904879  48.6018610  10.9232131  43.3361626  21.5119314
  10.3568927  42.6990700  21.9473934  11.7173282  42.8454447  21.3002706
 106.6446877  64.6571112  38.7814236 105.8168221  64.5794344  39.2555881
 106.3928223  64.9529648  37.9066300   1.3013355  32.8245115  50.3600836
   0.7775108  32.3616648  51.0140085   0.9370891  32.5452971  49.5200872
  97.5245094  34.6508861  24.0399623  97.3472500  35.5731344  24.2250824
  98.1175613  34.6670651  23.2887936  28.6671630   0.8194764  37.8567338
  28.7708846   1.7575772  38.0162382  28.9487449   0.4052633  38.6724377
  87.4044228  36.3385415  32.8487110  87.6423740  37.1845889  33.2279372
  88.0959892  36.1585069  32.2118807  93.8780594  38.1240535  53.8311338
  94.0154266  38.8484740  54.4415236  93.5932255  37.3961043  54.3835735
   4.3141643  64.6709394   1.1258601   4.2932311  64.0078735   1.8158847
   3.7076465  64.3442583   0.4612920  81.9596386  41.3072824  13.9727485
  82.0485973  40.7647514  14.7563171  81.2033272  41.8657207  14.1526830
  94.4278336  40.4696941  31.0202813  94.7947884  40.7821083  31.8473077
  94.0792847  39.6021414  31.2254477  91.8831444   6.6646713   5.1509190
  91.0019398   6.8261969   4.8138472  92.4030590   7.3987043   4.8236248
   6.4683428  87.0156920  82.3107723   6.3983622  87.4320328  81.4517054
   5.6834784  87.2998082  82.7792773   9.4697277  27.5611806  27.4032307
   9.4793312  26.6877985  27.7948236  10.1191799  27.5161815  26.7014980
  57.7895737  39.9571514  12.9049325  58.1398487  39.5677686  13.7061322
  58.5642147  40.1853991  12.3910534   2.3133270  22.8164911  48.7650919
   1.8295375  22.1650839  48.2573032   2.9273120  23.2004142  48.1391096
   4.5012180  65.5656004  10.2304101   3.5765830  65.4011393  10.4154170
   4.9034492  64.6970177  10.2293944   3.4208099  51.8861198  45.0960159
   3.2802097  52.8121090  44.8985195   2.6009838  51.5999460  45.4987717
  97.3256683  24.6750093   7.2331119  97.3968220  25.4706669   6.7057598
  96.3867188  24.5746088   7.3896897   0.7771388  70.5752802  21.8764234
   0.6959335  70.0349283  21.0905123   0.1064865  71.2504196  21.7732430
 110.8933163  95.9471416  12.1065998 110.7812881  95.9138489  13.0566382
 111.7927551  96.2499428  11.9819510 109.5496178  22.7887559  42.5437117
 109.9693966  22.0393515  42.9660988 110.1832104  23.0800033  41.8879938
 108.5605621  55.6467152   0.4588746 107.6126194  55.7233667   0.5673486
 108.6872196  54.7854471   0.0608702  99.8713493  56.3610888  32.5416136
 100.7790184  56.0766077  32.4347115  99.7455406  57.0215797  31.8603206
 103.4023762  64.9504280  14.9972117 102.7584743  64.9447203  15.7054436
 102.8912449  65.1396179  14.2103267  86.3605309  53.1188250  48.6584711
  86.4181042  52.7011490  47.7991295  85.6079769  53.7062788  48.5893106
  81.8253422  15.9563363  19.9021125  81.0954857  16.0076022  20.5192947
  81.7943573  15.0596964  19.5684862  81.3926311  83.3081046  21.5031815
  80.8749194  83.8958970  22.0533657  82.1560569  83.0900303  22.0378399
 100.5408669  57.0237446  19.0256226 101.3928223  57.2427702  18.6482298
  99.9123573  57.5226450  18.5037994 103.4540272  50.2618074  49.0995646
 104.0631580  50.1042604  49.8209286 103.3228493  51.2099791  49.0996027
  37.4036112  81.6427433  85.4157278  37.6156512  82.0507991  86.2552316
  37.9066172  80.8283746  85.4114298  51.2688341  81.2375915  86.4075110
  50.8403006  81.6283738  85.6460152  50.6162634  81.2952435  87.1054045
  12.9043476  68.4827757  35.8354950  12.5973121  68.8456535  36.6663241
  12.4294559  68.9777327  35.1678705  80.0089359  43.5508823  28.0890036
  80.2059078  43.9731741  28.9251256  79.6731329  44.2572355  27.5371623
   0.8283702  53.2604074  21.0737205   0.7709686  52.8960752  21.9570112
   0.5223648  54.1626263  21.1664200 103.5645676  57.7188492  27.8610468
 103.1608677  56.9182301  27.5259829 103.6878872  58.2672691  27.0862818
 105.1925373  26.6050363  50.6983232 105.6403351  25.9391618  50.1764727
 104.3707466  26.7613173  50.2330685  81.8740368  65.5638409  23.8334084
  82.3874378  65.8412552  24.5921516  81.0428810  65.2654791  24.2027330
  43.0906954  96.4280665  86.6672084  43.6028281  95.7339108  86.2523610
  43.5230532  96.5745175  87.5085453  64.3925905  38.8844967  25.6655097
  63.5148430  38.7587261  26.0260272  64.7871065  39.5544696  26.2238336
  25.3269378  28.1611538  16.6618514  26.1823932  28.1392455  17.0907533
  25.0718776  27.2414374  16.5890622   3.8353721  56.3852406  19.1250980
   4.1598121  57.0804596  18.5527027   3.5164157  56.8441439  19.9022126
   3.1818477  55.8006382   9.1491598   3.2168857  54.9172544   9.5160890
   3.5555164  56.3583899   9.8314500  89.3726730   2.7592203  20.4641342
  89.7332191   2.0719065  21.0243440  88.4255695   2.6969156  20.5880070
  57.4171629  96.3259518  62.7972487  56.6614237  96.8947422  62.9440859
  57.5810423  95.9207785  63.6488417  92.3966694  13.6074066  29.5499396
  92.6531506  14.5016623  29.3246412  93.0575752  13.0559826  29.1311646
  15.9903518  57.1505451  32.2265911  15.7852546  57.2900248  33.1510973
  16.8610088  56.7528534  32.2317648 102.7816105  90.3175163  41.9587946
 102.0695972  90.2814865  41.3200665 102.3674774  90.0929165  42.7920341
   8.4552089  66.6368580  21.2829661   8.9231864  66.0202169  20.7199550
   7.5353137  66.3852262  21.2011456   7.3986331  17.7640319  40.3652048
   8.1025402  18.0415308  40.9515047   6.7281143  18.4406781  40.4589319
 108.1961060  10.0004101  33.1994867 107.7287769  10.6014192  33.7796807
 107.8044224   9.1448539  33.3751082 108.2901478  26.9568062  22.4962211
 108.3862400  27.2450066  23.4039330 109.1851425  26.9280910  22.1580195
 104.9245071  21.7434621  44.8310328 104.1759968  21.8494821  45.4181719
 105.3285408  22.6106191  44.7990656   5.9389964  69.2520761  51.3762856
   5.9864513  68.4089184  50.9256554   5.2138416  69.1534376  51.9932461
  83.6470699  28.6638546  33.0353427  83.2702827  28.3547306  32.2115064
  82.9260063  28.6123395  33.6627460  29.6188537  86.1790562  63.6446285
  28.8916961  86.7645454  63.4332752  30.2903167  86.3868713  62.9948759
  14.1034309  39.7288060  18.8743401  13.3725826  40.3465509  18.8522470
  13.6941711  38.8697696  18.7704492  35.2439968  19.7695875  17.7783096
  35.1134006  20.1950288  18.6257637  34.6070377  19.0551531  17.7682877
  70.6632662  56.6949320  33.8629270  71.4199781  56.1114550  33.8066125
  70.1626968  56.5154791  33.0670238   4.7979156  25.0243855  23.4614587
   3.8985816  25.2365589  23.7113094   4.8262969  24.0676093  23.4585524
 103.6960125  24.5892739  46.6984797 104.2287540  25.3723049  46.8373346
 103.3635139  24.6810412  45.8055878 109.5899487  48.9312267  37.9757643
 109.0580940  48.9068460  38.7712312 110.4916573  48.8566494  38.2881641
   9.8464767  22.4151397  32.8621078   9.7982303  23.3594322  33.0111575
   9.1422454  22.2346592  32.2394395  10.4191104   8.7360537  43.0511522
   9.5943538   8.2592112  42.9582405  10.1805297   9.5393723  43.5137415
 110.6818104  57.6409531  11.5766728 111.1802197  58.2983494  11.0912383
 110.4103661  57.0074844  10.9123886  91.5578651  57.8736782  24.1238308
  91.3697052  57.6956081  25.0453067  91.1058807  57.1768284  23.6480784
  88.5954094  71.0974169  16.9185460  89.4248486  71.2220669  16.4573228
  88.1158066  71.9130039  16.7735445   2.8217498  27.6395512  17.3503017
   2.2463409  28.1706309  17.9008424   2.3060981  26.8589139  17.1479750
  83.3247657 104.9915243  36.4266276  82.9329295 104.3257305  36.9917941
  83.3420272 104.5887578  35.5584598 102.3303795  39.5676231  39.5457768
 102.6541233  39.1258550  40.3308010 102.4638271  40.4988146  39.7227192
 106.0769844  45.9422541  12.3275900 105.6532764  46.7399073  12.6445401
 105.3580856  45.4055977  11.9938099  13.0308715  20.2655840  30.8539891
  13.9191047  19.9153256  30.9217501  12.8043643  20.5188489  31.7488551
  93.9248657  17.9619503  38.4105253  93.8479900  18.8970852  38.5998535
  93.0904770  17.7308369  38.0023313 105.1407719  76.0141754   2.9528251
 104.9050903  75.2123642   3.4195015 105.8172131  75.7406712   2.3332611
  79.3439098   7.6313659  83.3008758  79.6641059   6.7918464  83.6309007
  79.3100639   7.5181314  82.3509995  13.4162704   7.8879982  40.6215334
  14.1166679   8.3654433  41.0661936  13.7097160   6.9768882  40.6220150
 105.5036926  61.5808868  24.2789316 106.1456013  60.9381676  23.9771032
 105.7207584  62.3799229  23.7986636  79.1725922  13.1588161  12.4848795
  79.8530054  13.6043549  11.9801426  78.6226654  13.8660240  12.8220284
  90.3702545  38.2449675  45.8951712  90.5521870  38.5692286  45.0131369
  90.6911278  38.9355350  46.4751577  20.8152953  89.3008720  81.3408945
  20.6458655  89.0956556  80.4214314  21.4756956  88.6627805  81.6109631
  13.6234466  39.1612291  41.6985798  13.2557098  39.2877913  42.5732136
  12.8608505  39.1232991  41.1213160  18.2227699  89.4192696  36.3640881
  17.6531211  88.7157059  36.6751242  19.1074745  89.0613365  36.4376521
  15.8016101  32.9018545  19.3916404  16.1081401  33.5693669  18.7778819
  15.5319396  32.1709204  18.8355434  15.8249369  78.8004839  70.8446876
  15.9756270  77.9457032  70.4411081  16.3427248  78.7799966  71.6494874
 107.3595619  71.9565487  30.2849650 107.4840260  71.0265684  30.0955653
 107.9687691  72.4041796  29.6978354  69.1747856  39.1129613   2.2473525
  68.6910534  39.2143798   3.0670777  69.7324753  39.8895144   2.2006981
  31.1773864  27.8472066  68.2831001  30.5014125  27.2816920  68.6565876
  30.6913463  28.5618973  67.8717375  17.9243938  41.8502998  24.5509529
  18.7495700  41.3922691  24.3911433  17.6516239  41.5561771  25.4200435
  98.3780193  29.1957736  19.8911822  98.0727005  28.3469200  19.5710862
  99.3267250  29.1717434  19.7662199 108.9438438  37.5738001  39.8538351
 109.7468662  37.8395247  39.4057560 109.2202568  37.3893785  40.7515049
   3.6315814  37.2089887  19.8344815   3.1586543  37.7826071  20.4374218
   3.2577697  37.4043179  18.9752114  34.6051399  36.2589216  33.7261963
  35.2292053  36.5548468  34.3889141  33.8336173  36.8092012  33.8610649
  18.8533775  75.4030418  34.9050236  19.5591060  75.4162836  34.2584968
  19.2776481  75.6466961  35.7277393  95.6119537  19.9178493  30.6136084
  94.8029804  19.8018181  30.1152658  95.3684330  20.4999018  31.3334322
  27.3686878  71.5361166  42.1224260  27.7241031  70.6977510  42.4174690
  26.6487686  71.7170525  42.7267551  26.1367790  62.4111891  10.4891765
  25.9909431  61.7976332   9.7690976  26.1541072  63.2718849  10.0706804
  48.9405914 103.7113698  48.8029194  49.8196979 103.7776773  48.4300661
  48.7618442 104.5846720  49.1516638  23.6031905  94.8905766  77.7126173
  23.9436427  95.7690441  77.8817776  23.7862196  94.7371590  76.7856888
  28.0033199  61.0064125  16.1390924  28.9031021  61.1584568  15.8501112
  27.6980773  60.2777338  15.5986440   6.3730995  46.9305897  19.6466899
   7.2423450  46.5702057  19.8220909   5.7688896  46.2327957  19.9001765
  83.3303833  38.1014752  23.4559560  82.9513836  37.5201201  22.7966976
  83.5041428  37.5323367  24.2057037  12.0234577  14.4577658  14.6476924
  11.9459430  13.9192617  13.8601410  12.6585761  13.9940107  15.1933873
 104.6622276  60.3994370  29.1831851 104.6284008  59.5591354  28.7260413
 105.4277802  60.8412838  28.8158655  79.3650484  29.1090631  47.3342991
  79.6976614  29.6386647  46.6096449  79.8967934  29.3707204  48.0859709
  68.8517757  90.4023186  10.1945424  68.1957240  90.8492902  10.7293749
  69.6899791  90.7318810  10.5186367  91.2998676  23.0980515  85.7037449
  91.5944767  23.1719208  86.6114807  91.3832569  23.9843631  85.3519917
  11.8305103  48.3662271  28.1659412  10.9395400  48.0297565  28.0700445
  12.2553340  47.7520084  28.7646794  16.4344970  61.4204359  40.1819038
  15.6525794  61.9014549  40.4529285  16.7991344  61.9401741  39.4655657
 106.4901161  61.3649607   7.5879931 107.0296288  61.1589432   8.3513474
 105.8343315  61.9796944   7.9170543   6.9957248  54.0410662  16.4282382
   7.2390548  54.1465950  17.3479581   7.2772781  54.8552608  16.0110521
  30.7534496  78.2100201  39.4368386  30.9048454  79.0282679  38.9637828
  29.8635951  78.2927179  39.7797132  15.8439723  54.8281336  24.4251895
  15.5269519  54.2926311  23.6978865  16.2522689  55.5851221  24.0050817
  78.2889843  74.3277216  33.9532399  77.9289055  75.1227093  34.3464017
  78.4129286  73.7306070  34.6910238  57.1269412  11.3869639  89.0450849
  57.0065398  12.0962449  89.6764779  58.0742831  11.2539884  89.0120094
  77.8072786  61.3149452  28.1029892  77.2909212  62.0350075  27.7408838
  78.1737518  60.8739281  27.3365474 102.0545578  50.3484440  15.0990403
 102.0708752  49.7252083  15.8253622 101.1328793  50.5920649  15.0131464
  91.0586353   7.8217479  74.4315783  91.4401527   6.9561215  74.2854122
  90.8859058   8.1589004  73.5525302   6.3994304  76.2075138  11.2684584
   5.9347907  77.0437622  11.3004684   6.7831603  76.1801195  10.3919661
  10.5317489  73.6006308  15.1290810  10.0355998  74.2873144  15.5746531
  11.4074699  73.9710236  15.0188363   7.2893423  33.4941578  65.2035141
   6.6597939  33.7369800  65.8824396   8.1273687  33.8282156  65.5234385
 106.9096907  23.4533095  74.0478277 106.5974098  23.4308743  74.9523783
 107.5952106  22.7860904  74.0144920  68.9126972   3.2866180   1.6760942
  69.8134974   3.0200565   1.8597623  68.3739516   2.6241815   2.1087190
  17.2561288  15.3373170  81.4348984  16.8187380  16.1298048  81.7461586
  17.9279017  15.1601672  82.0933533  90.1003512  56.7479706  64.8593187
  89.5997223  56.8015432  64.0452337  89.9051460  57.5668716  65.3148699
  10.5671966  41.2294722  83.9615059  11.0807300  41.6037178  84.6773720
  10.2267349  40.4077101  84.3150902  36.6284537  85.3227667  11.0651609
  36.3294944  86.1420182  11.4597246  37.3234696  85.5868868  10.4623147
  28.9047293  78.1409530  13.2127591  29.3757711  78.9336351  12.9558393
  29.5901232  77.4840263  13.3348771  71.5163121   0.4538286   7.0294591
  72.1896762   0.4639566   7.7096864  70.6895671   0.4284275   7.5111982
  92.3830839  36.0822773  80.6131935  92.7297493  36.9576907  80.7855415
  91.7836042  36.2027693  79.8767567 109.9693982  44.5124912  90.2537823
 110.7174228  43.9496183  90.0541210 110.1477768  45.3248930  89.7800636
  99.0475782  13.0059040  64.8531914  98.7792524  12.1408761  64.5434189
  98.9963492  12.9452276  65.8070898  31.8127208  96.2585048   3.9880296
  31.8655215  97.0654563   3.4758970  31.0436611  95.8053760   3.6424085
  24.6929812  42.1722889  71.6827726  24.9835277  42.2824383  70.7774115
  25.0996709  42.8988695  72.1549129  24.6311109  80.9554986   9.6939012
  25.4474406  81.3213066  10.0345155  24.1026299  81.7203454   9.4659730
  62.4243216  85.0864200  10.8716317  62.9947357  85.6614236  11.3817617
  61.7628627  85.6715087  10.5023404  92.3671313  22.6796269  73.4114552
  92.2920807  21.8548775  72.9314709  93.3086868  22.8003097  73.5345078
  80.3492244  44.3068552  85.4272747  81.0989460  44.4899321  84.8610306
  80.7092937  44.3227053  86.3140297  35.9882927   5.3454161  77.8826857
  36.3656902   6.1332875  78.2739162  36.5712690   4.6381512  78.1586313
  31.9053374  91.9873218   1.8146631  32.3756643  92.4246816   1.1049196
  32.1442501  92.4801520   2.5996991   1.1060268  63.1241274  78.2127905
   1.4511339  63.1332731  77.3200130   1.1594772  64.0357876  78.4995842
 108.3927461  84.0143776  81.8719387 108.0254581  84.6107769  81.2195301
 107.9505809  83.1809425  81.7103863  89.4362685   1.1017263  28.4077474
  89.3583092   1.5738094  29.2367765  88.5381338   1.0383690  28.0828306
  40.9574379  58.8731871   6.1915227  41.4818879  58.0835430   6.0586759
  41.1292015  59.1249541   7.0989057 106.3611411  79.1112566  69.0384436
 107.0249840  79.4088459  69.6605301 106.8103509  79.1056681  68.1932163
  54.9254172  83.2715348   3.2140275  54.0713625  83.2905702   3.6458322
  54.9536173  82.4207095   2.7763768  72.8558286  39.2922235  84.6517944
  72.8504213  39.6803784  85.5267429  73.6901888  38.8257670  84.6018600
  35.3945971  24.6424770  89.0558910  35.0442576  25.5281878  89.1508007
  35.5726171  24.3579841  89.9523258   5.7506835  96.0071850  53.1751633
   6.6335970  95.6609154  53.3047533   5.6734669  96.7127419  53.8173914
  89.5999940  64.6968126  70.6745577  89.9853500  65.5726957  70.6507635
  89.5057973  64.5018387  71.6069460  39.1525850  79.9827365   5.7752725
  39.8828732  80.4300693   6.2028333  39.2540069  80.1921062   4.8467752
  40.7543087  43.1095266  64.5638895  41.5685320  43.2828712  64.0914202
  40.8369207  43.6105251  65.3753138  69.6177726  56.9534013   5.4563638
  69.5114665  56.1561684   5.9753534  69.3109922  57.6554308   6.0301896
  34.0670265  86.8299011  26.2029096  34.8852050  87.0961098  25.7834455
  33.5333143  87.6244382  26.2126848  31.0663264  55.5402685  13.0056688
  32.0041375  55.3843571  13.1171819  30.6652539  55.1557050  13.7850877
  98.9472087  23.7342262  71.6980696  99.7983011  24.0107203  71.3583279
  98.8976606  24.1279125  72.5691509  21.6281557  35.6209183  69.8774958
  20.8500576  35.0938535  69.6958351  21.3727379  36.5134025  69.6441126
 100.4338642  56.8096542  65.9623432 100.8307239  56.6748619  65.1017809
  99.9828502  57.6507473  65.8890200   0.6560826  26.8675113  72.1602440
   0.5449185  27.5501513  71.4985180   1.5489200  26.9898343  72.4829006
  36.7633176  60.3804255  72.5135231  36.8471003  61.3241529  72.6498413
  37.3948407  60.1812649  71.8223333  83.6083749   3.0610645  22.5393411
  83.4495160   2.1755207  22.8661557  84.4868550   3.0227888  22.1611329
  15.7535033  69.3215922  22.6949140  16.1383514  68.7113432  22.0658513
  14.9295549  69.5940093  22.2910138 107.0270360  96.8382529  27.6947137
 107.5611270  96.0447721  27.7316400 106.2430967  96.6230229  28.2000371
  62.7800064  60.3862045   9.4113942  63.0479793  60.1633338   8.5198995
  63.1012063  61.2783859   9.5420667  39.3918742 101.3189248  11.8037053
  39.1492251 100.8391599  12.5956556  39.3733563 102.2392730  12.0660898
  89.0787038  42.9628551  16.6731092  89.3016181  43.8937176  16.6783258
  88.1241116  42.9447735  16.7413541  20.3720832  40.0469685  86.1218929
  21.1146688  39.4466615  86.1884880  20.1647425  40.0687551  85.1876736
  80.1365884  70.8100033  66.4970636  80.3973945  71.7052364  66.7133284
  79.7727212  70.8732462  65.6139851  81.1637452  47.3518742  14.0969678
  80.3016386  47.3200786  13.6822530  81.7661038  47.5569618  13.3818933
  25.1656418  78.6498193  13.5502263  25.8572094  79.0129713  14.1034719
  24.4067423  79.2086271  13.7176725  89.2125067   3.8433111  13.5506841
  89.7782752   4.0226686  14.3016645  89.3834266   2.9263819  13.3356210
  95.8198615  59.2095280  90.1046753  95.5575415  59.8288298  90.7857609
  96.4357670  59.6994400  89.5598030  51.6597693  89.7874216  20.4895231
  52.6048379  89.8903731  20.6012269  51.3682799  89.3615965  21.2957116
  96.6492053  57.1498823  88.5167122  97.3964652  57.0970297  87.9208565
  96.9208451  57.7774763  89.1864681  66.5029124   6.3471544   8.9045259
  66.2931434   7.0754946   9.4891187  65.8366737   5.6870115   9.0957567
  44.8063789 102.0378856   5.8742734  45.5081664 102.5184087   6.3133928
  44.2324881 102.7191333   5.5238744  49.4745390  95.7722310   7.1007940
  50.0509922  96.4414195   7.4697324  48.8387399  95.5951098   7.7940580
  26.3904357  53.5217428  85.9782982  26.0594869  52.6846361  86.3038158
  25.9355712  53.6518717  85.1461887  40.3588556  92.9216937  15.5301210
  39.7524749  92.1903590  15.4131528  40.3897359  93.3466653  14.6729871
  11.8496995  85.9351496   9.5368882  12.1703653  85.0507597   9.7136899
  11.0618834  86.0161976  10.0744840   3.0017030  28.6947274  75.7724333
   3.1233576  29.2324281  74.9899292   3.8805345  28.6063480  76.1413193
  81.7164663  11.8202055  11.9798395  82.2872249  11.3669336  12.6003286
  80.8296857  11.6040171  12.2681352  23.4395218  66.7000055  84.1940594
  22.6928878  66.6168833  84.7872353  23.0561042  66.9864178  83.3650875
   5.0086331  44.7669697  82.6632881   5.0392729  43.8139820  82.7475929
   4.1379675  44.9482298  82.3092937  11.5790868  24.8407269  76.6281033
  10.7011318  25.0174856  76.9660139  11.6136289  25.3094101  75.7942104
  50.7849877 102.8145150   2.5460740  50.2445345 102.5993613   3.3062383
  51.0435633 103.7254218   2.6861402  11.2546003  35.4728293  90.4339886
  10.5555785  36.1258411  90.4682732  11.7022681  35.6444478  89.6055126
  58.2285103   9.1324604  58.3601018  57.9980716   8.8452614  59.2436429
  58.0692384  10.0763023  58.3658906   8.0130410  75.5771494  67.1061039
   7.4592865  74.7982311  67.1597576   7.7307415  76.1227417  67.8401804
  74.0340739  23.5221470  12.5126668  74.8375416  23.0334604  12.6911470
  73.3293265  22.9119146  12.7298757  66.0332302   0.3386438  24.0151807
  65.5707619   1.1755598  24.0590783  66.7520389   0.4290998  24.6407720
  21.7240457  91.7449335  32.0705243  21.9516318  91.8884162  32.9891321
  20.9290294  92.2611002  31.9372960  55.1557455  13.4228599   4.2258188
  54.8661778  12.8588236   4.9429246  54.3985293  13.9767921   4.0360376
   2.4187796  62.6505899  90.3865623   2.9231775  62.1077013  90.9924412
   2.2415201  62.0765638  89.6413803  42.8945732  32.4799347  81.2642860
  43.1638432  32.6307917  80.3582191  42.8515148  31.5271926  81.3458920
  58.3727746  94.3018226  12.0414277  58.9805989  93.9591626  12.6966878
  58.6078625  95.2258233  11.9566842  60.8709809  11.0191620  25.2155134
  60.3690800  10.6181944  25.9251329  60.3397319  10.8712709  24.4331285
  84.8903565 102.7764014   5.6766244  84.0888076 103.1936196   5.3609010
  85.5369906 103.4819631   5.6934854  31.6384125  47.1234369  72.5140953
  30.9570932  47.0462084  71.8462133  32.0936823  46.2817764  72.4902582
  30.7869558  98.1622247  19.8475667  30.5004142  99.0678433  19.9658033
  31.7133294  98.1707362  20.0883790  30.0576662  69.4216684  17.8535672
  29.8226218  70.1815514  17.3210546  29.7099482  69.6214775  18.7226983
  34.7846466  64.2627446  19.7722265  34.3893470  64.6419934  20.5571767
  35.3886669  63.5989527  20.1050493  14.6824412  77.9237751   2.4780866
  13.8600235  77.8097824   2.0017835  14.5339923  77.4916033   3.3191701
  58.2313399  93.0583886  28.1986543  58.8972859  92.5263957  27.7630731
  58.7182050  93.7930993  28.5719987  42.3545967  97.9969052  33.5702154
  42.2990285  97.0784930  33.8341543  43.2388263  98.2649068  33.8203069
 101.4159270  39.0353107  70.9327316 100.7671281  39.1008425  70.2320194
 100.9124633  39.1579103  71.7375422  30.8489442  50.2342510  69.8863459
  31.0846782  50.9105730  70.5213642  31.2093568  50.5482817  69.0570593
  31.3081312  31.0755324  90.5313587  31.1895013  31.8527198  91.0773849
  30.4600000  30.6325746  90.5577087  17.5199013  83.8366083   4.6512815
  17.3644333  84.2122869   5.5178376  17.8667478  84.5633868   4.1338559
   4.0540366  65.4632822  15.8877298   4.4806175  66.2481371  16.2316247
   3.8973312  65.6609324  14.9643632  19.2856097  13.7025213  85.2667332
  20.1179433  14.1272461  85.0592232  19.3178105  13.5619545  86.2130070
  49.5866637  91.5794996  38.1697484  50.4233162  91.1456350  38.0023977
  49.7942619  92.5138072  38.1553193  97.3095890  39.4172502  82.9899311
  96.7261323  38.6615849  83.0590725  97.8038128  39.2653394  82.1843910
  20.6924248  88.5819244  37.1248555  21.2789083  88.5763741  36.3683915
  21.0208154  89.2912769  37.6773143  16.6903143  85.8901385  47.5558111
  16.0621624  85.4905418  46.9541665  16.1632614  86.4786700  48.0962583
  23.3961217 102.6119355  13.2588121  23.4331863 103.5614327  13.1434366
  23.6187939 102.2572068  12.3981019  26.7738652  44.7224379  66.5834808
  26.0171795  44.9093866  67.1390963  26.4098811  44.2522860  65.8333445
 102.7766003  38.0997062  41.7658329 102.2705384  38.1150627  42.5781775
 103.6813249  38.2412052  42.0445538  88.6344216  13.7873829   4.7340890
  87.6890871  13.6380566   4.7506830  88.9429161  13.2858694   3.9794084
  32.6675503  81.3148145   1.0723420  32.1105625  82.0914725   1.1252233
  33.3148010  81.4365176   1.7669603  82.7917180  51.4692581   2.4191686
  83.4575156  51.2270058   1.7755338  82.0781484  50.8487499   2.2707673
  82.4662070 102.3967008   7.9792425  81.8621974 102.9715470   7.5091764
  82.9154830 101.9067697   7.2905179   3.0170786  36.2483096  70.5029535
   3.7566090  35.6443787  70.5707264   2.2656526  35.7425094  70.8123970
  89.4504342  19.4075907  34.5171567  89.6522185  19.9059284  33.7252160
  89.9389205  18.5905350  34.4169732  50.0573477   2.8290165  27.5177690
  50.1554570   3.7167490  27.1734830  49.2806253   2.8728855  28.0754491
  39.2985559  82.4788857  64.2677212  39.8815084  82.8639412  64.9220324
  38.4244633  82.7747726  64.5219660  46.6546154  83.1664753  90.0346184
  47.0222712  83.8413906  90.6051826  46.4051723  83.6357117  89.2384815
  46.6973719  36.9469536   8.1036779  46.4380321  37.5287140   8.8181897
  46.3676557  36.0867298   8.3635446  31.2688303  60.9455585  71.6801596
  31.7560744  60.2406979  71.2535477  31.8734479  61.2913895  72.3367214
  67.1816185  17.9591215   4.7887822  67.6850119  17.7365673   5.5719110
  66.3854465  18.3707559   5.1247903   4.7225410  76.3488197  89.6365261
   3.9134988  75.8769274  89.4390488   5.2454454  76.2721395  88.8384533
  52.3932228  15.9153736  33.7156888  52.6602039  15.0965488  33.2979890
  52.6102743  16.5928400  33.0752488 109.8776302   9.9447143  16.3559266
 109.1637573   9.3731726  16.6386911 110.2017412  10.3411281  17.1646520
 105.0946631  92.0611191  84.2185688 104.3259784  92.2675133  84.7503185
 105.7847192  92.6265335  84.5654964  41.4471674  66.6683626  83.1882191
  41.1549616  67.3355103  82.5671291  40.9537601  65.8843088  82.9472923
  80.3732774  19.3778408  11.7787000  80.2477160  18.6088694  11.2226793
  80.2567318  19.0501821  12.6704904  19.1995656  74.3688202  70.1534271
  19.2563462  75.3193426  70.2509928  19.2795110  74.2195511  69.2113256
  66.2917683  30.1526726   3.0545255  66.8320015  29.4357765   3.3868524
  65.4525104  29.7428692   2.8449174  89.4930896   6.6565645   9.5360013
  89.8062989   7.5609005   9.5185777  89.9226389   6.2689770  10.2985593
  81.2665156   4.8947275   6.9044706  81.0446325   4.4307650   7.7117750
  80.4536900   4.8979986   6.3989660 103.6972424  88.8267708  61.1799431
 103.5634192  89.5018387  60.5146599 104.6358969  88.8557911  61.3651896
   6.0983468  51.2792671  14.1071054   5.7298280  50.8057964  14.8529264
   5.8400012  50.7624329  13.3439657  61.0269885  14.0467557  67.6285887
  60.5548363  13.3455285  67.1796083  60.6422095  14.0718278  68.5046911
  49.9297810  43.7743759  86.7910385  49.0142584  43.5154104  86.8958282
  49.8902273  44.6957159  86.5345192  61.8362233   2.8286875   0.8524057
  62.2361347   3.6965120   0.9088060  61.5153083   2.7708757  -0.0475386
  79.8239760  97.0523957   1.0420533  80.1117472  97.5277165   1.8214628
  78.8796573  97.2042159   1.0039731 107.7745678  65.0503922  87.6809502
 107.8773724  64.7213268  88.5739136 107.5630846  64.2740631  87.1624756
   6.9423229  80.9339428  78.2575703   7.5346446  80.1820278  78.2542419
   7.5135714  81.6882038  78.4024620  91.4088794  23.2412148  88.3387566
  92.1334966  22.7080560  88.6657143  91.3006409  23.9277411  88.9969254
  73.6690925  55.3239620  16.8641588  73.2056303  54.4870842  16.8969079
  73.8646713  55.5254162  17.7792474 100.8267269  19.0803183  19.6088525
 100.4426298  18.6559475  20.3760644 101.3394127  18.3915842  19.1857358
  86.1423442  25.7224691  29.3948480  85.6216643  26.1543978  28.7176725
  85.6667277  25.8929432  30.2078458 100.3875289  22.6443231   6.3504144
  99.8660717  23.3813703   6.0324880 100.5682549  22.8561676   7.2662183
  46.7303370 104.2785100   6.2340947  47.4858777 103.6933688   6.2888261
  46.9587611 104.9006537   5.5434438  82.3532692  24.7905243  41.4557954
  81.8012473  24.1908968  40.9538480  82.9047248  25.2152288  40.7987138
   5.3699065  23.1712759  27.3630925   5.8130170  23.8506115  27.8714105
   5.5440570  23.4028423  26.4507982  84.2726286  32.3979259  42.1744633
  83.7479409  32.3652768  42.9743814  83.7119850  32.8419185  41.5382385
 100.2839061  78.1233740  70.3237295 100.6422599  77.8038454  69.4956493
 100.3733548  79.0749884  70.2720976  39.3266726  59.6399260  76.4112329
  39.8095036  59.5237637  77.2295284  39.6775436  60.4489183  76.0388708
  99.4456181  14.5358742  20.7030126  98.9751205  14.6732891  21.5251943
  99.2995987  13.6130655  20.4948446   1.5924926  90.3698349  84.2663479
   2.4381587  90.8139706  84.3281746   1.7174579  89.5493126  84.7431755
  16.0976458  46.3731670  75.9883165  16.2725902  46.8975115  76.7697811
  16.2117708  46.9835329  75.2598524  81.6010770  22.4584616  34.6412774
  81.7132232  22.2979057  35.5782243  82.2178903  21.8597639  34.2201730
  66.2909298 103.1529216   6.6661474  66.8802600 102.4167184   6.8302366
  66.2242489 103.1983594   5.7123491   3.0716857  41.1411476  89.0377903
   2.9804513  40.1899815  89.0942478   3.7235877  41.2788534  88.3505535
  73.7700544  10.8948028  31.2763616  73.1189326  11.0103453  31.9684049
  74.2625393  11.7155731  31.2714025 103.8248119  18.4122742  20.5477735
 103.4123811  18.4232319  19.6840497 104.2781028  19.2532242  20.6074258
 104.6994624  11.3533485  29.6156236 105.1782498  11.4861858  28.7974855
 105.3259525  11.5872991  30.3004667  76.7683344  83.0881552  17.2784349
  76.8084960  84.0289406  17.1065637  76.6954856  82.6891736  16.4114019
 106.9846639  34.6800030   2.1818849 107.4112615  33.8509167   1.9653817
 107.0056996  35.1803673   1.3661596  63.7971017  22.0040977  22.5607892
  64.7304687  22.0293987  22.7715417  63.3952460  21.5579403  23.3062288
  47.5545029  77.8250174   6.4388486  47.5930874  77.0309333   5.9057733
  47.9644565  78.4982327   5.8957597  14.8095231 101.3590507  30.8304521
  13.9758878 101.8080977  30.6903096  14.7592668 101.0359696  31.7300721
  66.1738519  76.7281274  24.9625036  66.4738469  75.8206729  24.9099656
  66.8761329  77.2364286  24.5567151  27.9206381  28.4610927  44.1367837
  28.0133304  28.0840576  43.2618638  27.0616588  28.8833130  44.1258642
   8.5146779  72.7488661  81.2596416   8.8136548  72.2508860  82.0204735
   7.5660717  72.6214457  81.2476826  22.1384835  68.1826448  78.4216356
  22.5812173  68.6999989  79.0943670  21.8959975  67.3699427  78.8654232
  55.8605680  14.7600544  16.3887426  56.4594779  14.5677984  15.6672307
  56.2857387  15.4696501  16.8703386  91.9983217   9.2424000  23.4129735
  91.7335293   9.8301590  24.1205427  92.0274195   9.8007524  22.6360437
  91.5612206   4.1368235   3.4376069  92.0526096   4.2954052   2.6316186
  91.8571171   4.8217619   4.0372106  32.6211929  55.6101370  63.9113188
  31.7730284  55.9975815  63.6951351  32.9274988  55.2296495  63.0881310
   3.4057046  41.2105739  12.5527784   3.7758256  41.9767368  12.1143171
   3.9043046  40.4713142  12.2047731 106.2235405  50.4118204  87.2867012
 106.9581255  49.8026371  87.2124672 106.6267841  51.2790918  87.2483253
  61.4383464  76.9449023  18.9100477  61.0294370  76.8576220  19.7710916
  62.3510771  76.6937736  19.0517827 104.1344180  85.0349617  78.4623957
 103.5618278  85.7657433  78.2292938 104.1545715  85.0422859  79.4193554
  51.7115793  58.1807793   2.9208299  51.4747057  57.5606430   3.6104413
  52.4038562  57.7391041   2.4289914  56.4202277  98.5426549  20.8981057
  55.9000544  97.7476911  21.0150930  57.2781854  98.3231095  21.2613412
  71.3544145  39.1131962  32.7311822  70.9976343  39.1658581  33.6178418
  71.5891177  40.0152767  32.5134775  75.0731074   6.6914118  18.2371827
  74.8432371   7.4761665  17.7396413  75.0660073   5.9865940  17.5895616
 105.4649904  76.4242411  78.5212088 104.8105349  75.9054947  78.0534220
 105.1866706  76.3919687  79.4364834   1.5801951  62.2850370  52.3186207
   2.5068465  62.4866104  52.4486923   1.1303115  62.7689409  53.0112076
  18.7040985  60.3238344  52.5341845  19.2909491  60.2931738  53.2897615
  17.9251838  60.7789278  52.8542042  89.4137201  52.2434509   9.7882673
  89.2728076  51.3076961   9.9323198  88.5521481  52.5803554   9.5424577
 109.9952349   6.0212982   1.7890855 109.5446572   6.5798414   2.4225160
 110.4606828   6.6331137   1.2187597  28.3327222  57.8975677  78.3216906
  28.0818343  57.5595045  79.1813421  29.1147494  58.4232569  78.4899616
  29.3382096  42.4566126  82.5261497  29.4727135  42.1330690  83.4169102
  29.5573711  41.7124653  81.9653893  47.4591689  94.6489219  27.2263547
  46.5907328  94.4319228  26.8872949  47.7490167  95.3857879  26.6885396
  49.9584882  83.0001048   9.7957441  50.7141344  83.5525755   9.5957300
  50.2648752  82.1077088   9.6345445  11.1741400  44.6983814  85.3468609
  11.4043808  43.7713289  85.2853107  11.8610990  45.0800133  85.8933735
  82.1033578  90.6331400  10.6168386  82.3733764  90.2721504   9.7724458
  81.8168263  89.8722581  11.1220094  19.3204176  88.5510540  71.1362505
  19.1026831  87.8738213  71.7767048  18.6235785  88.4952641  70.4823875
  71.9450288  83.7263373  32.9308816  72.8097944  83.4114102  33.1940004
  71.3316040  83.1406764  33.3746644 105.8829031  10.0299824   4.8934575
 106.6649017  10.2941740   4.4087812 105.5934319   9.2263878   4.4614049
  77.2867006   1.7025555   5.2764055  77.7413547   1.5866220   6.1107179
  77.6817507   1.0519970   4.6959325  13.2093716  58.3314848  81.3211918
  13.3976448  57.4034023  81.4606476  14.0709066  58.7437201  81.2575245
  97.0210371  23.2977093  41.0706445  97.4927554  22.4704969  41.1677667
  97.3014245  23.8227547  41.8202707 110.2879581  34.3624962  21.8583604
 110.0507865  35.1592434  22.3328897 110.6292591  33.7748516  22.5324651
  19.0420604  96.1410046  58.3673573  19.1845989  96.8691730  58.9720726
  18.2105029  96.3445187  57.9391861  17.8414714  55.7659340  89.5927334
  18.5562420  55.8641243  88.9636898  17.2363412  55.1537704  89.1740322
  65.2545104  16.9246471  28.4946081  66.1344204  17.2971094  28.5517236
  64.6882794  17.5857294  28.8928338   8.9457990  29.1256893   3.1034585
   9.2857266  29.9989880   3.2985135   8.1531907  29.0529335   3.6351606
  18.8798408  77.7511672  14.1698858  19.4541054  77.0191030  14.3946763
  18.1321435  77.3435906  13.7327787  85.8930680  34.3886841  21.1729070
  85.9695825  33.9981258  22.0434495  85.3389225  35.1581657  21.3034746
  60.8533792  79.2686800   6.0348054  60.6847672  78.3481649   6.2359353
  60.1066022  79.7362546   6.4088746 100.8419618  29.7532547  24.3276998
 101.3826356  29.1507042  23.8169786 101.4656458  30.3738392  24.7046968
   1.2493349  12.1339882  56.8735524   0.7649160  12.0378197  56.0535928
   0.6095339  12.4915636  57.4891969 110.9789225  54.1464472  77.3305225
 111.3081621  54.7494459  77.9970264 110.8788726  53.3128166  77.7901745
  98.6672994  64.0401745  74.5131826  99.4410463  64.3648243  74.9737835
  98.4922727  64.7012949  73.8434696  16.4659417  65.3554678  54.0784168
  16.5496027  64.6123886  54.6759701  17.3483813  65.7228947  54.0281105
   7.6168418  79.9142838  88.9164639   7.2760308  79.7830057  88.0316830
   6.9323319  79.5702028  89.4902992  90.0663290  21.5426624  16.5338250
  89.6757266  22.3130215  16.9463846  89.7013685  20.8012855  17.0169278
  66.4648471  21.3812721   4.7395917  67.4069897  21.5499580   4.7516366
  66.2581024  21.1129129   5.6348344  22.4878311  79.7983122  61.1722946
  23.0541778  79.4554758  60.4809570  21.6024041  79.7208643  60.8169746
 103.3402892  45.2855253  76.7285919 102.5418433  45.7345581  76.4509487
 103.5765310  45.7062054  77.5553036  99.1603813  23.2217300  18.0046769
  98.6085066  23.3932007  18.7677404 100.0365886  23.0912388  18.3672544
  62.0240335  94.4757775   7.0639535  62.7127771  94.1424970   7.6390954
  62.4899368  94.7876195   6.2881204  70.2824468  19.5315016  52.5029966
  70.8267650  19.0197266  53.1013604  70.8215675  19.6362722  51.7190286
  80.7563970  32.2678078  20.9392759  80.9476057  31.7538155  21.7238065
  79.8099163  32.4074829  20.9692403  39.9603844  97.3201180  87.1796227
  40.6834078  97.6358700  86.6376209  39.2099547  97.2934437  86.5860176
  80.2249130  61.2678957  63.9757204  79.4148906  60.8797264  63.6449385
  79.9610313  62.1258211  64.3082333  32.8837323  37.7157211  44.4124126
  33.1259632  37.5708008  45.3270483  32.3996925  38.5414743  44.4207859
  55.8171122  91.2211875   4.4892331  55.5635946  91.2231401   5.4122468
  55.5228929  92.0697812   4.1582509 103.7024447  36.2541819  67.5499344
 103.2153841  35.4315782  67.5016928 104.5971134  36.0174918  67.3054409
  50.9162006  52.5661266  20.3235265  50.2920303  52.8808964  19.6696492
  50.4669270  51.8377960  20.7523938  74.2587461  16.8197239   1.7230245
  73.8132145  16.4189947   0.9766027  74.4881397  17.6987017   1.4213582
  69.3682930  29.6874893  25.7353326  68.7692562  30.1994121  26.2787553
  69.1107825  28.7780273  25.8863374  85.6244013   6.1262644   0.9955427
  86.3512525   6.7244947   0.8222219  85.6951460   5.9275759   1.9292184
  77.6296053  13.6537874  17.1825048  77.3518214  12.7470386  17.0526239
  78.5442430  13.6668146  16.9005510  36.3345361  55.0005722  75.8775139
  36.6120768  54.1665125  75.4986286  36.7901516  55.0451851  76.7181444
 107.8130564  17.4826324  19.3270608 108.4616432  17.1093357  18.7302228
 107.0239863  16.9611633  19.1798612 108.0949729  68.9440536  82.4682045
 107.9910951  68.5297823  81.6115665 108.8759892  68.5337496  82.8395462
 104.7850284   8.1054247  11.4944860 104.8738083   7.3442734  12.0680734
 105.5282435   8.0413235  10.8946916  20.7911348  83.0173874  89.5803261
  20.7760048  83.9513874  89.3713951  21.4392591  82.9390144  90.2803421
  85.8705661  19.5261228   0.3321382  85.9029612  19.5651806   1.2879964
  86.5457317  20.1405561   0.0443002  10.3048329 104.6622638   0.7106134
  10.4119043 104.1942529   1.5387079   9.6903138 105.3679685   0.9120580
 106.2509789  41.9969940  69.6901178 105.5461904  41.8265772  70.3149843
 106.0723432  41.4042330  68.9600801  74.4708161  92.7643041  14.3305894
  75.2457862  92.5389079  14.8452302  74.7619276  92.7048091  13.4206792
  46.8173084  16.8754185  10.6057378  47.0298299  17.6259697  11.1604806
  45.8622632  16.8870533  10.5426046   9.1204059  56.1438179  65.1191044
   9.1252440  55.6700182  65.9508038   8.4668958  55.6887436  64.5880079
  17.3785310  71.7674891  10.4460355  16.8677096  71.1147777  10.9248468
  16.7381315  72.4302820  10.1875230  22.3653365   7.1126593  41.7207834
  22.9852916   6.3842523  41.7570802  22.0308400   7.0980204  40.8240529
  70.7260603  24.9288929   0.9301397  70.6145939  25.0634754   1.8712541
  71.5179846  25.4195059   0.7101747  31.7006968 102.4125318  -0.1914385
  31.7350386 102.3389844   0.7623121  32.4570017 102.9540376  -0.4172877
   5.3815461  18.1997574   7.0478364   6.2992002  18.4351147   6.9109269
   5.1903678  18.4898985   7.9397413  26.6266608  82.2997475  43.3848858
  27.5430131  82.5763130  43.3908844  26.4751530  81.9537163  44.2644024
 102.5138125  55.0427711  27.5665971 102.4128470  54.1302193  27.2958871
 101.7346224  55.4815090  27.2251340  53.1094723 103.0990437  28.3934232
  53.9617626 103.0570201  27.9597493  52.7493827 103.9466075  28.1322595
   6.9925392  54.8810530  63.5564327   6.4674282  55.6229687  63.2563496
   7.4990159  54.6194887  62.7874708  59.1653852  68.7371961   1.3969251
  58.5976724  69.4070879   1.7779466  60.0474529  69.1020826   1.4679548
  57.2411065 103.1608609  29.1369172  56.7790155 103.5057429  29.9009630
  56.5941148 103.1906299  28.4321138  96.6217919  67.2794962  63.8768625
  96.0701223  66.5087986  63.7430239  96.0594662  68.0193329  63.6473751
  63.7733178  87.8101400   4.7476217  64.3694835  87.8137855   3.9987489
  63.6250644  86.8824867   4.9312230  91.2180575  64.0443897  85.6093979
  91.6913863  63.9361572  84.7844887  90.4536494  64.5726061  85.3794098
  14.3594766  87.4189281  83.4731579  14.1348004  87.4093628  84.4035625
  14.0704453  86.5662384  83.1481838  70.4909592  98.4581975   4.0541002
  70.2900748  97.7482108   4.6638509  70.9489112  98.0302314   3.3306619
  92.1096954  19.4039429   2.6832887  92.3752043  20.1151979   2.1003267
  91.9986341  19.8226774   3.5368463  98.0335793  14.7660578  22.9672071
  97.7179489  14.4299829  23.8060495  97.7806077  15.6892240  22.9685708
 109.2178568  42.4404991  34.3882772 108.6674580  43.2228077  34.3522950
 109.8822174  42.5838554  33.7142583  84.0080086  25.4749573  27.7694818
  83.1993708  25.9809959  27.8486272  83.8118717  24.6415508  28.1975004
 105.4409704   5.0804365   3.8516256 106.2929473   4.8214710   4.2027685
 105.0533399   4.2637623   3.5369417   3.8361806  83.3136177  84.3358517
   3.1064436  83.1833649  83.7302494   4.6083498  83.3662987  83.7726307
  54.6711128  99.1496448   3.3031865  54.5141856  99.2857961   4.2375680
  53.9394646  99.5900372   2.8707811  78.6007998  22.2168005  13.6859151
  79.5158562  22.4875963  13.7605592  78.1975037  22.5074947  14.5038816
  55.1676259   2.2673309   5.4462930  55.7961688   2.4707020   4.7536107
  55.3246293   2.9336155   6.1153528 103.4279332  41.5281189  22.5229760
 103.2153234  40.5994022  22.4306985 103.6490998  41.8124664  21.6361543
  54.6446583  17.5982368  29.4634458  54.4906661  18.2647550  28.7939092
  55.5251655  17.2716749  29.2782518  92.7445893  98.7434510  53.2291147
  93.1859450  99.5827512  53.0986711  92.6049714  98.6906604  54.1746064
  67.3111515  95.3257016  37.5100061  67.0795302  94.6874646  38.1847211
  68.1830792  95.6320170  37.7592965  62.8311393   5.3540934   0.5506345
  63.0916068   5.8191240   1.3457033  63.6562309   5.0640667   0.1616117
   1.7890736  54.2395496  81.5599155   1.0633807  53.6851788  81.8467426
   1.6676302  55.0596380  82.0383930  31.8703151  56.3633013  51.7942858
  32.5674844  56.7854023  52.2962952  31.6234136  57.0119381  51.1350870
  96.5399775   3.0718172  46.1553117  97.4018440   3.0580652  46.5715143
  95.9547052   3.4200371  46.8279382 109.0895622  76.8677616  84.0218544
 109.8823071  77.2245550  84.4224644 108.6116623  76.4699411  84.7495747
  35.6262092 101.3285617  45.0852033  34.8926027 100.7138232  45.0973531
  35.3509770 102.0180110  44.4809362  70.3522986   7.8158129   3.1631967
  70.8404613   8.6237944   3.3215925  70.5763123   7.5728357   2.2648546
  30.0907974  92.5557641   5.6537172  30.9859483  92.4158148   5.3449365
  29.5488165  92.0349554   5.0610658  89.6833131  12.3002661   2.6573106
  89.6819636  11.4378965   2.2419187  90.5935094  12.5913275   2.6020070
  99.5954605  80.4747200  83.7134743  99.8241218  80.7789993  84.5917416
 100.4279073  80.4587555  83.2412338   4.1639806   3.1405151   2.5581476
   4.2273665   2.7062023   1.7075082   4.8335506   3.8239181   2.5286313
  96.5313944  30.8796490  35.0574514  97.4266061  31.1958206  35.1793500
  96.6343889  29.9674023  34.7864744  36.2065220  50.2024555  89.1987133
  36.1373997  50.7595730  89.9740028  35.9612823  49.3303633  89.5078182
  89.1733726  11.2302458  86.0826588  88.4015092  10.6715727  85.9913445
  88.9495166  12.0281863  85.6036949  36.8259645  48.5615873  85.4254818
  36.4174938  47.7870226  85.0389194  37.5593686  48.2166433  85.9347630
  38.2007271  95.2517394   6.3099977  37.8943496  95.4717616   5.4302522
  38.8552427  95.9209422   6.5100213  25.7256675  64.6797514  74.0630102
  26.4336133  64.3814898  73.4919691  26.1714029  65.0279617  74.8352146
  54.2353106  59.5944929  87.9510212  53.3574629  59.5149899  87.5778008
  54.1104269  60.1067877  88.7498951   6.3282472  83.5039616  82.9411411
   6.5729213  82.8301811  82.3068047   6.2834048  84.3108654  82.4281788
  89.6001479  43.1683338   3.6480352  90.5189917  43.3923138   3.5004255
  89.4506952  42.3972881   3.1008741  60.6809382 101.3915996  40.4648038
  60.9935574 102.2963122  40.4668828  60.2989511 101.2721852  39.5952913
   2.0869841  54.9243164  90.3359032   2.5137085  55.7192945  90.0162983
   1.8218584  54.4592285  89.5424175   5.4847366  63.6599302  66.4047432
   6.2226439  63.5782909  65.8005381   5.5624896  64.5455647  66.7594814
 102.0908365   1.8267048   9.1563054 102.7670941   2.2581661   8.6340543
 101.5115056   2.5370586   9.4319936  24.3061352  97.2242832  89.4717789
  25.2486873  97.1091270  89.3510914  24.2317939  97.8793240  90.1657772
  13.4379506  74.1965246  61.8561649  12.5558853  73.8565636  61.7057657
  13.5380149  74.8966360  61.2111330  68.9332393  40.5464638  13.1191942
  69.2045564  40.1517380  13.9479371  68.6558274  41.4317120  13.3550187
 101.1687370  36.4426970  72.8131199 100.7540437  36.1523104  72.0007515
 101.2559684  35.6455302  73.3357525 105.9581085  66.6843224  72.6172018
 105.7736786  66.2219763  71.7996120 105.4585936  66.2074184  73.2799816
  59.6010611   6.1235130   4.7619935  59.8348484   5.3602779   5.2902433
  58.6480746   6.1801470   4.8315927  33.6136293  54.8363829  86.1395073
  33.1916809  54.0907955  85.7125568  34.3984270  54.9993563  85.6162834
  19.0559459  65.7434464  47.7999592  19.8468661  65.4588890  47.3420286
  18.7756503  66.5281439  47.3288822  25.2942276  41.0484743  62.6836061
  25.8319783  40.7508278  61.9498062  24.7287822  41.7232943  62.3079395
  37.1503250  99.9137238  20.4801103  37.6121140  99.3547133  21.1049959
  37.3723555  99.5494155  19.6232435   0.0777697  86.2312126  87.1963215
   0.1403967  86.5410233  86.2928104   0.4618338  85.3546715  87.1761227
  42.0356079  53.2061610   0.3006193  41.7708044  54.1259790   0.3073522
  42.7530776  53.1588365   0.9324571  95.9000907  21.8462980  49.0177270
  95.7043776  20.9745491  49.3612024  96.8503270  21.8505800  48.9025613
  45.0254189  72.1307031   5.5597898  45.9088634  71.9337133   5.8711644
  44.7211324  72.8348640   6.1323282  71.2340145   0.4908284  86.5669918
  70.5342011   0.9903916  86.9876194  70.8700304  -0.3879920  86.4601231
  31.1555243  77.7809715  83.4834671  31.3311219  78.3079338  84.2630196
  30.6592226  77.0299435  83.8088417  73.7943080  21.5299118   3.2604905
  74.6473746  21.2583053   3.5992166  73.1937164  21.4037836   3.9950677
   5.3069174  34.5984745  80.8881474   5.8724743  34.0960884  81.4746475
   5.0859118  33.9864659  80.1861286  89.0882787   8.7151325  16.6478845
  88.4096167   9.3393457  16.3909551  88.6057338   7.9312027  16.9102498
  62.7436885  45.0684441   8.3936330  63.5516271  45.5799854   8.3513089
  62.2832081  45.4109276   9.1597196  61.2021594  11.0725507  74.3194151
  60.9418182  10.5617627  75.0859356  61.5764861  10.4285249  73.7182951
  10.1285136  37.0416260  78.5986519  10.1562858  36.1050248  78.7941933
  11.0462272  37.3137164  78.5991287  49.1817479  91.2622766  11.7301961
  48.3979444  90.7319192  11.8737432  48.9073436  91.9299535  11.1015912
 109.0574860  46.0052299  76.9142771 108.7445261  46.8347645  76.5534973
 109.2589144  45.4707813  76.1461496  82.0482926  88.4347729  12.3327180
  81.6209512  87.6582054  11.9713994  82.1339087  88.2479052  13.2675859
  26.5054679  30.5440354  81.6713428  26.1451006  30.8822966  82.4910641
  27.0881653  31.2374401  81.3616943   5.6839490  51.0964298  85.1672935
   5.1787227  50.8260107  85.9340096   5.0712359  51.6174364  84.6482944
  99.0352592  26.6971910   5.0087091  99.4792399  27.3759687   5.5170175
  99.7125396  26.0418451   4.8412343  40.2870274  80.1128006  76.1432028
  41.0187674  79.7128296  76.6131020  39.5570016  80.0765228  76.7612457
  72.5889674  38.5757053  18.8410779  71.7592150  39.0483272  18.7749692
  73.1973960  39.0837372  18.3044740  96.5486083  16.3834656  19.6284314
  97.3155555  16.4280308  19.0574380  96.6306219  15.5404318  20.0743028
  82.6635596   3.2682264  26.2199136  82.3916576   2.3593176  26.0926935
  82.1928463   3.7558830  25.5439969  79.7938304  10.3166684  55.2306700
  79.1076951  10.7402429  54.7148848  79.9596410  10.9230241  55.9525299
  39.1126618  38.9179409   7.1409913  39.6725783  39.6161354   7.4804899
  39.2338833  38.1937683   7.7550813 106.4118132  48.6223209   1.5470525
 106.8423710  48.7494553   2.3924466 106.1756143  47.6947868   1.5356561
  67.1350770 100.2019814  13.1580087  67.2520928  99.6621350  13.9397355
  67.9953556 100.5932549  13.0061647  43.4878063  73.5557270  83.1672382
  43.4105015  72.8854942  83.8462353  43.3009386  74.3780804  83.6200523
  32.1996117  65.9747362  63.8608694  31.5532207  65.9951687  63.1551838
  31.7623639  66.4000034  64.5985651  44.3867445  90.1491547  73.1335163
  44.9445820  89.9811172  72.3740292  43.7590265  90.8046341  72.8293037
  30.1630735  58.2523012  87.2660065  30.9412813  57.7774096  86.9742870
  30.4105091  58.6191368  88.1147861  39.9794436  81.7216682  68.3558416
  39.0520978  81.9583321  68.3716869  40.3807354  82.2808647  69.0210485
  28.9935732  78.8557243  71.4443445  28.7374258  77.9811001  71.7370033
  29.8900914  78.7489080  71.1264181  14.2946267  72.0626068  88.4881783
  15.2317607  72.1548700  88.3164215  14.0769291  72.8144789  89.0391064
  36.0275245  96.5867043  68.9033270  35.9313893  97.5380230  68.8587284
  36.0125756  96.3013744  67.9897690   7.4973298   7.5128687  30.2158853
   6.7216874   8.0580175  30.0838968   8.0536080   8.0257452  30.8021756
  44.2554735 104.4948844   2.7340814  44.2820631 103.9619330   1.9394132
  45.0585608 105.0146703   2.7008458   4.6211478  98.1587295  14.6294137
   5.3666350  98.7520532  14.7213289   4.0533921  98.3709220  15.3702565
  77.1152959  18.4500778   4.3709394  78.0285299  18.4003771   4.6533605
  77.1634493  18.6918629   3.4460279   8.2594014  62.3450649  17.4474927
   7.4084664  62.3078716  17.0107385   8.7484027  63.0102146  16.9630357
  93.5430405  65.2852524   3.5683271  92.9879579  65.7368553   4.2040750
  93.5815713  64.3820560   3.8829442   4.7741605  20.8521021  16.7992517
   5.3922654  21.5825212  16.8251249   5.3062011  20.0968683  16.5486833
  77.2211790  71.1937952  73.1230021  76.5460396  71.1639881  73.8008833
  77.2137833  72.1008444  72.8173161  53.0618620  75.5317926  90.1682377
  52.4082422  74.8866272  90.4379845  53.8798237  75.0372267  90.1174355
  87.1635394 103.2196311  21.4447328  86.3559108 103.7194280  21.5637418
  87.4420504 102.9993180  22.3336240  99.0218672  44.8925484  28.2560560
  98.4271249  45.5036724  27.8212663  99.5961294  45.4499042  28.7812253
   4.6347810  40.9617985  16.6954442   5.3000260  41.5286911  17.0857259
   5.1292039  40.3609646  16.1379834  91.9482522  91.3449577  13.6455365
  91.3500218  91.8991689  14.1467401  92.3354630  91.9344810  12.9984208
   4.1256514  93.6361027  51.6150093   4.5963144  94.4692612  51.5914249
   3.6198643  93.6236572  50.8024502   1.8905205  64.9510479  83.6049938
   1.9067009  65.8976889  83.7458611   2.4901071  64.6005964  84.2637157
  33.0269504  73.6731815  79.7899008  32.9117727  72.8647041  80.2892303
  32.7111363  74.3625450  80.3740883  51.4801268   4.1762170  82.4759579
  52.0531206   3.4275636  82.3103333  52.0643620   4.9341592  82.4553585
  31.0387158  56.6960669  72.4984980  31.5572309  57.3474455  72.9708099
  31.0864687  55.9107637  73.0437040  90.5383334  38.4228409  15.9966298
  91.0718641  39.2170799  16.0242482  89.6355853  38.7395084  16.0282441
  12.8085519  45.6474007   6.2042161  12.9045821  44.7037208   6.3325330
  11.9659139  45.8592213   6.6058656  96.6523108  10.1396978   2.6632520
  95.8798465  10.6993425   2.7427980  96.7001686   9.6771706   3.4999200
  88.9528808  40.6525982  12.5031968  89.3519959  39.8165119  12.7438089
  88.6491964  40.5232704  11.6047117   3.5956241  31.0331905   7.7592393
   3.2204581  30.6145466   6.9845029   3.1940652  30.5747402   8.4973451
   8.5787583  44.3358696  57.9031297   8.7603952  43.9442718  57.0487901
   8.8734819  45.2426327  57.8185102   9.8027469   5.5531204  43.6440202
  10.3408195   4.7614944  43.6378690   9.6817351   5.7532680  44.5722028
 100.2315625  88.1142712  73.1415129  99.7067805  87.9829788  72.3518324
  99.8207124  88.8587093  73.5810995  29.2510320  43.0570114  12.2862264
  28.9050866  42.3500717  11.7414495  28.7957574  42.9596126  13.1225702
  54.3400383  83.4227276  63.0403280  54.7951460  84.0626717  62.4929905
  54.4695234  82.5877380  62.5905895  89.1231570   6.6004694  30.0036928
  88.3219645   6.1368883  30.2474424  88.8191507   7.4432505  29.6667405
  66.6111522 102.9091100  12.9447004  66.5525417 102.3950414  13.7500211
  67.5369506 103.1424741  12.8763601  58.6908373   4.7505796  39.6931478
  57.7416381   4.6324337  39.7291204  58.8677833   4.9927032  38.7841340
   5.7056762   5.0973213   6.0065099   5.4202128   5.4741991   6.8388006
   5.4816152   5.7606686   5.3538343   5.8983995  23.4173525  17.4912092
   6.7729093  23.4148300  17.1020337   5.5887986  24.3160952  17.3787805
  75.2901554  19.8295534  11.0582372  74.7635953  19.4090593  10.3784200
  75.7866116  19.1132343  11.4540216   9.4314450  95.2990627  87.5869942
  10.1458371  95.9108067  87.4091148   9.4655293  95.1596737  88.5333824
  32.0889211  67.7446032  84.5452023  32.6276708  66.9672918  84.6927261
  31.3570571  67.4314165  84.0136719   1.3534118   1.2166775   0.7001325
   0.5313231   1.2897003   1.1849710   1.5023662   2.0940817   0.3476926
   6.7393828   1.0755575   7.1350976   7.6715089   0.9580887   6.9518682
   6.2954761   0.6361854   6.4097425  74.2767169  49.5428551   7.3027059
  74.9931529  50.1763142   7.2617265  73.7124899  49.7712696   6.5639898
 102.1323285  51.2378586   7.3493120 102.2162780  52.1196926   6.9865915
 101.4426646  51.3147247   8.0086156 103.7922487  51.9084061   9.4593355
 103.9849291  52.8089512   9.1983434 103.2767257  51.5541351   8.7348005
  22.3863196  83.7661934  78.3219576  21.8544412  84.1372871  77.6179504
  21.9601703  82.9350948  78.5314798  80.7279763  14.8673284  11.1796590
  81.4185849  15.5162275  11.3146421  81.0478691  14.3232716  10.4599973
 111.0143814  79.0131748  11.3574144 111.9383416  79.0435779  11.6056081
 110.7545099  78.1050575  11.5123769 100.6294093  21.4213646  12.4413797
 101.0891447  21.4694775  11.6031953 101.0346875  22.1038378  12.9763624
   6.2694514  62.3768806  78.1464672   6.6424906  61.4953995  78.1547928
   5.4906380  62.3125935  78.6992311  63.2417922 102.3281697  10.1589986
  62.3521309 102.6119117  10.3693029  63.5597257 102.9800347   9.5343229
  95.6173739   0.7058466   2.4861642  94.7464332   0.5755365   2.8612825
  96.1376176  -0.0199949   2.8307363  12.9094983  41.0462940   6.0973092
  12.4370528  40.3460491   5.6470891  12.9022504  40.7863033   7.0185014
  10.3672397  63.2676935  77.3064709  10.6720603  62.3862791  77.5219202
  10.2227294  63.6853647  78.1555271  38.4172153  87.8572559  76.4104509
  38.9836073  87.6726723  77.1596909  37.8244281  88.5415745  76.7211676
  21.7942286  65.4217434  67.6036549  21.6297078  64.9298334  66.7991781
  20.9789944  65.8967400  67.7649117   6.8587209  42.4409950  17.0280191
   7.2880460  42.4447906  16.1725160   7.5771857  42.5088871  17.6568528
 109.7899208  28.2527626   1.1539575 109.2586145  28.8132084   0.5884000
 110.3690323  27.7852810   0.5520269 104.0408568  22.8806600  52.0947170
 103.1251483  22.7042588  52.3105669 104.0237002  23.1432923  51.1744118
  40.4999495  71.2698650  64.9520111  41.1104488  71.4124441  65.6753349
  40.6678772  71.9951534  64.3503571   6.5768045  98.5702229  80.6580734
   7.3882955  99.0743828  80.5985928   6.8503678  97.6609230  80.5373955
 109.2958483  22.0136106   4.8440763 109.4473920  21.8597639   5.7766076
 109.0584097  22.9392851   4.7895261 104.5921645  31.0488785  24.3464395
 104.9043140  30.3145206  23.8177415 103.9602193  31.4971340  23.7843438
  66.1155658  90.9470443  18.8971158  65.1893596  91.0505895  18.6788198
  66.3582020  91.7754296  19.3108007  42.7784681  74.6656370  77.1577358
  43.2310390  75.1230764  77.8663683  42.2033882  75.3277159  76.7741060
  29.0673852  78.8479662  76.5384960  29.8393846  78.9948940  75.9919977
  28.3841848  78.5844231  75.9220409 111.0416026 102.4777222  79.6543550
 111.3470770 101.5797997  79.7834110 111.1285122 102.8863907  80.5155563
  15.2012968  63.3090258  86.7767334  14.6915197  62.6103449  87.1868515
  15.6908131  62.8712320  86.0803509   6.4344932  50.0103844  30.7062455
   6.6120530  50.4641521  31.5301439   7.1147300  50.3224838  30.1095029
  87.4673674  21.1865032  34.5255491  88.0935678  20.4626644  34.5128461
  87.0768330  21.1500585  35.3986951  93.1679544  37.9385174  51.0294458
  94.0103862  37.9841411  50.5772802  93.3262941  38.3602417  51.8740293
  63.2588467  47.3306358  10.4515477  63.3441183  48.2391632  10.1625177
  62.7498266  47.3834026  11.2604638  30.4557180  83.2669353  84.6099186
  29.7061086  83.1845188  84.0204048  31.0996771  82.6475334  84.2665768
 109.1033039  22.2664678  13.1962129 108.4436044  22.4203623  13.8724920
 109.5518956  23.1069506  13.1035444  43.3494568  84.1764355  73.9901161
  44.1387701  83.9470005  74.4806051  42.9494047  83.3344841  73.7726355
  79.0547014  46.9771278  37.6036092  79.4522390  46.1220253  37.4393197
  79.2612967  47.1653927  38.5190889  26.5504432  71.2744761  58.1805277
  27.4936581  71.4261818  58.1208420  26.4040089  71.0335684  59.0952682
  18.4545271  86.6132597   3.9464113  18.9367370  87.0408348   3.2386705
  18.5038047  87.2301749   4.6766206  40.1578903 101.1905098  65.4473877
  39.7381973 100.4281712  65.8460426  40.6928921 101.5631866  66.1481905
  57.4062781  90.4980878  29.5321008  56.5059082  90.2310494  29.7171804
  57.3771481  91.4548449  29.5321103  94.1975054   9.8695887  31.6816732
  93.3998940   9.6185911  31.2157842  94.9017319   9.4305981  31.2046167
  24.6441890  35.6844318   0.5726930  23.7071134  35.6368149   0.3833600
  24.8179484  36.6185558   0.6886503  55.9104137   5.1255521  59.5466661
  55.7313948   6.0438355  59.3443155  55.3247349   4.9224290  60.2760172
 107.5670824  37.1383560  12.0817777 107.9829130  36.7537773  11.3101503
 107.4455294  38.0600822  11.8540021  42.9406929  93.0146122  80.6958103
  42.8843880  93.8103104  80.1667213  42.7246952  92.3072052  80.0882244
  93.1228122   4.4441212   1.0307809  92.7341983   4.1681612   0.2006933
  93.9623890   4.8324955   0.7847997  14.2984296  20.2513588   6.2936231
  14.3990470  19.5117510   5.6943818  15.1453258  20.6967581   6.2686845
  88.0780170  34.7332085  26.9178220  88.1106481  35.6684006  27.1192571
  88.9957056  34.4737518  26.8355962  25.2220154 100.8272839  67.8746796
  25.3563046 101.3382816  67.0765066  24.6868515 101.3913250  68.4329748
  16.3695693  86.6339874  86.0262203  16.8952775  86.5312195  85.2329350
  16.0875249  87.5485420  86.0098362  58.3345744  14.7913444  18.9344903
  57.7134881  14.3417395  19.5074960  58.2265219  15.7188309  19.1450044
  99.4964060  44.5110119  16.5307161  98.8500342  44.3497074  17.2180387
 100.2607212  44.8512543  16.9957849 101.9849782 104.0652064  24.1250249
 102.2289805 103.6257915  24.9396440 101.4366011 104.7986726  24.4034883
  95.3049383  53.1023682   8.6259862  94.9474272  53.9319122   8.3093377
  96.2266574  53.1250561   8.3687898  35.9512639  47.5319576  90.3400040
  35.6814575  46.6404533  90.5605888  36.5555716  47.4244928  89.6055031
 111.1264269  79.4932079  88.4222507 110.5472002  79.9824572  87.8379917
 111.9656494  79.4691563  87.9625130  91.3693878  52.8680599   1.6398450
  90.7302699  53.0955494   0.9645578  91.9797561  52.2749031   1.2018319
 100.4772744  31.3988865   6.4798948 101.4302048  31.4879883   6.4946767
 100.2959737  30.6670463   7.0696184  79.5151982  12.3885572  27.4899026
  79.8803154  13.2625425  27.6280233  80.2776578  11.8100536  27.4750921
   6.7855263  72.3360109  86.5365601   6.4288807  71.7660141  87.2178459
   7.4262995  72.8819180  86.9922256  60.1078734  37.8851688  19.8792669
  61.0111234  38.1387890  19.6894094  59.7749135  38.5863483  20.4393884
   4.9311591  39.2195213  11.7101785   5.3848125  39.8006237  11.0996553
   5.5341626  38.4869469  11.8364831  51.8383074  73.5973978  79.4786072
  51.2378597  72.9124308  79.1844845  52.0010519  74.1251469  78.6967993
  92.3717973  33.2531822  14.0803262  91.4773724  33.3034981  14.4175168
  92.8882990  33.7776554  14.6921941  89.0144655  40.6525028   2.0853731
  89.1383156  40.0520981   1.3502523  88.0808196  40.5936230   2.2880288
  58.2676458  77.1152878  52.0459986  58.9198208  76.6593933  52.5780296
  58.6739492  77.9566479  51.8379879 103.4954581  46.3860977  15.4205915
 102.7015028  46.0643566  14.9935647 104.2113504  46.0345829  14.8912736
  85.1256499  50.8139694  35.7776948  85.7211015  50.2293289  36.2465974
  84.6567688  51.2824333  36.4682981  17.0937730  18.1302250  10.6981393
  16.6099073  18.7308491  11.2650224  17.9944802  18.1707561  11.0195752
  83.4499046   3.0653131   8.5664865  83.4967408   3.0088318   9.5208665
  82.8337673   2.3770178   8.3157750  18.2883704 104.5966434  58.9704800
  19.0128064 105.2173138  59.0491772  18.2136595 104.2041779  59.8403168
  14.1341710  68.7736797  69.9786758  14.0733683  69.7168779  69.8272943
  13.2317281  68.4616852  69.9116898  74.7216730  46.9945991   7.6022741
  75.5091279  46.8765057   7.0710489  74.4841209  47.9134167   7.4774476
  92.4187967  38.1418693  25.6670018  92.9121718  38.9269245  25.4292795
  91.5517041  38.4677971  25.9081479   2.4057542  38.6521387  82.8488064
   2.8702685  38.9507771  82.0669651   2.1954939  37.7361393  82.6672268
 110.7182583  37.9696072  20.3757211 110.0539264  38.6498344  20.4861375
 111.1219439  37.8865803  21.2396451  33.3285832  41.8445826  46.9161606
  33.7255049  42.6226902  47.3076057  32.6522517  41.5810394  47.5401449
 106.2343266 102.0642948  83.0633926 105.9955730 101.3961315  82.4209118
 106.7427986 101.5918827  83.7225723  34.0464306  24.2388391  77.2527122
  33.7437868  24.6463275  76.4411783  33.4068584  23.5483360  77.4270153
  64.5208749  18.5702074   6.3231584  64.6520743  19.4841421   6.5756341
  63.6897132  18.5698307   5.8483907  82.6227978  32.1027744   1.9833585
  82.3129252  31.5402306   1.2736055  82.8713903  32.9195106   1.5504953
  14.2965043  49.4065142  65.0376081  14.5506811  50.1146269  65.6293869
  14.1826916  48.6465931  65.6083918 102.1078601  74.9160576  90.0200748
 101.7455300  74.7930241  89.1426849 101.9500234  74.0825367  90.4634380
  50.1315594  92.0106220  86.8281174  49.5691109  91.3324833  86.4539433
  50.0571442  92.7460003  86.2199211  60.3277950 100.9506825  14.5217630
  59.9353723 100.7199553  15.3637906  60.8378820 100.1789836  14.2757531
  86.3641021  17.6847971  11.4536210  86.2689886  17.2963751  12.3232862
  86.2197432  16.9568384  10.8490773  84.2591772  23.9078129  32.2452661
  84.7301194  23.5149372  31.5103551  84.5664415  24.8140276  32.2696706
  45.8540678  70.7179499  61.4520693  44.9271011  70.7300901  61.6904211
  46.3105440  70.5405521  62.2744989  34.0095687  75.6443405  62.7394056
  33.4668374  76.4159632  62.5773191  34.3561888  75.4101801  61.8784428
  28.7093401  44.5490408  75.6435013  28.8512945  45.3164959  75.0893450
  27.7613354  44.4171953  75.6317806  80.8184943  40.4805172   5.2096769
  80.4590032  40.1569069   4.3836709  80.1955483  40.1855934   5.8738920
  68.6863708  50.2462244  85.3251362  69.0930462  50.9311295  85.8559418
  67.8843355  50.6472492  84.9902534  70.7408977  26.5595138   3.2402250
  70.6386739  26.7091740   4.1801091  71.1294526  27.3694170   2.9095956
  16.2717629   8.5950268   0.2084276  16.4065267   8.6241711   1.1556455
  17.0461465   9.0228928  -0.1569441  30.7927966  94.7542572  61.4556599
  30.0650239  95.2158546  61.8722057  30.9205151  93.9731598  61.9939947
   1.7294432  32.1757687  37.7892991   2.0511247  31.3270653  37.4852296
   1.6053725  32.6856792  36.9887849   4.7025586  33.7439716  12.3288080
   5.4724837  34.2474258  12.5933477   5.0605346  32.9561413  11.9196531
  30.4063940  99.8037148  85.7858467  29.6824598  99.1961670  85.6341076
  30.1295590 100.6165695  85.3629112  79.4421765  18.3481396   5.9657403
  79.1094014  18.6539877   6.8095132  80.0499389  17.6432264   6.1892434
   6.8643809  27.3358524  44.2713186   7.2981216  27.0362795  43.4723398
   7.2618009  26.8151129  44.9692556 110.8756551  34.5758903  40.1437494
 110.8156809  35.5179871  39.9853250 111.5602574  34.4876469  40.8068963
  23.3544588  73.8212252  73.9492464  22.5105834  73.4401560  74.1919279
  23.9514709  73.0741835  73.9075136 101.9671872  59.4646120  65.8980894
 101.2113782  59.9004793  65.5043840 102.7180006  59.9889183  65.6194973
  92.9672929  95.9537888  85.6646538  93.3766183  95.6120205  86.4595604
  93.4802278  96.7320061  85.4467010  63.1807289   8.7445772   7.1389505
  63.4616289   9.6422375   6.9613763  63.0347070   8.7219608   8.0846807
  94.9635038  28.2732857  45.1515886  94.1559991  28.7864578  45.1802751
  95.0135193  27.8571213  46.0121366  65.8755684 102.8870487  82.0725250
  66.4370346 103.4060478  81.4966583  66.2295628 103.0353260  82.9494095
   9.3467259  84.1702271  85.7239246   9.0763640  83.3410835  86.1184597
   8.7866628  84.8265648  86.1383820  26.8890906  55.8007515  46.2680265
  27.4212838  55.1435745  45.8195611  26.2200118  56.0443294  45.6283017
  98.6090836  33.3235824  -0.2382830  98.1541237  32.4853123  -0.3191642
  99.0360412  33.2827843   0.6174489  22.2933818  22.8898514   2.3070356
  21.7108108  22.9369200   3.0650731  21.8719626  22.2624386   1.7196771
 109.0539679  18.9950169   4.7591707 109.8163471  18.8665760   5.3235360
 108.6061582  19.7549951   5.1308271  56.5098600  98.9261369  12.1389695
  56.3193326  99.6523980  11.5452787  55.7899146  98.3102206  12.0027372
  87.8943870  15.4981602  28.2267495  87.7927479  16.3965547  27.9124471
  87.3422513  15.4536140  29.0073892  78.4285060   7.7159536  15.2050706
  77.7626631   8.2725513  14.8012372  78.9812967   7.4360025  14.4754907
  43.2596938   0.7596311  79.8801231  43.0349659  -0.1692954  79.9332952
  44.0427081   0.7855233  79.3301678  43.0790806  55.0814772  83.3955765
  42.1713400  54.8478651  83.5896301  43.0653477  56.0333729  83.2958603
  92.5032828   2.8075111   7.7798482  92.4748990   2.9401958   8.7273809
  91.8965504   3.4591520   7.4284669   8.3173371  10.7766045  23.0814573
   9.2297269  10.5220497  22.9436990   8.1330825  11.3980282  22.3771116
  10.7847571  75.5434179  89.5598602  11.0888171  75.0581837  88.7928295
  10.6017947  74.8683119  90.2133083  51.2462282  85.6996727  60.8729458
  50.4012346  85.8901119  60.4655743  51.4606142  84.8148441  60.5773973
  38.1521463  85.9504128  54.0920830  38.3377433  85.4302788  53.3102655
  38.9299202  85.8451366  54.6400023  10.3564120  31.5665806  18.9574071
   9.7945596  32.0209206  19.5852109  10.3106834  30.6464470  19.2171880
  93.6000857  67.8880203   6.1834260  94.2216453  67.3398579   6.6623994
  93.8480816  68.7845886   6.4090368  73.4979944  95.7935313   4.7938749
  73.9133100  95.8201484   5.6558725  72.6360659  95.4096869   4.9550458
  19.7734416  80.8624077  83.7037563  19.5223296  81.7859364  83.6870289
  20.1363587  80.6970882  82.8335857  18.3949615  14.1174257  29.1294118
  19.2276908  14.5861757  29.0740415  18.4434272  13.6400783  29.9576780
   2.1730782  30.1276291   5.4430696   1.3227035  29.7233665   5.2708169
   2.0528866  31.0477054   5.2080461  21.5129852  89.8038006  75.4065609
  21.9219327  88.9405346  75.4679251  22.1284413  90.3920364  75.8440876
  85.6178794  19.4825495  23.9769861  86.5387914  19.4563043  23.7172433
  85.3307089  20.3675211  23.7520429  89.6733329   2.1461094  34.0708467
  89.8537442   1.4659632  34.7197553  88.9435539   1.7997110  33.5573598
  81.3721541  59.6757496  30.6753751  81.1358229  59.3993938  31.5608236
  80.7039383  60.3190029  30.4388734  66.7466489  47.2297085   3.9648076
  65.9571424  47.5838840   3.5555764  67.4649772  47.5606716   3.4256479
 108.5538182  18.4806765   8.1865808 107.9002032  17.8011024   8.0216523
 109.3020448  18.2298649   7.6448366  28.5897470  70.6607342  65.7064056
  28.4435654  70.9921646  66.5924168  29.1726899  71.3040304  65.3031921
  26.8521452  42.2787523  58.7581444  25.9687662  42.0371389  58.4797668
  26.7238426  43.0310869  59.3358660  24.2221236  36.8542385  68.3953905
  23.7971902  36.0282087  68.6263371  23.6345220  37.5290918  68.7352848
  12.8456879  48.3526421  86.1722374  13.0959511  47.4288559  86.1574745
  12.4025333  48.4673262  87.0128918  19.7852994  26.7879331  11.6694375
  20.5038405  26.4119709  12.1779367  19.2370797  27.2283304  12.3188421
 101.5690288  39.9802483   0.8171102 100.6625852  40.2657402   0.7027074
 101.8288812  39.6566189  -0.0454310  88.1153903  44.3494976  10.0738355
  88.5008738  44.7758186  10.8392640  88.7378094  43.6591041   9.8453828
  12.8518808  85.1152706  77.6391125  12.5668645  85.2782631  78.5382414
  12.4613810  85.8265877  77.1314049  60.3243475  65.6031052  12.7423211
  59.6769433  66.2491731  13.0246183  60.1898293  64.8577181  13.3275815
  61.9673157  78.4066057  83.4007835  61.7301893  77.4798822  83.4351444
  61.1762142  78.8668156  83.6811352  11.9141459  81.6283131  85.4112148
  11.7375290  82.5321102  85.6723404  12.0710826  81.6777611  84.4682598
  12.2440963   5.2231702  86.3149357  12.1295957   5.7131108  87.1292305
  13.0842547   5.5252274  85.9697914 110.5824038  92.7587795  83.8586712
 109.8083008  92.8565216  84.4131470 111.1339929  92.1313286  84.3258762
   9.1921426  29.5898331   6.2593671   8.4367181  29.0019882   6.2595006
   8.8390304  30.4335487   5.9770795  85.3364250  44.3565071  36.1548826
  84.3893501  44.4946850  36.1412069  85.7031033  45.2262772  36.3138505
  14.9139691  41.2408531  31.6590806  14.3682385  41.0696686  32.4266168
  15.1577521  40.3719795  31.3399240 108.7241325  19.6925962  10.6470414
 108.1874737  19.3398321  11.3568231 108.4791240  19.1737211   9.8809072
  16.9780636  45.3922749  53.9988756  17.7324581  45.9746742  54.0879345
  16.3957000  45.6433392  54.7158527  53.3836556  14.3131102  13.1293508
  53.9479066  13.6062181  12.8160592  53.7012673  15.0928057  12.6738950
  97.2395416  45.1867485  63.7071848  97.3869582  46.1261892  63.8164806
  96.5194436  45.1287651  63.0792284  24.6271555  99.8808030  16.9176790
  24.9804740 100.4707173  16.2517949  25.1022022 100.1094607  17.7166005
  62.2723422  25.3973186   8.7586137  62.7482328  26.2277973   8.7503167
  61.8447551  25.3577364   7.9031392 105.7328186  46.3392246  20.2456113
 106.1094508  45.6482208  19.7007295 105.4095707  46.9878853  19.6203252
  50.7167768  86.7727184  75.0477171  51.3649607  86.2008953  75.4589367
  50.4365540  87.3605251  75.7492828  91.6855559  41.2520111   2.4988576
  90.8555505  40.9523857   2.1279832  91.9254598  40.5725944   3.1289979
 111.0478387  67.2343052  14.8389551 110.5421934  66.6647709  14.2591401
 110.9213886  66.8610561  15.7112714  23.1219531  64.4692696  33.4060022
  22.8181697  64.7885502  32.5562879  22.9163457  63.5344494  33.3980676
   9.7791868  81.1864853  79.0023470  10.1343298  81.1467266  79.8903370
  10.3248155  80.5822849  78.4988976  26.7765094  77.0529163  35.4797002
  26.7152215  77.5656021  36.2856885  27.5242902  76.4724148  35.6213781
   1.5520121  53.2218445  23.7785360   2.3309852  53.7017620  23.4972593
   1.1396433  53.7931908  24.4264146   2.1100403  51.2265957   3.7343999
   2.8635789  51.1332977   3.1515619   1.9121696  50.3330791   4.0149614
  85.1569943   4.2450341  89.6239662  86.0531001   4.4438943  89.8954105
  84.7543816   5.1015958  89.4809914 107.8399596  42.3226250   3.3585283
 107.7824411  41.3816631   3.1926462 108.6252508  42.6013077   2.8874799
   4.9207879  63.2727516  19.8355504   5.4067136  62.9960525  20.6124326
   5.0876761  62.5849712  19.1910859 102.1909771  52.1248806   4.4959279
 102.5277028  51.3980759   5.0199434 102.2347388  52.8818310   5.0801870
 107.5774913  11.4606580  82.2718906 108.3225493  11.5088185  81.6728878
 107.9674344  11.5174493  83.1442165  31.0649681  64.3098116  88.5881710
  31.3144946  64.5610094  89.4774723  30.5684471  63.4989643  88.6987209
  30.5426074  46.9090069   3.4980317  30.3109265  46.1380852   4.0159532
  29.7204209  47.3899353   3.4034559  -0.0372981  82.3680199   4.4677278
   0.2029015  82.5456226   5.3771135  -0.0804328  81.4133251   4.4134637
 104.7644811   9.3812760  87.3038387 104.8161130  10.0333985  88.0026245
 105.6722550   9.1159257  87.1563148  24.8798418  95.4122162  82.5993252
  25.2456594  95.1858521  83.4544086  24.4942880  96.2791729  82.7256584
  61.0925770  90.9607983  90.7795048  60.3161383  90.9321117  90.2204418
  61.8068600  91.1919498  90.1857090  10.2301360  87.6636207  18.8508626
  10.4330636  88.1242359  18.0366823  10.6234170  86.7979229  18.7407132
  39.2482154   5.6333360  74.8929262  38.3844693   6.0446271  74.8610640
  39.2309669   5.1013287  75.6884766 105.7579455  31.4674271  39.3439313
 106.1428675  30.6018341  39.4811078 104.8849330  31.2886799  38.9944574
  24.1217900  25.5288208  15.9176561  23.6317922  24.9061668  15.3805944
  25.0138713  25.4926861  15.5725213   9.2705238  88.4169006  83.1626129
   9.1035962  88.0266571  82.3046684   9.6827382  87.7164268  83.6682415
   3.1367398  42.6362217  36.9130918   2.5825215  42.6344002  36.1326619
   3.7845517  41.9510544  36.7484113  30.7713509  61.8482208  89.9658108
  31.6697502  61.6314268  89.7165871  30.8344388  62.1118307  90.8838272
  81.0167126 103.5484056  37.6164361  80.8627324 103.2189683  38.5018750
  80.1843505 103.9458684  37.3606511  56.2015200  87.7426624  84.9778748
  57.0249844  87.2594261  84.9098873  56.4223385  88.6322021  84.7018623
 100.0258836  36.9907177   6.7665788 100.7780323  37.0838535   7.3512384
  99.7980032  36.0623253   6.8155023  14.4993688  33.7807072  25.4535314
  13.5659028  33.9856232  25.5072423  14.8873235  34.5421970  25.0224134
  24.8547435  89.5254898  86.3782787  24.5748305  89.9870491  87.1687508
  25.6426239  89.0513420  86.6440964  30.7820607  32.7655208  10.4834958
  29.9562360  32.2820080  10.5048868  30.8529426  33.1571186  11.3540479
  30.8986664  85.0769138  88.2523155  30.7805157  85.3519249  87.3431110
  31.5764999  85.6606483  88.5929489  45.7219696  47.9926443  88.2053566
  46.2368917  47.3886061  87.6703644  44.9946547  48.2528400  87.6400757
  93.1540510  84.8282516   3.9443895  92.6725897  84.2467392   3.3559438
  92.4896941  85.1630962   4.5466729 107.0643482  90.2091301  22.3309251
 106.4972458  90.0103176  21.5858766 107.4507222  91.0585773  22.1178647
  17.1444118 104.2882156  63.6924982  16.4979982 103.7987614  64.2012405
  17.8152239 104.5331764  64.3298626  17.3413110 100.6235981  75.0965357
  16.8260336  99.9405670  74.6673536  17.9559851 100.1456833  75.6533146
  76.9866875   7.6438892  19.8414632  77.1646732   6.8049372  20.2665635
  76.5416277   7.4100149  19.0269395  62.3271637   4.4863519  83.0162144
  63.0973296   4.1185674  82.5828457  62.1597271   5.3063878  82.5517368
  43.9651299  96.9989967  89.3048286  43.5834026  97.8502369  89.5191193
  44.8902702  97.0867825  89.5342636   6.0189916  44.2557609  13.9299890
   5.0884200  44.0353763  13.8887235   6.0442926  45.1075733  14.3658754
   1.6837455  43.5611236   2.3231527   2.1301414  44.0619839   3.0058690
   1.1947371  42.8900707   2.7993795  73.6524317  38.9876926   9.3872377
  73.0357797  39.1882313  10.0913450  74.3318008  38.4599197   9.8069402
  73.4338860   9.1866597  86.1404896  74.2740183   9.3832597  85.7260513
  73.5403662   8.3018598  86.4897919  15.5895091  36.2210930   5.7699128
  15.6176330  35.4106605   6.2784692  14.8628236  36.0957992   5.1596185
  40.6680393  93.6513615  50.3229284  41.5245533  94.0598965  50.1975822
  40.1136255  94.0460110  49.6497965  88.2701025  19.9923933  23.6434671
  88.2349703  20.9473169  23.6992856  88.9799711  19.7438181  24.2355176
  28.1768966  87.0341682  74.4108152  27.5564313  87.4979496  73.8485289
  28.2447052  87.5801849  75.1940823  46.1962128 101.8327427  76.4663458
  45.9122276 102.7142525  76.7082834  45.4662609 101.2678909  76.7199945
  13.3967067  52.4213112  20.6894418  13.9890290  52.6862324  19.9857351
  12.5262118  52.6639927  20.3738900  22.3758268  92.8805828  74.6838713
  21.5948796  92.5453377  74.2434597  22.3705769  93.8197231  74.4988632
  77.2782111  82.2032631  50.5043432  78.0298040  81.9593037  51.0445520
  77.6587886  82.6749599  49.7634717  83.4243205  44.1127956  29.1962930
  83.1409338  43.6187446  28.4269925  82.6116225  44.4312275  29.5891782
  60.5944967  73.2414246  88.4078884  61.2969732  73.8195467  88.7054348
  61.0103321  72.6733685  87.7593327  35.9361935  80.1956940  82.2964382
  35.6387854  80.1538277  83.2052994  35.3893113  79.5592403  81.8359184
  94.5481019  91.1023025   9.4456788  93.7044291  90.8790497   9.8388788
  94.6210770  92.0501594   9.5573636  68.1152825  17.2839650  86.1305714
  67.2970228  16.7885980  86.0945797  68.7768893  16.6781815  85.7966137
  16.5459442  60.7776642  62.4832439  17.1215975  60.0367212  62.2938681
  15.7813442  60.3853083  62.9047632  36.8133211  91.5291309  82.3027229
  37.6603770  91.1943150  82.0083904  36.8772030  91.5359306  83.2577610
  94.4634018  24.9264944   7.7362176  93.7376997  24.3325079   7.5444719
  94.0619347  25.7950914   7.7605745 106.6175804  57.8489578  26.2206479
 106.1866603  57.0389259  26.4933797 105.9597358  58.5296810  26.3624116
  12.4996139  11.3548029  10.4784986  12.3519565  11.4548719  11.4189359
  12.2491361  12.1999872  10.1054593  14.6104528  26.5950573   2.3903009
  13.8992644  26.6128528   1.7498895  14.3946219  27.2942293   3.0074045
  66.1156421   4.1773042  88.4412384  66.5421657   4.6194848  89.1752625
  65.3808551   4.7466668  88.2128811  13.3525897  42.0898903  21.2587663
  13.5386468  41.1768616  21.4778539  13.5923196  42.5787533  22.0460149
  95.4957280  38.3350265  14.9975416  94.8871932  37.6419533  14.7414800
  95.9914407  37.9613769  15.7261583  29.7383405  40.6691826   6.0497686
  30.6392242  40.5390633   6.3459417  29.7703601  40.5068577   5.1069757
  37.0035458 101.6816711  60.1763344  37.0450115 101.7199802  59.2208004
  37.7741003 101.1732578  60.4293203  78.3693604  10.3514298  83.6577225
  78.9799456  11.0311135  83.3723450  78.9118533   9.5693406  83.7590599
  76.5785198  17.0292672  70.2927065  76.1271815  17.7481755  69.8503256
  77.4542575  17.3710736  70.4729366 103.3097968  30.5966080  38.2233926
 102.7506337  31.3546265  38.0531713 103.7679872  30.4464615  37.3964998
 111.0457501  13.5467661   5.5181524 110.1731000  13.8570869   5.7598420
 111.5038905  14.3312204   5.2165338 107.9120669  75.7949722  36.6289922
 108.7587223  75.3510178  36.6770383 107.4739012  75.3945053  35.8780786
   7.3493707  93.5623550  65.5357933   7.6239371  93.9970589  66.3431835
   6.3934308  93.6087227  65.5519629   8.1994248  25.4037416  31.3762971
   7.5654841  26.0878313  31.5916368   7.6873828  24.5950115  31.3734266
  60.3290031  49.8757732  12.6741334  60.8510599  49.0772427  12.7518293
  60.3741142  50.2768124  13.5421010  24.4395400  23.5825909   0.2678129
  24.2333509  24.4321955  -0.1219157  23.7735749  23.4615934   0.9446355
  68.9313893  15.2622041  82.4297905  68.7799220  14.9951562  81.5231609
  68.8843708  14.4477185  82.9304218 106.5141019  55.0533283  15.5254670
 106.4875850  55.8101356  14.9399873 105.6085357  54.9428547  15.8152601
  85.7324657  30.0377357  38.7238332  85.9604702  30.0887287  37.7955839
  86.5157542  30.3451527  39.1800996  51.8060951   1.1640366  79.5049906
  52.5827842   1.6830644  79.2962074  51.0725455   1.6958245  79.1962194
  -0.0107359  42.8228939  15.6821748   0.3112293  42.8006256  16.5833303
   0.5797673  42.2420395  15.2024385  64.7418079  33.7906635   1.3536950
  64.2113278  33.3889854   0.6655999  64.1505763  33.8578308   2.1034738
  93.1446240  29.8772991   9.6122476  92.8497145  29.0220249   9.2995664
  93.4323737  30.3349293   8.8223096  18.5049045  91.2917233  69.9958086
  17.6213932  91.3219643  69.6287584  19.0639949  91.6448212  69.3037271
  35.6231618  89.4622612  60.8514977  35.4812717  88.6518002  61.3406372
  35.1280880  90.1236057  61.3349724   1.0690452  28.4029758  20.2028676
   1.4349581  29.2134846  19.8487302   1.8243791  27.9341495  20.5577012
  31.6142797  95.8430481  82.3680973  31.1348486  95.8317184  81.5396976
  32.4521065  96.2536430  82.1543503   8.0483433  15.5045518  68.3149433
   8.5192581  16.2784585  68.6240435   7.1237179  15.7382592  68.3967733
  37.7638817  79.4068909  70.0986242  36.9585848  79.9015522  70.2504063
  37.4760699  78.6133575  69.6472931  11.2178184  11.1214912  33.3035489
  12.0515634  11.4417208  32.9592344  11.4177228  10.2485645  33.6415883
   5.7246400  55.5767715  22.1373483   5.4675866  55.9331024  21.2869474
   5.1607801  56.0272396  22.7661344  79.1993813  12.6844796  86.1287212
  79.4913773  12.7235135  85.2179813  80.0080733  12.7025994  86.6405106
 106.8559441  35.4898060  23.1674501 107.2758970  36.2426079  23.5835668
 107.2113452  34.7311104  23.6303827   9.8936988  63.2280529   6.0203286
   9.9607898  63.5352791   5.1162549  10.4403688  62.4427879   6.0476323
  39.1263580  92.9640770  72.4261141  38.4875226  93.0314445  71.7164755
  38.6940956  92.4230862  73.0869579   5.4494287  82.8785885  37.6521322
   4.6218253  83.3521831  37.5684091   6.1184932  83.5631073  37.6489087
  82.4465804   8.3247861  66.2727642  82.5705199   8.7606534  65.4296207
  82.3380856   9.0406808  66.8988228  22.4619819  14.4826973  10.7856866
  21.6005803  14.8980081  10.8274385  22.6256324  14.1802967  11.6790029
 104.9145565  36.7308700  26.4632531 104.2693386  36.3901604  27.0828077
 104.5422277  36.5424049  25.6018182  93.8690572  20.3018292  40.1042700
  93.1394200  20.8934983  40.2880955  94.6451287  20.8611688  40.1371527
  16.2375605  35.5712724  85.9717941  16.1773348  36.4121699  86.4251137
  17.1739733  35.4505944  85.8143139 106.0105953  42.5728214  12.8847333
 105.5354175  42.0950210  12.2049257 105.4151997  43.2760990  13.1438466
  30.3177452  44.3154430  79.5970726  29.8333931  43.7065983  79.0394545
  31.1542225  44.4377518  79.1481018 103.4594397  10.4779252  58.1123257
 103.4790187   9.9692067  58.9229155 103.0953078   9.8777303  57.4616241
   4.2231513  28.9025391   4.2430135   3.5547830  29.4515503   4.6530076
   4.4402600  29.3570888   3.4290906  22.6636840  73.6840332  11.3498517
  22.7197743  74.1779030  10.5318185  23.1431867  74.2165363  11.9844743
  81.8086800  36.4409340  19.0505716  82.3840961  36.8607796  18.4111520
  80.9868881  36.9278992  18.9893361  32.0023108 101.6424370  63.1940556
  32.6906395 102.2649479  63.4284067  32.4488282 100.7968998  63.1502867
 104.3490442  89.5134640  78.1535149 104.7443005  89.3646908  79.0125084
 104.4026204  90.4606247  78.0260086  51.3027048  93.4743786  65.2867794
  50.8571863  92.7335358  64.8758173  52.0195484  93.6847210  64.6883440
  79.8034482   5.2029714  72.5834656  80.5419783   5.3806123  72.0010138
  79.4825177   6.0691747  72.8343248  20.4817010  36.6611565  26.4445039
  21.4362384  36.7145336  26.4917966  20.1882745  36.8180359  27.3420068
  13.2888843  38.1461609   9.0646383  12.9579736  37.2480572   9.0763971
  13.8945581  38.1685722   8.3237668  95.1950655  64.0824783  29.4952604
  95.3475842  65.0264347  29.5389768  95.0674638  63.8180340  30.4063150
  25.8624411  75.1055336  75.2508497  25.0318837  75.2512789  74.7979021
  26.1823130  75.9846878  75.4533482  11.4298689  77.7306843  82.9770470
  12.1382320  77.2887421  82.5089169  11.8677139  78.1968641  83.6892223
  11.5388251  38.8170040  40.1053449  12.0085431  38.9988315  39.2913839
  10.6215478  38.7447250  39.8415204  92.9326579  41.1169136  25.9722635
  92.0631442  41.2639797  26.3444825  93.5057196  41.0209358  26.7329332
  99.9596867  27.4463594  11.4049836  99.7759423  27.0847643  10.5379697
  99.1436038  27.3290623  11.8912813  90.6261799  30.9189976  27.6233217
  90.2546367  30.3586376  26.9420167  91.1843857  30.3345001  28.1361600
  74.7337274   9.1791829  78.1310749  74.4843440   8.7396439  77.3181486
  75.3059654   9.8936566  77.8512478  17.3871232  68.0158413  45.1999017
  17.2619058  67.5700176  44.3621751  18.3192779  68.2325447  45.2189180
  10.1942874  41.6113556  10.5691167   9.3292380  42.0049656  10.6830808
  10.6866885  41.8872154  11.3422128  80.7298503  51.3341320   4.5500203
  81.1045715  51.7817295   3.7914296  81.4834383  51.1288822   5.1033803
  92.3999796  64.2201412   7.5321122  91.9693956  63.5774506   8.0958291
  92.9004047  64.7702110   8.1347963  28.4392500  84.2650700  73.2153463
  27.4874878  84.1666889  73.2418442  28.6131239  85.0522804  73.7313795
  58.7421179  65.9288931  84.6682739  58.3487797  66.2598228  83.8608074
  59.6815348  66.0720682  84.5532513  49.3568239  53.2412231  18.1487581
  48.6997232  53.8079918  17.7447435  50.1898536  53.5462273  17.7892228
  32.7413750  81.3727856  83.0684376  32.9851079  81.4098930  82.1435261
  33.5430479  81.6053772  83.5369015   4.5746041  35.4835403  24.9753305
   3.9982987  36.2425125  24.8854848   4.8319722  35.4860390  25.8972760
  85.9094188  66.3065708   6.6373845  86.8553624  66.1718452   6.6945859
  85.5368516  65.4291141   6.7239782  17.8985978  77.9103744  17.2857686
  18.6050654  77.3829163  17.6584932  17.3360063  77.2768104  16.8404409
  26.8670321  61.9943237  72.6781893  26.5172362  61.3488674  73.2923985
  27.8135967  61.9699526  72.8183889  89.8601374  27.1783054  21.5233156
  89.3198058  27.2177494  20.7341882  90.6849167  27.5926769  21.2698003
 102.6180253  57.8084553  12.9712125 103.4345779  57.5606144  12.5375673
 102.1837387  58.3917320  12.3487779 101.1412058  24.1810453  19.9412557
 101.6164908  24.3099583  19.1204568 101.7260441  23.6428678  20.4746934
  22.6937152  52.9815948  10.7254049  21.9703008  53.6022747  10.8129712
  22.3558475  52.3004711  10.1439115   4.0405619  97.1910954  72.6620722
   4.4365481  97.8191948  72.0579910   3.2804930  96.8511486  72.1898890
   8.3438814  79.2390823  67.1798182   7.5228143  79.1523790  67.6641321
   9.0225524  79.0170002  67.8172493  50.4582262  88.3871460  87.1232128
  50.0393724  87.7521896  87.7042770  49.7901630  89.0574360  86.9795513
  34.5852519  69.0223205  13.3593293  34.3435718  68.6268604  14.1968366
  35.5264092  69.1809547  13.4320852 109.1414890  43.4205807   0.8102151
 109.0449557  44.3654526   0.9290906 108.4189233  43.1769169   0.2316305
  11.9587255 100.3039742  76.3473129  12.0672393 101.2536812  76.2972641
  12.5261760 100.0358200  77.0700359  53.5417175 103.2930088  60.5624342
  53.4570932 104.2021179  60.2750301  53.6701012 103.3520699  61.5091467
 108.1881246  29.3860615  19.4406244 107.9807267  28.6006344  18.9343377
 108.9559970  29.7559822  19.0050145  89.4872806  18.3201635  55.9183809
  89.2352841  18.0427111  55.0376149  88.9988002  17.7391088  56.5014764
  47.9653947 101.8788270  14.4969865  47.8553383 102.5998048  13.8770601
  48.7380903 101.4090089  14.1832277  81.8798161  77.3447180  84.9815178
  81.4259148  77.7333736  85.7292843  82.7932167  77.6086807  85.0921726
  49.8656845  76.8228292  83.5043049  49.0198040  77.1412706  83.8194370
  49.6523905  76.0421181  82.9931927  13.8543511  31.5144909   4.7315046
  14.0296556  30.6190288   4.4422933  14.4206716  32.0582378   4.1839238
  80.1116996   2.1321305  67.1032286  80.7881932   2.5602445  67.6279259
  80.5909114   1.7213162  66.3836336   5.9611274   0.3273476   4.5955011
   5.0586225   0.6461037   4.5850393   5.8793784  -0.6196320   4.7085687
 103.9256653  62.5019825  16.5172025 103.9814171  62.5897682  15.5656740
 104.8289117  62.3541439  16.7974302  46.8473101  82.2196293  79.1504717
  47.7577257  82.2969246  79.4357872  46.7655659  82.8518963  78.4364796
  95.2752909  50.6828487   2.6038476  95.8772287  50.3496159   1.9383737
  94.7928819  49.9104870   2.8987619 105.6745275  54.3745089  85.6074715
 106.0959228  55.2331495  85.5701828 105.1048609  54.3536854  84.8385239
  36.5356779  67.5249290  79.2912006  37.1990871  67.5522041  79.9806786
  35.7085609  67.6764297  79.7485399 103.9421353  24.6470392  40.3809282
 104.4000206  25.4827822  40.2909108 104.4157490  24.0507687  39.8009416
  15.9705068  33.6242664   4.1302320  16.7333222  33.2782257   3.6669847
  15.7506562  34.4294536   3.6616441  94.2387013   4.3779668  62.8419399
  94.1590457   5.2500829  62.4555540  94.6719460   4.5270070  63.6823702
  97.8717204 103.2374191  85.2019310  97.3038026 102.5228786  84.9135971
  97.2968658 103.8104343  85.7093143 101.2155614  38.6052215   4.5940801
 100.8886156  37.9608333   5.2218553 100.6525573  38.4995544   3.8272115
  90.2285752  46.1242760  19.5789548  90.0141260  45.3451240  20.0919458
  91.0568473  46.4325893  19.9465677  71.6027145   8.1614407  89.9537086
  71.5299516   8.8382062  89.2807102  71.0849910   7.4307736  89.6155930
  55.7886506  14.0248764  30.1838704  56.5749551  13.4845627  30.1063463
  56.0465623  14.8754871  29.8286649  35.6780910  76.3748646  86.7976093
  36.0434461  75.7201719  87.3926926  35.9602475  77.2137833  87.1620655
  91.0766110  75.5429542   5.9325906  90.1973209  75.2446068   5.7000657
  91.1607024  75.3378284   6.8637582 103.8087568   3.2943571   7.8274175
 104.3317423   3.6340607   8.5535833 104.3660650   2.6308573   7.4207135
   8.9157821  41.8067730  23.1302282   9.0172483  42.0401562  24.0529844
   9.0184547  40.8552921  23.1111356  10.3294183  52.6684368  26.5060254
   9.3744756  52.6424015  26.5662881  10.5108596  53.3689487  25.8794519
  47.2378922  67.0712090  86.2178135  46.6838026  66.9690704  85.4440022
  46.8953514  67.8499126  86.6565800  97.9156694  61.4413631  22.7772447
  97.6977143  61.6155041  23.6928865  97.0688972  61.4032734  22.3325464
  77.9197103  27.8414047   0.9887334  77.8353760  28.3070648   0.1567098
  77.1748659  27.2403801   1.0034009  79.1156583  15.1048478  39.1528058
  78.5434251  15.3828916  38.4376359  79.7961049  15.7770261  39.1902614
  81.0781007  13.1866750  45.5328751  80.2282147  13.0894193  45.1033735
  81.4251809  12.2959432  45.5815506  74.1404085   1.3658627  77.5016260
  73.6738305   1.7580136  78.2397032  73.7151103   0.5181035  77.3725796
   9.9894668  56.6752136  23.4270688  10.5612088  57.4051083  23.6649629
   9.1199161  57.0676792  23.3490678  91.0680864  32.3411835  21.5496656
  90.3496298  31.8877972  21.1086389  91.7660353  31.6883457  21.6036149
  27.3499584  90.4966259  54.0332127  27.3974419  90.3951454  53.0825901
  26.6456532  89.9068356  54.3021679  88.4697256  25.9405506  13.1499215
  87.6201269  26.3322246  12.9474183  88.3107886  24.9969995  13.1239053
  78.1555325  22.3366201  27.7228185  77.6312927  23.1374109  27.7346631
  78.7192732  22.4307335  26.9549867  86.5512917  33.2388580   7.1365568
  86.5066454  32.3980415   7.5918218  85.6618116  33.5882652   7.1910592
  94.7675810  36.1310089  37.2941610  93.8795302  36.2525165  37.6300737
  95.2527127  36.8891037  37.6200029  59.3792820 102.6199627  69.2872238
  59.1525269 102.7759552  68.3704472  59.1451263 103.4336567  69.7336626
  65.6383905  23.3684957  12.8652116  65.3456196  23.5692203  11.9762632
  64.8571626  23.4831417  13.4062978  45.6851196 103.9389801  59.3932343
  46.5044975 104.2265511  58.9905500  45.2514458 103.4243202  58.7125778
  12.6403522  81.5270519  67.4047375  12.2817004  80.8123493  67.9308653
  12.2378671  81.4157486  66.5434313   9.7847320  45.0176037  12.1507379
  10.3863765  45.5300606  12.6907750   9.8729659  45.3908527  11.2737294
 105.0695731  83.4726143  83.6134148 105.6321027  83.4956169  84.3875313
 104.1916867  83.6525059  83.9498425  22.3310637 101.4143562  63.1246662
  22.4622846 100.9270954  63.9380503  21.4797330 101.8380547  63.2339668
   9.4530177  68.9505434  90.5425835  10.2329409  68.5942936  90.1171017
   9.6432638  69.8824978  90.6498241 108.4341702  70.0527656   3.3520719
 107.4999342  70.2404774   3.4426042 108.5234532  69.1413868   3.6307164
  10.3477431  74.0467823  29.3206235  11.1068917  73.9198959  29.8896810
   9.5937825  73.9560116  29.9033185   4.1116668  58.4215439  17.0982477
   4.4832135  58.2438743  16.2341710   3.2263804  58.0598534  17.0572778
  21.4261508  76.3962030  58.4591532  20.5230331  76.3881540  58.1420660
  21.3639116  76.0992384  59.3669891  81.0435963  73.0323839  68.5640049
  81.4237690  72.1752310  68.7563324  81.7931175  73.5797310  68.3297825
  52.5804727  17.4043187  65.4280901  52.7046327  17.5183877  64.4858551
  51.9162326  16.7189607  65.5009079  79.7847328  68.9267528  23.3964273
  80.3728000  68.7004364  24.1169759  79.9955943  68.2959736  22.7080365
  58.1986074  15.8593949  85.3876591  58.8934808  16.5158090  85.4376984
  57.4340014  16.3433274  85.0755405  69.6308737   0.4607972  77.0180368
  69.8841910   1.2269315  76.5031576  69.2085438  -0.1225558  76.3875055
 111.1702118  20.7608593  12.0310136 110.7605300  20.1060522  11.4656659
 110.4416284  21.2978208  12.3425790  46.8430710  99.1151333  57.9977560
  47.2508955  99.5510197  57.2494841  45.9169531  99.3489647  57.9356050
  15.1123143  78.0214870   6.7816373  15.3236915  78.6718643   6.1118909
  14.3180467  77.5953663   6.4594671  53.0482292  95.7318115  89.1005039
  52.7411890  94.8292065  89.0153599  53.8973141  95.7386589  88.6586475
  51.9506311  95.8809280  86.1729527  52.2104311  96.7329979  86.5232658
  52.7090597  95.3175068  86.3264656  38.9229798  72.3022175  80.1045990
  38.0990219  72.7607679  79.9401045  39.2769122  72.7198839  80.8897877
   1.2671432  97.8460026  89.0283871   1.9618911  97.3830032  88.5602093
   1.5752818  98.7507439  89.0806198  42.1883441  10.2314556  10.5705758
  42.5288821  10.3394354  11.4586088  41.2544776  10.0596321  10.6914159
  79.9676518  14.2495164  59.6388674  79.4049744  15.0088033  59.7908449
  79.3685441  13.5029897  59.6418810  77.2706262  35.4080761  10.5502244
  77.7562371  34.5931137  10.6776544  76.5027175  35.3201092  11.1148568
  78.9526251  46.6259468   4.1973611  79.2164651  46.0955131   3.4455320
  79.3064776  47.4959553   4.0126725  72.7168751  86.7905617  87.6550770
  72.1412373  86.6686916  86.9000816  72.2635555  86.3520908  88.3751297
  93.0218801  40.7414234  11.9113084  92.3225531  40.2015007  12.2796270
  92.5707063  41.5054119  11.5521451  66.7772675  93.0082226  83.9420509
  67.1973372  92.1499825  83.8855076  67.2916508  93.5655880  83.3581066
  91.5724568  13.8059720  89.9030113  90.7692914  13.5270509  89.4632816
  91.3104110  14.5679673  90.4196644 111.2004075  91.6610420  31.1215326
 110.5207595  91.0498512  30.8373472 110.7236609  92.3535049  31.5791723
 107.4856191  30.9564504  78.8406229 107.0381837  30.7686051  79.6656942
 107.6236348  30.0972184  78.4419870  15.1685859  41.2746227   1.3470002
  15.7265569  40.9840286   0.6255742  14.3594504  40.7744491   1.2404462
 104.9982581  27.0333469  15.2311918 105.1452503  27.5139034  14.4165155
 104.4226846  27.6010979  15.7436487 100.4341178   1.8936833  68.9467716
 101.3852887   1.8828877  69.0534925 100.2999644   1.9893845  68.0038643
  67.7252674 103.1563568  74.7428560  67.9488325 103.1318951  73.8124514
  68.1427717 103.9537334  75.0686169  15.3595782  73.5242546  10.2691957
  15.0116445  74.2230881  10.8231088  15.4530860  73.9270103   9.4059011
  13.2286407  82.9402531  15.5483457  12.2763063  83.0360115  15.5371019
  13.5336352  83.4950531  14.8304292 107.6819381  72.3561848   7.5637266
 108.0607042  71.4924038   7.7269574 107.9849348  72.5886047   6.6859933
  66.4572530   0.1136788  86.4308453  66.4692502   1.0616120  86.2984753
  67.0979671  -0.2236930  85.8048248  24.7682859  18.5411108  11.6408368
  24.6850682  19.4783390  11.8166467  25.3565360  18.2204855  12.3244973
   6.6171456  62.6741493  21.7072603   7.5498439  62.7684582  21.5138360
   6.5478135  61.8254364  22.1444150  61.0322381  69.5345486  34.3886777
  60.2586080  69.2736328  34.8883363  61.7544080  69.0597237  34.8000547
  31.9265223 102.7897263  75.8028221  31.8230319 102.3566246  76.6501379
  32.1802425 102.0872498  75.2041674  73.7914805  45.2110490  87.8782654
  73.1314163  45.6147775  88.4417820  74.1879372  45.9455022  87.4096107
 108.6970267  59.3170441   8.8096734 108.3580193  59.6265495   7.9697248
 109.4023451  59.9279583   9.0230676  75.7829218   1.4569768  87.7876091
  76.0972457   1.5291699  88.6888409  75.0287108   2.0451268  87.7491570
  98.9318070  41.3924969   1.5483781  98.1807408  41.7965496   1.1137792
  99.3503389  42.1117866   2.0213338  33.1095314  94.7418308  75.5198622
  32.9874086  93.8284302  75.7787418  33.1261945  95.2247810  76.3461256
   2.3485566  53.4076488  10.4758569   1.9501043  52.6203525  10.1048776
   2.4552442  53.2067287  11.4056321   0.6160213  16.0134352  12.5503846
   0.7129837  16.0162199  13.5026571   0.4604341  15.0954807  12.3281595
  15.8442112  21.7673119  71.6490984  15.0128647  21.3018712  71.5571642
  16.4355656  21.1258611  72.0428705  50.7830565   5.0347814  30.7268119
  50.4516892   5.0467404  31.6247439  51.2064032   5.8861360  30.6163764
  81.9145875  12.8614243  80.9097385  81.7154174  11.9273957  80.8452320
  82.5673823  12.9194936  81.6073990   5.8732606  75.8279121   0.9365674
   5.4502536  76.6370380   0.6491395   5.1478864  75.2449501   1.1606523
  14.5890927  96.1601448  66.8490553  13.7030268  96.5170479  66.9101810
  15.1608729  96.9236469  66.9287920 109.4196877  54.2176140  24.4187566
 108.6124239  54.7024620  24.2470762 110.0921402  54.8937500  24.5017167
  50.9217405  97.3075581  73.7006330  51.0485220  96.4069080  73.9989519
  50.4442835  97.7311611  74.4139481   4.4428683  33.7644565   7.8365156
   4.1611434  32.8511417   7.7843114   4.4171525  34.0751446   6.9315072
  71.5473251  10.0019559  65.6159401  70.9458308  10.6128701  66.0416317
  72.4151139  10.3776177  65.7644224  97.7645593  29.0406617  69.0960503
  97.6440768  29.9802121  68.9584160  97.9103474  28.9533338  70.0380468
  83.9431815   8.9888200  70.8631706  83.5066371   8.8277825  71.6996670
  84.3217377   9.8631677  70.9549809  38.4049274  31.5163505  16.2747403
  37.6862098  31.5127457  16.9069310  38.5993959  30.5906856  16.1279031
  68.0903387  60.9064865  80.9330273  68.4389353  60.1625347  81.4241982
  68.8363981  61.2315083  80.4290581  49.5622556   2.5088414  77.8626347
  50.2713983   2.7913579  77.2851133  49.1916625   3.3231553  78.2029057
  24.5836783  48.1536472  15.8183976  24.9828292  47.4389255  16.3144704
  23.9920236  48.5761440  16.4410325  98.9837799  46.5159786  11.4254400
  99.5600066  45.8172024  11.7351171  99.5035133  47.3142803  11.5193769
  97.9035530  89.1968048  10.4718801  98.3855304  88.3914173  10.2840635
  97.0817647  89.1019810   9.9903127  72.9941225  60.9252834  77.6704597
  73.1740046  61.7910624  78.0369282  73.6227560  60.8328962  76.9545555
  48.2970429  33.6710632  13.8765260  47.6456452  33.9376057  13.2277700
  49.0999223  33.5433185  13.3712694  13.7737752  74.3362034   6.5678045
  14.0389968  74.4909370   7.4744150  13.6280728  73.3914268   6.5187951
  60.1507644   3.0933389  82.7789307  60.5684309   2.2450837  82.9281139
  60.8694773   3.7243375  82.8178692  85.2944469  58.6404705  88.3965683
  85.7544422  58.8556576  87.5851917  85.7968426  57.9174709  88.7722015
  62.6236439 100.9412003  72.8549242  63.4054852 100.6655979  72.3763895
  62.1180058 100.1368046  72.9711628  99.8919043  49.7171390  21.1149236
  99.4175872  50.1345241  20.3958722  99.2058978  49.3611133  21.6796132
  24.5204306  77.4805737  88.1054592  24.9465346  78.3247519  87.9570293
  23.8195014  77.4483204  87.4543858  56.6528703  56.1385525  18.1716844
  57.4896813  55.7952011  18.4848615  56.0460759  55.4029072  18.2544824
  16.3268424  42.4311149  22.3314306  15.6840755  42.7453316  22.9673311
  17.0740558  42.1554745  22.8623983   4.2547990  38.3939255  30.2416822
   3.6506225  38.6926163  30.9213849   4.0475751  37.4663914  30.1277944
  74.1071844  96.4274788  73.9300251  74.0393257  97.3343849  73.6314440
  75.0020599  96.3505936  74.2609596 103.8966593  39.6899879  25.0694009
 103.7779483  40.6235302  25.2444383 104.5853886  39.4182384  25.6760618
  79.7062354   1.3881120  81.9187164  78.8096766   1.3390073  82.2503948
  79.6130900   1.3334950  80.9676266  35.8811666  27.0397365  53.0669710
  35.2872373  27.6760471  53.4652158  36.7257167  27.4889744  53.0330488
  30.3194858  54.9057091   4.7876474  29.6968270  54.4618595   5.3634282
  31.0294105  54.2744148   4.6705648   1.2996174  76.1143768  24.9767133
   1.0089637  76.4295948  24.1209146   0.5036760  76.0958183  25.5080911
  13.9880889   3.0428120  16.4279386  13.9793855   3.7342641  17.0897886
  14.4900769   3.4127042  15.7017061  26.5123893  86.4460647  21.9235250
  26.6717292  86.1996735  22.8346368  27.0599986  85.8483589  21.4144918
  89.9236629  49.9108971  44.5501634  89.1557500  50.3504742  44.1850492
  89.9087140  49.0377319  44.1582605  25.8659124  88.3378220  73.2210588
  24.9214149  88.3010960  73.0700254  26.1174107  89.2211628  72.9514456
  30.9685327  60.8856476  16.2753793  31.2583352  61.6119945  16.8273565
  30.8952714  60.1433552  16.8752691  17.2988130  44.1524685  18.5275861
  17.6024247  44.4939888  19.3686696  16.3493205  44.2717350  18.5493203
  74.7133832  23.3929452  80.6595898  75.2180462  23.7517651  79.9296618
  75.3713064  23.1643876  81.3161945  12.5355482  71.8612623  79.9274778
  12.3185277  70.9596777  79.6902514  12.8609920  71.8008900  80.8256245
   4.4180490  56.7455566  34.2163297   4.5934678  55.9463013  34.7129651
   4.9118949  57.4255264  34.6745797 103.8258943  47.0058048   2.6079389
 103.3447275  46.3879669   3.1583806 104.5576152  46.4965237   2.2594377
  25.2660346  74.6277332  88.7948895  24.8999333  75.4957628  88.6254025
  25.8627820  74.7591639  89.5316792   9.5848132  25.6536997  18.4243699
   8.8373996  26.1336029  18.7811490   9.9742032  25.2185524  19.1828271
  17.5946427  54.7746933  26.7350408  17.2751332  54.1273392  27.3635885
  17.4375869  54.3755234  25.8793374 109.1548547  46.0367000   0.9677240
 110.0995145  46.0244644   0.8137819 108.8492236  46.8249405   0.5188390
  77.3041444  21.1527165  86.4206409  77.4641471  21.5397557  87.2813511
  76.4592223  21.5118798  86.1498356  18.2226802  64.9911201  20.7093355
  18.8950063  65.4296101  21.2308141  18.6648847  64.2248810  20.3438684
  35.2019454  64.3577850   4.8559018  34.3588353  64.4076813   5.3063508
  35.0050784  63.9219177   4.0267488  23.7824297  97.7153873  86.5083694
  24.1721797  98.4544659  86.0413647  23.8046575  97.9753780  87.4293137
 106.9963393  61.4147747  33.5697004 106.8260321  61.8292416  32.7238580
 107.8276381  61.7916477  33.8580343  36.3923932  54.3117035   3.9967367
  36.3817884  53.3903778   4.2561170  35.6012822  54.4210995   3.4690973
  25.9469914  62.0038509  69.8992157  26.5516829  61.4046049  69.4616222
  26.2991285  62.0952415  70.7845831  98.2042417  73.8931835   0.5757734
  98.3319530  74.8415649   0.5536863  97.5687990  73.7533653   1.2778398
  19.3946819  30.8434400  81.3801289  18.5748904  31.0427102  80.9279537
  19.5425455  31.5972241  81.9512463  48.2256746  97.3342037  85.3039551
  49.0275192  97.8052902  85.5305672  47.9980040  97.6548767  84.4312763
   9.0172959  33.1738460  26.1976930   8.1195499  33.2331264  26.5244409
   8.9541770  32.6133716  25.4243108  59.1323805 102.2937965  59.1067219
  59.7681761 101.8072510  59.6313858  58.2859659 101.9151974  59.3443632
  86.1075692  14.4059190  53.6669397  86.1704116  14.3705758  54.6214199
  85.7312207  15.2666863  53.4834003 102.0225033  87.6137150  47.4833700
 101.2748751  87.8762901  48.0203363 102.7875147  87.8224075  48.0194970
  15.7331706   9.4195831  13.8721963  15.7689239   9.9557102  13.0800363
  15.0795127   8.7479628  13.6775609  24.8080445  52.8641022   2.1112367
  23.9940644  53.3220756   2.3208352  24.5786477  52.2903431   1.3802072
  34.3796350  28.5323036   2.8590223  34.7441340  27.9581154   3.5325834
  33.6557389  28.9826095   3.2942602  95.1927480  40.8032120  13.5973760
  95.5798421  40.1254738  14.1515085  94.3687091  40.4224956  13.2936498
  36.4400535  -0.1832477  83.9137840  37.0284787  -0.0316421  84.6533775
  36.0321887   0.6678113  83.7538528  65.4237513   5.9221658  67.8006411
  65.7132511   6.6109570  68.3989573  66.1273913   5.8541783  67.1552753
  24.5422550   4.3005666  60.5630827  25.4172322   4.1722306  60.1967812
  24.4262978   3.5682973  61.1685276  29.4167043  29.2464722  26.4700433
  28.7100173  29.0248001  27.0764085  29.0187503  29.1758812  25.6023523
   5.7685037  87.3087422  76.0000658   5.4586168  87.9559461  76.6335726
   5.1853223  87.4114183  75.2480078  47.4837344  70.1287655   8.8202401
  46.8913655  69.4069473   8.6097452  47.5300674  70.6433407   8.0144521
  67.1360164  61.2071488  11.2473413  66.3206010  61.6885982  11.1075708
  67.8020434  61.8875579  11.3457414  49.3902063  11.2294304  84.9626064
  48.6280870  11.7985725  85.0697613  50.0143290  11.7563200  84.4635201
 105.1843218 103.3117965  69.8084450 105.4618338 102.8564933  70.6033754
 105.8453397 103.0795475  69.1562557  41.6961479  18.8358176  55.2237129
  41.3764572  18.0936301  54.7106934  42.4000835  18.4708643  55.7599163
  60.4753975 102.0621410  79.0616417  61.3016490 102.0410073  79.5444393
  59.8281232 102.3464430  79.7069645 100.1060132  87.3610047  80.0766277
 100.5732826  87.3287121  79.2418575  99.3892196  86.7349378  79.9742603
  72.4793343  58.0719612   6.8988820  72.4216776  58.9422283   6.5044900
  71.8850188  58.1087814   7.6483270  40.7656482  88.5174564  74.9798393
  40.0453285  88.1378428  75.4830933  41.2212447  87.7626780  74.6070480
   8.2560337  58.4215689  66.9210339   7.9511529  58.0659723  67.7557993
   8.2499534  57.6725388  66.3250971   6.6150749   1.4596024  73.0025816
   7.0185238   0.6024773  73.1396866   5.7357407   1.3720208  73.3704567
  92.0982393  27.6279068  86.8174553  92.0793565  28.5842896  86.8522358
  91.3161596  27.3552990  87.2973251  35.0103211  12.9662454  54.4957685
  34.9329615  13.2716608  53.5919046  34.1524148  12.5921237  54.6964216
  26.2757635  45.5671263  49.5182276  26.1562228  44.7070551  49.9209976
  26.8096018  45.3961372  48.7423325  34.2206337  79.0453819   0.5883619
  33.5359503  79.7090296   0.6720945  34.9794410  79.4271068   1.0296365
  31.5747546  79.3861560  10.3834840  31.3859956  79.5031957   9.4524022
  32.1853866  80.0923780  10.5946943  17.2143912  48.2868671  83.8630867
  16.9639814  47.3902273  84.0857220  16.3972759  48.7023354  83.5875130
  16.5578556  15.1073503  77.1543312  17.3722053  15.0461602  77.6536512
  16.0662389  14.3239498  77.4009657  63.0058869  26.6932392  49.8063898
  63.4755095  27.4131346  50.2276278  63.5518178  26.4575434  49.0562963
  41.1237764   6.1083263  85.7279110  40.6842709   5.7880127  86.5156078
  41.9106483   5.5680269  85.6561947  22.3046803  60.5711555  84.1487312
  21.8594027  60.5326653  84.9951744  22.1468043  61.4617062  83.8353252
 110.1389363  57.9569721  65.6892014 109.3832102  57.5566673  66.1191607
 110.5414415  58.4988022  66.3679075   2.6662898  21.1857462  63.0454350
   2.6764715  21.9277453  63.6500549   1.9967726  20.5991507  63.3974075
 106.9752737  34.1004038  10.6657124 107.6109072  34.7130680  10.2957845
 106.5886631  33.6676621   9.9044651  81.2817118 103.4152054  55.9573984
  82.0720176 102.9020928  55.7889795  80.6954119 103.1967494  55.2329922
  29.2501426  40.8835745  65.7138348  28.9180732  40.9786701  66.6065359
  29.7315145  41.6944838  65.5496979  19.9830866  29.0370727  78.4052038
  20.5693746  28.2860160  78.4969330  20.5519843  29.7994423  78.5118723
  76.4543327  22.8134727  56.1648083  75.9753474  22.9635382  56.9798470
  77.1398839  22.1887636  56.4014292  16.9266069  10.4123795  65.6066084
  16.7523825  10.7105458  64.7138739  17.6599002   9.8037046  65.5170155
  40.6790066  26.0373688  87.3067284  40.6131315  26.6824174  88.0108547
  41.1756802  26.4823008  86.6200066  16.5607123  72.0543686   2.9325887
  16.0023312  71.3044325   2.7275583  17.1324222  71.7425934   3.6341497
 109.3042655  17.5015342  70.1624584 108.9639836  16.9262695  70.8476686
 110.2422313  17.3125875  70.1350451  76.7694107  23.4023416   2.5543710
  77.4524099  22.7846325   2.2932550  76.4658375  23.0792272   3.4027025
  98.0010346 100.8762819  66.3625908  98.8356498 100.8281211  65.8964062
  97.4106816 100.3194571  65.8549881 107.1701210  27.6177335  72.7700472
 106.4272865  28.1327081  73.0850554 106.8132653  27.0986557  72.0493221
  35.7350339  72.1870104  11.1231729  36.3916840  71.4912585  11.1543580
  35.6720799  72.4155466  10.1957914  14.0552616  57.3995018  46.1183882
  13.8256276  57.4767065  45.1923561  15.0066316  57.5030136  46.1386776
  38.1958857  68.9041511  -0.0744227  38.7882503  68.4418825   0.5185720
  37.5369471  69.2932931   0.5005571  58.3768514  95.2922056  87.4300385
  58.6162177  94.9567578  88.2939911  57.9916350  96.1508671  87.6047993
  29.1423451  62.4688760  33.5334417  29.4869892  63.2805482  33.9057943
  28.2543992  62.6916853  33.2539102 110.3315315   4.4676664  78.0670452
 110.5890775   3.5694966  77.8592205 110.5307666   4.9637708  77.2730589
  36.4309820  77.7287415  10.5677053  36.6432609  76.8610696  10.2237245
  36.0099471  78.1800083   9.8360463  88.4253987  53.7548733  77.4289656
  88.7231740  54.6027851  77.7585173  88.7953456  53.1172562  78.0395508
  15.1546264  35.0145173  59.6036386  14.4791758  34.4358540  59.9574041
  15.3710318  34.6369123  58.7511063  17.2828782  16.5490007  47.9738140
  17.3588729  17.1083832  47.2007990  17.0098042  17.1427369  48.6731958
  97.2861501  47.2007132  44.4761229  98.1296452  46.8861055  44.1509008
  96.6774090  47.0434380  43.7543678  69.2340689  89.2955998   6.3646909
  70.1510172  89.0632872   6.2181684  68.9149360  88.6350278   6.9795343
 102.8505329 103.2734515  85.2729607 102.4329690 103.2887358  84.4117832
 103.4502534 102.5283739  85.2351665  30.7940494  76.0824398  13.5822889
  31.3511823  76.1161427  14.3599149  31.3818447  75.8085875  12.8782102
  34.4411849  80.4077772  16.1245748  33.9828910  80.7834653  16.8762704
  33.7422370  80.1144103  15.5400678  81.5028719  84.8719016  86.8092251
  82.1330670  85.4932967  86.4445972  81.0343555  84.5310203  86.0473061
  23.0987167  25.7215261  82.2601223  22.3731542  25.4039049  81.7226219
  23.5807109  24.9310446  82.5031281   0.4605964  33.6319113  87.3519135
  -0.4002063  33.9765620  87.5895309   0.5472669  32.8289485  87.8656960
   4.9935505  38.6817241  39.0851378   5.6603789  38.2877779  39.6476126
   4.2157757  38.7394977  39.6400785  34.5221829  21.6899681  64.6281719
  34.5267272  21.8612337  63.6864281  35.4470253  21.6832137  64.8748493
  21.8984413   3.4063745  87.1149445  21.1052942   3.5290465  87.6365757
  22.3717403   2.7036431  87.5603485  34.1913812  77.8091554  17.3039457
  34.6932924  77.5311927  18.0701467  34.8261422  77.8052596  16.5875074
  70.8458979  92.5210265  73.0661631  71.6621265  92.3310724  72.6036453
  71.0040519  93.3616963  73.4956884 109.8928154  23.6724210  79.4506073
 110.3138306  23.6592627  78.5910702 110.6058113  23.5129070  80.0690174
  82.3190912  12.6295960  61.8350220  83.2321843  12.4103808  62.0205975
  82.2213634  13.5301697  62.1442938 107.2870760  61.6981697  72.6444244
 106.4610755  61.9050360  73.0816412 107.9034462  61.5398169  73.3594370
  31.2014461  39.9554563  67.9170799  31.4799690  39.0479589  68.0399704
  31.6458535  40.2361536  67.1171188   1.9191223  39.9848104  67.6216412
   1.0137276  40.1584053  67.3640394   1.8462251  39.5251012  68.4580517
  10.1039557  60.4091577  30.5118963   9.6485762  60.8122382  29.7727128
  10.5176167  59.6292607  30.1419278   7.8278321  36.1936903  77.0913029
   8.5174561  36.5816450  77.6299524   7.9658633  35.2496767  77.1688795
  72.9178767  62.9488174  32.1266671  72.8715186  62.0732538  32.5106832
  72.0301537  63.2960049  32.2140809  12.1764565  18.6062574  88.8598537
  11.3450956  18.8147271  89.2860126  11.9437540  18.4492075  87.9447556
  51.7576115  90.6208805  23.8907453  50.8096735  90.5304889  23.7934038
  52.0990889  89.7396521  23.7388727  87.4282225   8.4458899  55.9266043
  87.7870902   8.0074662  55.1550961  86.7240366   8.9960557  55.5835724
  27.7801228   2.0356710  55.8154583  27.8373265   2.5291678  56.6336393
  28.6782622   2.0147175  55.4850960  74.2071518   9.2638260  82.8931904
  75.0379976   8.9479166  83.2483292  74.1082462   8.7967455  82.0635605
  69.5551261  80.7891273  89.2567825  68.6615332  81.0888863  89.4237328
  69.4926222  80.2923489  88.4409714  74.8953323  58.2769451  12.1816942
  74.5209627  59.1389058  12.3636361  74.2145781  57.8194634  11.6882154
  76.7498450  97.8506640  12.1975728  76.3054995  98.6954526  12.1260186
  76.1036043  97.2738723  12.6048967  46.0964744  60.4601012   3.7604352
  46.3989167  61.3097952   4.0810319  45.1720421  60.4265038   4.0064641
  23.8133478  19.4026315  78.6384010  23.2733059  20.1895046  78.7120152
  23.2138801  18.6817932  78.8314390  65.3992060 100.4666168  72.0910072
  65.5472944 100.8528120  72.9542303  65.5173275 101.1937693  71.4798355
   2.5137269  27.3295808  67.6003885   1.5780821  27.4520063  67.7610493
   2.8195599  26.8145084  68.3469772  12.5980616  27.1097970  78.6668921
  12.8090882  26.8565369  77.7682495  13.3349502  27.6556706  78.9412165
  58.7747494 101.2689060  49.0348625  58.1152467 101.1887682  48.3457565
  59.4305590 101.8635327  48.6707687  16.5517859  82.6855043  24.4746705
  16.3848262  83.6278991  24.4905111  15.8368187  82.3069624  24.9862977
   3.9016822  13.2563639  71.2747955   4.3303645  13.5959494  70.4892111
   3.5013139  12.4339676  70.9926558  42.6234007  10.4966033  69.8641443
  43.4357023  10.8202171  70.2535963  42.2279167   9.9570119  70.5487347
   3.8841933  25.2301216  78.4810066   4.6140611  25.5279279  77.9380178
   3.9347589  24.2748547  78.4472752   7.7246225  45.5590582  80.1450062
   7.2207940  44.7479391  80.2118778   7.3868436  46.1097479  80.8513165
  57.3972944 104.8354843  73.0638409  58.0875782 104.2197125  72.8177452
  57.8620580 105.5649063  73.4739304  91.5549961  76.4342300  59.5222425
  90.6648544  76.4862791  59.8703337  91.7168847  77.3002807  59.1481018
  66.8669519 101.2540314  46.5299082  67.1665410 100.7737586  47.3017979
  66.2259833 101.8782729  46.8700743  41.3722812  66.6531531  11.9558736
  40.5969016  66.1117879  11.8077394  41.1170422  67.5248519  11.6538354
  11.7172742  17.6346469  86.3816833  12.1415138  18.1543422  85.6989193
  11.7877865  16.7311406  86.0735703   3.9846715  34.7093201  57.1889925
   4.0907481  35.1003170  58.0562305   3.0374819  34.6289396  57.0767307
  14.3958001  65.2957598  11.1743566  13.6223059  65.4117564  11.7261621
  14.9930076  65.9912411  11.4498254  86.1127838  14.4529712  67.2172928
  85.9443410  14.8666096  66.3706732  85.2856263  14.0286732  67.4453545
  41.1841202  24.1589737  89.0998650  40.5596924  24.6217823  89.6585560
  41.1932564  24.6602535  88.2844734  36.6594163  46.1601506  10.3937169
  35.7809334  45.9448627  10.0804254  36.5133017  46.7746130  11.1129590
  67.8037267  55.4210437  21.1654779  68.3073191  56.2314151  21.2424489
  67.2308998  55.5656443  20.4123517  28.3224177  14.9916768  89.8843098
  28.4920788  14.2168415  90.4201031  28.0787516  15.6698608  90.5143261
  27.5789094  40.2569818  70.8170223  28.2564735  39.8183632  71.3315582
  27.9613495  40.3464556  69.9441147  17.9968099  74.0943030   0.1928541
  18.2024269  73.5071258   0.9202977  17.1396296  73.8013844  -0.1164511
  23.7139249  56.8546152  60.8089304  24.0577817  56.9558954  61.6964769
  23.2701612  56.0065603  60.8193254  90.1201519  23.7608624  34.8725104
  89.5571788  23.3698630  34.2043686  90.7179578  24.3248892  34.3818617
  36.1353979  91.5961198  17.6641103  35.6311816  92.3989443  17.5319310
  36.8038061  91.8360118  18.3059141 104.1918716   3.7139595  23.7115690
 103.5296974   4.2514551  24.1461488 104.3761286   3.0108488  24.3343946
  23.6761379  13.4005308  47.5935268  24.4477534  13.4754622  47.0320749
  22.9392552  13.3610272  46.9838762  48.0887079  22.4801636  74.1652822
  48.7222815  22.5348425  73.4498596  47.2574759  22.2811270  73.7343931
 110.7833283  46.2524652  52.1389198 110.2246083  45.7711983  52.7491999
 111.3385062  45.5812025  51.7421675 109.1693506  77.1851492  66.6123819
 109.7490682  76.4479256  66.4209223 108.9611287  77.0909882  67.5419044
  16.1559260  61.5165901  52.5214911  15.5382514  60.8191156  52.7411413
  15.8191299  62.2874022  52.9782677  96.8776485  23.5517788  69.8327351
  97.6566442  23.5271454  70.3884268  97.2205039  23.5419846  68.9390993
  67.1499424  86.0505823   1.1506292  67.7857666  86.7372803   0.9496137
  66.5411858  86.4602975   1.7652627  10.2240252  59.8822212  21.1241269
  10.2645671  59.7608757  22.0727372   9.5938420  59.2265368  20.8255029
  74.8506383   4.7990644   0.7856008  75.4071647   4.5358646   0.0526353
  73.9723345   4.8593462   0.4098531   7.6511824  32.4192476  55.2095652
   7.0314366  31.7360735  54.9537945   7.3411250  32.7157497  56.0652399
  20.9969401  65.8604860  90.8799553  21.5842080  65.6106806  90.1665497
  20.4302025  66.5316725  90.4997635   3.2877266  36.0391068  79.6319056
   4.1270497  36.2942791  80.0148582   3.1066722  35.1763725  80.0049210
  82.0853190  94.7407083   3.1993123  82.0863967  93.8449363   2.8619405
  82.1988301  95.2891377   2.4230596  13.6431444  29.8085976  56.2241840
  14.2823660  30.0537944  55.5552244  13.0734134  30.5737352  56.3029432
  93.8871882  11.3196552   4.9007055  94.2627082  11.5323532   4.0463182
  94.1428182  12.0506132   5.4633733  97.4598989   8.9188230  15.6448194
  96.8229947   8.8582886  16.3568040  98.2482538   8.5019529  15.9925958
  27.9321384  48.6243963  78.7033939  28.7784100  49.0709877  78.7281990
  27.5498581  48.7875652  79.5656443  16.8302619  58.4961128  55.4550838
  17.6436234  57.9917049  55.4708672  16.4995837  58.3894920  54.5631695
  94.5781585  23.5343647  85.2741146  94.4854816  24.4033861  85.6645584
  93.7382527  23.3743167  84.8437977  42.9685597  54.4015472  17.8686067
  43.2082646  54.1169829  16.9866773  43.5348110  55.1541010  18.0396482
  99.3300983  29.9047899  66.1147547  99.8639210  29.1579056  65.8437824
  99.6760055  30.1473570  66.9736767  50.4114013  67.8858630  15.4601594
  50.4379432  66.9541637  15.6780168  50.2712517  68.3241979  16.2994691
   4.2368767  38.3866024  74.6653175   4.5556968  39.1715765  74.2198944
   5.0309283  37.9233599  74.9320030  63.4251289  91.0876969  18.3233472
  62.8309088  91.8242339  18.4670469  62.8624039  90.3865341  17.9947969
  16.3660753  36.5917563  82.2989655  17.1902406  36.6297436  82.7842903
  15.6900001  36.5713882  82.9762745  68.8103466  88.2332686  12.7842828
  68.2580046  87.9343847  13.5066530  68.1976371  88.4035090  12.0688554
  51.4394038  93.2379607   1.0155984  50.5034463  93.4155301   0.9223958
  51.8677454  94.0013961   0.6283971  16.6307557  55.8483648  67.2533083
  15.9828830  55.1678514  67.0705700  16.9828141  56.0808182  66.3940907
  23.1869388  32.7835345  88.5830021  22.4184656  32.2316146  88.4378529
  23.4945059  32.5409961  89.4563866  36.1627903  59.9663619   6.8482133
  36.7059220  59.4169126   7.4133226  36.6699362  60.0549791   6.0412523
 109.8009875  14.5507014  73.5757542 110.0389405  14.7225404  74.4868422
 110.4680473  13.9383805  73.2653904   4.2500854   5.7863605  84.2179394
   3.9875695   5.7562304  83.2979298   5.1098317   5.3659362  84.2355824
  54.2447393  67.3161570  20.4539701  53.4695189  66.7665915  20.3388902
  54.3198781  67.7996055  19.6312543  28.8260078  36.4098620  58.6579370
  28.9815903  36.6316032  59.5760107  29.6536708  36.6084051  58.2200050
  36.5884614  25.3298640  82.1717453  36.1972785  25.0171018  82.9874611
  37.3930073  24.8193145  82.0807552  21.8463469  53.1440639  77.4341917
  21.6553879  53.0845833  76.4981222  21.1489630  53.6971998  77.7862310
  93.8006707  45.0711012  83.0999279  93.1236013  44.4081020  83.2349968
  93.3505865  45.9045839  83.2376480 104.4537147  54.5209789  68.1059170
 104.2805441  55.3954697  67.7573347 103.5997840  54.2091751  68.4056044
  37.1168252  77.5244931   4.1698095  36.7046955  77.2668079   3.3452054
  37.0590629  78.4799127   4.1781350  38.9059353  16.4788687  75.8590841
  39.2619061  15.6207311  76.0895538  38.4075165  16.3237917  75.0567389
  62.7637133  32.1233356   9.6433374  62.7372751  32.6208961  10.4606267
  63.4298525  32.5642193   9.1159746  35.2387428  35.0989413  84.4732761
  34.9522924  35.9768605  84.2214012  35.5907345  34.7213864  83.6671829
  93.2183202  70.6800652  75.3680420  92.8146883  70.3849888  76.1842823
  93.6850115  69.9113894  75.0400686  64.3133216  95.9026507  33.1139108
  63.7982778  95.2885655  33.6372205  65.1824574  95.8885840  33.5147020
  12.0441175  31.7290616  49.7409773  12.4445605  32.5049853  50.1331806
  11.1100829  31.9348812  49.7029066  46.6526699  80.5870724  81.1190510
  46.6862822  81.1681747  80.3591633  46.0603571  81.0255814  81.7298794
  25.4154801  55.0726652  68.7317276  24.5965147  54.9366856  69.2082119
  26.0904384  55.0718689  69.4104481  43.4481096  47.9122305  48.1397152
  43.9278555  48.7386370  48.0837345  43.9249849  47.4023390  48.7945700
   3.2667638  16.5322769   5.8504983   2.9265882  15.8711136   6.4533063
   4.0224935  16.9045437   6.3049432  28.7243247  53.8853455  61.0785484
  28.1945443  53.3046436  61.6247606  28.0850244  54.4047213  60.5909204
  66.5371542  89.8352436  12.1685907  65.6319623  89.7733883  11.8635866
  66.4624672  90.0523094  13.0978605 106.0538241  44.1470528  74.8411512
 105.8429917  43.5870695  74.0940237 107.0100563  44.1897869  74.8461390
  55.2571106  46.2508583  78.6093044  55.5841208  46.8261909  79.3008852
  55.0447941  45.4328251  79.0587282  34.0619493  49.7714376  67.1957684
  33.3552599  50.4126310  67.2712040  34.0093064  49.2608166  68.0036831
   6.7331666  24.9716234  82.0501137   6.6327834  25.3083158  82.9405022
   6.7278826  25.7526135  81.4967060  16.0961068  62.8477955  73.5265541
  15.6547463  62.0035362  73.4335041  15.7635117  63.3734083  72.7989960
  43.3801460  31.9813776  85.4208183  44.1327477  31.4658642  85.7107735
  43.6663055  32.3822165  84.6000481   7.9823416  16.0585093  77.7814865
   7.8225994  16.0806656  78.7250042   8.6792374  16.6995656  77.6414347
  81.3603172  12.8173769   9.5089933  82.2728166  13.0186022   9.3014261
  81.3850996  12.4950397  10.4099485  88.6637822 102.7237800  59.8229218
  89.4478873 102.3095447  60.1832247  88.9635340 103.5806913  59.5194674
   1.0799875   9.3656832  59.9038601   0.2643164   8.8863158  59.7585344
   1.4938416   9.4011813  59.0414810  25.2803493   4.0089101  64.0807533
  26.1453342   3.8541332  63.7011814  24.7029567   3.4032804  63.6159277
  60.4707222  50.7865722  15.2874395  60.0593285  51.6141783  15.5365392
  61.4003448  50.9976763  15.2010080  25.4684567  48.8503742  57.1904373
  26.2113237  49.3907976  57.4593639  25.8208966  47.9612923  57.1510458
   4.6254051  65.9232426  72.5897741   5.1571286  66.5367794  72.0827484
   4.5533666  65.1497984  72.0304632  18.8817644   5.6264758  72.4374580
  18.5690653   4.8582169  71.9597244  18.0918896   6.1386245  72.6107550
  20.4987602  41.6696826  11.6598150  20.5643480  40.8212916  12.0981714
  21.3812809  42.0363096  11.7143270  28.8640451  67.5074816  78.0838442
  28.8528037  67.2341585  77.1665668  29.6347165  68.0705214  78.1565666
  35.1683807  33.0377269  80.0976086  35.9087944  33.4205484  80.5682087
  35.4889131  32.9178190  79.2036724  53.6286831  82.8023148  83.7954044
  52.8488684  82.2741890  83.6245441  53.5545444  83.0475044  84.7176933
  78.2178502 103.2196740  10.4352876  79.0893750 103.5595588  10.2324315
  78.0616383 102.5489358   9.7705003  42.4667454  41.5455484  57.8499937
  41.8254709  42.1037674  58.2897568  43.2543993  42.0862341  57.7909136
  68.3398875  50.1987553  73.9341831  68.5042914  50.6077480  74.7838449
  69.0679463  50.4880667  73.3842182  77.3221835  56.8962574  86.8267059
  78.1309208  57.3739529  87.0110512  76.7503198  57.0987654  87.5671101
  12.7547681  36.6759777  78.0474377  12.8307354  37.0122981  77.1544933
  13.6594629  36.5517259  78.3343554  20.6330085  28.2820964  86.8311596
  21.5364575  28.0469918  86.6196537  20.1127243  27.8876019  86.1312294
  26.5580106  41.8600416  64.9934387  27.4459052  41.5028572  64.9763155
  26.0842347  41.3558912  64.3319225   6.3892543  57.5953197  40.7930374
   6.3458800  57.4044657  41.7300129   7.1854049  58.1169128  40.6914520
 100.5009112   8.7107695   4.3713876 100.7787928   9.1796005   3.5844823
  99.8968777   8.0411518   4.0504667  45.3252268  29.7224522  48.3461761
  45.2373457  29.1119671  47.6141787  45.2814150  30.5889988  47.9419374
  12.3865271  24.4079399  85.9485531  11.8467331  23.7389827  85.5274296
  12.9529691  24.7338653  85.2491570  58.5727549  81.0774612  81.0341167
  58.0143929  80.4093552  80.6365013  58.0480480  81.4319229  81.7519474
   5.3042167  45.2208042  86.1460495   4.5788187  45.1215792  85.5294609
   5.4580212  46.1647606  86.1850166 105.5295344  17.0986199  64.1464472
 105.1930746  17.5593984  64.9150229 104.7531625  16.9183016  63.6163902
  29.6053778  64.4328085  17.0053026  29.1552131  64.3661956  16.1631891
  30.4967921  64.6989624  16.7799684  39.4552064  48.2959509  80.9529018
  38.6961937  48.4792519  81.5065575  39.9251151  47.6006031  81.4132404
  28.9557338  43.9079189  62.7884245  28.8123107  43.0816984  62.3268795
  29.0127397  44.5637083  62.0935011  59.7529702  91.0665039  24.0423414
  60.5362873  91.5821461  23.8506147  59.3348317  91.5274862  24.7695848
  64.3122053  13.3930314  73.2133579  64.7612524  12.6274395  72.8549480
  64.6232653  14.1245651  72.6801300   5.2788037  26.5738034  89.7053337
   6.0341012  26.1856294  90.1470089   4.7622803  25.8238244  89.4104290
  57.5875931  96.6094855  32.8728792  57.0128767  97.2482661  33.2946607
  57.8739457  96.0378531  33.5852548  45.9310865  75.3203917  65.4470778
  45.7449245  74.6027660  64.8416138  45.1446009  75.3870106  65.9885931
   7.3431951  49.3504715  84.1757679   7.6621109  48.7798357  84.8749828
   6.7548698  49.9635172  84.6165371  47.9596190  94.5838527   5.4378339
  48.2280712  93.7034062   5.1751920  48.7504928  94.9745158   5.8094999
  -0.2022423  63.6278248  65.3556681   0.3383099  63.8243914  66.1207819
   0.1774492  62.8272915  64.9934387   1.9919546  49.9721050  84.5090008
   2.4598397  49.8571634  83.6818886   1.4771016  49.1710424  84.6062565
  94.1801963   7.1160639   7.1619340  93.7032601   7.5178039   7.8881379
  93.7992987   7.5109947   6.3776037  22.3610377  45.3296375  84.8941326
  22.2853971  45.3725243  83.9408970  21.8090010  44.5890379  85.1451302
  85.0665864  51.7395258  79.0780687  85.2404412  52.3275614  79.8130655
  85.2190002  52.2765112  78.3004808  23.7858844   7.5058472  89.4228077
  23.0984211   6.8403494  89.3955708  23.3134913   8.3355057  89.4916821
 104.3025932   0.7326162   6.4312383 103.7031922   1.1693085   5.8260461
 103.9505968  -0.1531183   6.5195581   9.0488696  47.0713282  72.2392130
   8.8931018  47.3820448  71.3473463   9.4155204  47.8284025  72.6959848
  99.3199869  26.4043021  76.5870762  99.4009014  27.3434591  76.7534113
  99.9962195  26.0050011  77.1343470  44.3327926  90.4738382  10.4523679
  44.6405165  91.2783436  10.0348588  43.8921283  90.7706288  11.2485811
   1.8716852  61.7027283  68.1724119   1.0870910  62.1368313  68.5073757
   1.6905108  60.7683897  68.2744837  60.6059675  65.7268838   9.0453168
  60.5168228  66.3181344   9.7927781  59.7194867  65.4003493   8.8911649
  72.8916888  59.5580522   0.5894967  72.8851037  59.7337101   1.5304204
  73.7139492  59.0918360   0.4386350  69.8308537  31.8925941   7.3121949
  70.7042340  31.6419018   7.0112058  69.3172261  31.9815529   6.5093824
  65.5179212   3.4921921   6.0246774  65.3999231   3.6211145   5.0835630
  64.6298638   3.3824718   6.3645955  55.7614426  55.5242512  23.0920240
  56.2827449  55.9256560  23.7872621  56.1205273  54.6414649  23.0027028
  75.9689741  93.8217811  25.2310201  76.1923890  94.4777946  24.5707437
  76.4452033  93.0370358  24.9596998   7.8741336  25.8752871  90.3640366
   8.5055834  25.1563191  90.3882885   8.2862365  26.5373731  89.8090172
  54.3656425  97.6769666  13.9189454  54.2781155  96.8964986  13.3717367
  54.3758194  97.3411445  14.8152467  51.3906193  15.5756986  90.9885883
  51.3405848  14.7435379  90.5182266  51.8449402  16.1644948  90.3859711
  11.2000585  44.3996620  72.2619438  11.2605989  43.7670374  72.9777336
  10.2604759  44.5410728  72.1461058 109.9833570  33.2775712  62.7549267
 110.3277776  32.3884654  62.6706696 109.6199851  33.3108044  63.6398506
  17.7478080 102.7521304  10.9691926  17.4380414 102.3579720  11.7846128
  18.6842053 102.8910760  11.1109182  13.1669390   2.2309528  59.0680265
  13.6869335   3.0309415  58.9915037  12.2687984   2.5396076  59.1876364
  76.1947017 102.8592614  14.6483823  75.2514343 102.7060584  14.7032090
  76.3233547 103.2551316  13.7864324  31.1134243  67.1021605  33.2290030
  31.9407296  66.6348124  33.1133103  31.3564897  67.9118633  33.6779261
  31.8495560  33.6532092  87.7175522  31.0532570  33.4686899  88.2156372
  31.7524767  34.5639658  87.4394703   8.6942285  14.1217387  74.8911715
   8.9593697  14.0552354  75.8085060   8.5926604  13.2140446  74.6048021
  86.4753493  43.5752964  68.3058882  86.2099918  44.4946337  68.3312654
  87.2658452  43.5392237  68.8444471  49.8909235  49.1073322  84.4060421
  49.4635010  49.2519236  85.2502155  49.5842552  49.8280096  83.8557529
 109.0648121  63.9808512  90.1999950 109.9300327  64.0468454  90.6040573
 108.4565666  64.2374325  90.8931255  64.1133496  42.0512855   4.2995855
  63.5895857  41.3791359   3.8635656  64.8281959  41.5671909   4.7129556
  24.2400718  50.5401087  85.9406090  24.6516752  50.7160282  85.0945187
  23.3614612  50.2309942  85.7198715  48.1318443  33.0764023   3.0336782
  47.3119454  33.5123698   3.2659074  47.8865747  32.1610145   2.8989908
  31.3952041  19.8860180  53.3952856  31.7046666  20.0907159  54.2776442
  30.8189297  20.6158137  53.1682634   6.8952501   8.9310604  74.4386530
   6.5147775   8.4233868  73.7218952   6.3585955   9.7224391  74.4828510
  27.3150992  57.2545147  41.9385147  26.8171716  56.5158272  41.5883255
  28.1001353  56.8570709  42.3153305   7.1792519  61.8474627  46.2798882
   7.9213691  62.4045849  46.0451365   7.2681212  61.7152834  47.2237444
  53.9457989  49.1630507  89.6278095  54.1145515  49.9933338  89.1824150
  53.0749750  48.9028215  89.3275166  40.1557215  75.6108955  28.5723325
  39.2124704  75.5368499  28.7173387  40.5477466  75.0998930  29.2804452
   5.4188979  11.7799282  82.5521469   5.8030766  11.3242364  83.3011341
   4.4981632  11.5183377  82.5591660  35.3102660  46.2704897  66.8886137
  34.8488951  46.8196249  66.2547255  36.0774446  46.7856455  67.1381807
  35.4081106  28.2164240  85.5690289  35.4224992  28.9149332  84.9147320
  36.3311362  28.0356145  85.7466984  43.4940086  65.1863805  15.6851980
  43.8123290  64.2842618  15.7181474  43.0842005  65.2644495  14.8236963
  89.4557116  22.5865639   7.7394506  89.4071123  21.6480339   7.9211828
  88.5497186  22.8449953   7.5702688  46.9477272   6.9752347  83.0120945
  46.9852781   7.7645487  82.4719048  46.0973978   7.0241541  83.4488678
  32.9828167  41.5601635  58.9461899  32.2072101  42.1079206  59.0671301
  33.3557987  41.8533087  58.1148148  53.8545887 104.3595580   6.3602468
  54.0336768 105.0172881   5.6882688  53.8456862 104.8519782   7.1810266
  16.1775756  32.3918033  45.1086903  15.6459737  32.1334481  45.8616066
  16.1766315  31.6222477  44.5394659  23.6001675  55.8157120  20.3171750
  23.4331744  56.1893014  19.4518586  24.1750269  56.4502395  20.7451268
  29.8448324  55.7537460  63.1425714  29.7756290  55.1933622  62.3696470
  28.9814925  55.7035398  63.5528851  95.0822242  28.4303904  74.2133760
  94.6614774  29.0591002  74.7998333  95.2915450  27.6831198  74.7737408
  74.1572385   2.9513300  35.2036592  73.9452186   3.8556803  35.4348012
  74.1215996   2.9339064  34.2472764   8.4797680  65.1685858  33.3624864
   9.3999642  65.1294804  33.6231446   8.0045629  65.3084755  34.1815376
 110.7914577  63.5775995  83.8470745 111.5925205  64.0859556  83.9739799
 110.6543594  63.1337357  84.6839905   6.4097518  38.5988665  57.1243763
   6.3929671  37.6584840  56.9465208   6.2399834  39.0063262  56.2750292
 103.6766805  18.4723032  69.3516254 104.5193603  18.1632841  69.6842384
 103.6461105  19.3966031  69.5985413  43.0484915  40.3336048  86.2121773
  42.4276924  39.7771096  86.6824436  42.9788208  40.0523615  85.2998829
  42.0380084  89.0745143  18.5403653  42.3525994  89.9728183  18.4388086
  41.1654590  89.0803818  18.1468507  15.9691870  46.8996000  90.8297157
  15.1550734  46.8355703  90.3303623  16.6600192  46.8476915  90.1691914
   3.3595949  17.0109701  72.8241491   3.3228230  17.9198313  72.5260687
   4.1634354  16.6642737  72.4370098  25.5613594  52.9864193  10.9979173
  24.6267013  52.7801344  10.9882757  25.8169846  52.8966647  11.9159814
  11.5229881  75.1383829  86.7174339  11.5845394  75.1739883  85.7628822
  12.3295176  75.5520487  87.0250511 101.6545822  67.6562643  50.2477312
 102.0431413  67.4215698  49.4050121 100.7973250  68.0183935  50.0236654
  39.8621984  77.0750073   1.8298169  40.0869490  76.9834522   2.7557393
  39.9091269  78.0165533   1.6639253  82.8232245  92.6694898  19.3085595
  82.4966435  91.8416838  19.6611425  83.4605269  92.9708127  19.9560758
  26.8863177  84.5669365  60.0825262  26.0780072  85.0676346  59.9722528
  26.9459796  84.4130230  61.0253859  48.8519721  56.6597686  15.6057187
  49.2513888  57.4866114  15.8759519  49.5856135  56.1301691  15.2934190
  31.2722993  42.7577543  30.4208660  31.7480183  41.9273090  30.4039717
  31.2593699  43.0449963  29.5078731   6.4324152  17.0959437  84.3501377
   6.0795492  17.0569551  85.2390671   7.3673916  17.2618592  84.4706535
  61.7620139  47.0519457  15.5186578  61.1288433  46.3484875  15.6617471
  61.5166716  47.7273131  16.1510488   9.7860269  87.9142384  36.9694539
  10.3500061  88.4325174  36.3953992   8.8966684  88.1234912  36.6840001
   2.4254815  44.8676205  77.1075439   2.2127861  44.8383617  78.0403519
   3.3156365  45.2181149  77.0757294  30.6734131  84.5501737  19.0325185
  30.6796740  84.0093068  19.8222371  30.3085618  85.3875808  19.3186303
  83.0428203  19.6579647  87.1652508  82.2295483  20.1087570  86.9380665
  83.3876737  20.1477814  87.9118347  23.6712384  77.3971415  67.6738548
  24.0385413  76.5330982  67.4874496  22.9194832  77.2208643  68.2395649
   1.7369138  51.3662195  72.7702618   1.8432221  50.4235840  72.6423168
   2.5828266  51.7386246  72.5213051  63.6740780  21.2401199  50.0942659
  62.9667759  20.5951810  50.0912380  63.2272387  22.0858192  50.0574112
  15.5424881   4.9359748  59.2203712  15.7040060   4.3714666  58.4644127
  15.2338600   5.7595813  58.8426781 104.0423431  16.2932372  78.0183172
 103.5291698  16.7130911  77.3279476 104.8933824  16.1233306  77.6144648
  40.2594222  99.1179637  22.2285863  39.4452468  98.6229066  22.3195192
  40.7039546  98.7131623  21.4837667   4.0655042   2.1554983  15.5886861
   4.3527795   1.6576279  14.8232957   3.6718274   2.9484356  15.2246782
  10.9254122  48.6708164  78.0032349  10.1492500  49.0797424  77.6203728
  10.6547463  48.4245586  78.8877296  91.9189546  15.9361160  19.0636464
  91.8175206  14.9983251  18.9008924  91.3376042  16.1152065  19.8026868
  11.5809107  14.3580925  33.5176778  11.5148234  13.6959982  32.8295660
  10.8408260  14.1762877  34.0968609  56.1119191  73.0508498   9.4391366
  55.6592421  73.1240920  10.2793523  56.5107279  73.9107946   9.3061849
  97.8310665   9.6116644  60.1459408  97.6038738  10.5411708  60.1710987
  98.6051115   9.5694089  59.5844221   7.8240830   5.4140508  55.2060699
   7.1616358   4.8016784  54.8860788   8.6193496   4.8871455  55.2845097
  18.2111132  13.1404209  38.7795138  18.4776366  13.2730758  39.6892405
  17.6493740  12.3658049  38.8050318  65.9136824  64.3947546  37.5317308
  65.1611476  63.9390735  37.1545335  66.5603428  63.7052766  37.6823350
  34.5611858  50.2145576  61.1669970  34.2349148  50.4342508  62.0396471
  34.9388218  51.0310411  60.8399200  18.9545929  66.2272835  57.7518559
  18.6103559  65.3572178  57.5500774  19.2747056  66.5587044  56.9128609
  53.4041309  41.6327667  85.0908375  53.2987595  42.5708675  85.2492714
  52.5795221  41.2460279  85.3852558  46.6411400  16.9559610  72.8533220
  47.2658110  16.6907978  72.1782637  46.9993162  16.5972579  73.6652803
 109.2656633  15.5713952  58.0057287 109.7206391  16.1929107  57.4374437
 108.3511325  15.6169808  57.7268267  49.9796645  95.9297399  24.7143575
  50.5465095  95.7699040  23.9597913  49.6000712  95.0740699  24.9142858
  57.7000980  93.8950328  31.3798543  57.8367619  94.8149375  31.6064187
  57.2850804  93.5165719  32.1549436  86.1558446  40.5462980  81.0484982
  86.3690027  40.0091982  80.2853966  86.9899853  40.9393835  81.3052654
  35.5065775  62.5336170  83.8021088  36.0165191  63.3212233  83.6127377
  35.6072116  61.9895649  83.0210114   9.9025363  56.2355852  82.3072624
  10.0253284  55.7802868  83.1402397   9.3067759  55.6730795  81.8124008
  15.7259405  23.2880425  74.8983002  15.9603608  24.2115092  74.9904442
  15.0619173  23.2771254  74.2089605  99.7164937  39.1041160  90.1966095
 100.5177625  39.3974948  89.7628689  99.6297690  39.6812272  90.9553242
   3.2493776  53.6248779  69.1019201   2.6454568  54.0558720  69.7066975
   3.6970299  54.3445206  68.6570024   8.5902637  74.9420166  70.2166510
   9.5013112  75.2206898  70.1241064   8.6465824  74.0383101  70.5271006
  16.5736783  44.7482157  36.6797876  16.3965714  45.6404829  36.3819170
  16.0576677  44.6562338  37.4807286  54.7711420  35.5722785  74.7196674
  54.0482664  35.0826526  75.1120281  55.0833941  36.1425018  75.4222155
 108.8891094  22.5660348  70.1984644 108.1590977  22.8408813  69.6436930
 109.4472518  23.3411241  70.2612686   7.4965900  61.5418243  83.9650536
   6.7321801  62.0971394  84.1184616   8.0253404  61.6380072  84.7571468
 105.8741482  28.4696627  70.0880718 106.5152692  29.1583848  70.2637291
 105.3376528  28.4342170  70.8799982  78.5874899  53.6648607  73.7204266
  78.4973606  54.0205860  74.6044922  77.7108034  53.7364817  73.3429050
   0.5294790  44.9811649  58.4622955  -0.4246929  45.0436926  58.5056257
   0.7104650  44.6974897  57.5661898 102.7305182  31.0839200  78.7317514
 101.8500527  30.8491063  78.4387064 102.6227196  31.9352698  79.1557980
  35.7908702  41.0617542  88.4969521  35.2655482  41.8538380  88.3834934
  36.3738179  41.2637663  89.2288017   2.5861466  41.7623425  72.4738026
   2.7822468  42.6179028  72.8556299   2.3062275  41.2271309  73.2163811
 107.6693671   4.6866471  59.5240879 107.0328935   4.9424005  58.8564634
 107.2351529   3.9882326  60.0138903  13.0612361  54.3218040  61.0165215
  13.4841311  54.2225409  61.8694830  13.3872533  55.1578522  60.6833982
   5.1315486  57.6767588  70.6180000   4.4854230  58.0748081  71.2013626
   5.3992158  58.3880854  70.0361061   7.8812003  67.5664473  84.1006660
   7.0593721  67.0980883  83.9541435   8.5338372  66.8754148  84.2136669
  28.9049054   5.7990683  24.3494436  29.6373702   6.2064255  24.8118230
  28.5845853   6.4816034  23.7597295   1.3867722  51.0534859  58.8533068
   0.7205845  51.7138577  59.0439367   1.0191386  50.5438852  58.1312418
  33.9399147  63.2826185  69.9852657  33.6664724  63.6947870  70.8047676
  33.6471891  62.3747253  70.0644588  42.7537727  51.8104744  58.3626080
  42.7562046  52.7671719  58.3316994  41.8345737  51.5694571  58.2476282
  38.4928274  41.3840532  59.6653938  37.8082395  41.0063791  59.1131878
  38.1596041  41.2902784  60.5578089  24.5491219  54.6726418  52.8094387
  25.0982857  54.6941614  53.5931396  23.7289310  54.2756414  53.1025362
   1.4674705  19.0880501  71.9592381   1.0159989  18.8515460  71.1490107
   0.8038090  19.5404243  72.4799538  52.5059700  72.1160746  58.8192701
  52.9707813  71.3070488  58.6055946  51.5937901  71.8468332  58.9273310
  26.7603445  77.7961826  85.3325748  26.9272280  78.4987450  84.7042561
  27.2500634  78.0524445  86.1140728  33.1485558  61.6833162  75.4065132
  32.4802542  62.1798658  74.9342394  33.4341860  61.0143042  74.7843599
  74.4843178  91.3887028   4.1819688  73.9902406  92.1383480   3.8500806
  74.7335033  91.6407613   5.0711271  13.3747340  11.3740719  24.3163129
  12.6787854  10.8638275  23.9021417  13.8751508  11.7348946  23.5844537
  23.2806540  34.1773391  62.3357248  22.4504709  34.6538138  62.3351622
  23.6230946  34.2938757  63.2219458   9.4271756  52.2914017   6.7266771
   8.9870263  52.5460041   5.9157010  10.3275062  52.1032513   6.4616700
 111.4344986  86.4829350  75.3575134 110.5910140  86.8061829  75.0408506
 111.7264631  85.8724022  74.6805811 100.5576352 102.8087159  66.3641596
 100.9213213 103.6327045  66.6882086 101.3195971 102.2426096  66.2409973
  17.3520458  34.5545077  62.0417643  16.5221345  34.6592259  61.5764570
  17.2358310  33.7601042  62.5629663   5.4837120  67.0309401  82.6966953
   5.5047977  66.2138319  82.1985817   5.7917017  67.6952696  82.0802212
  24.5574594  65.6288004  67.4736404  23.6066580  65.7331896  67.4374104
  24.8095918  66.0194683  68.3103275 109.0195363  74.7300386  89.5497513
 108.2028200  74.3798780  89.1939545 108.9773896  74.5323753  90.4853725
  39.3834853  73.8518667  77.6249361  39.6214533  73.1094217  77.0696115
  39.5892167  73.5618687  78.5136461  95.6822463  88.8080215  53.4838581
  95.6599256  88.1878948  52.7550411  96.6089614  89.0251255  53.5853100
  32.6216342  94.2035226  31.1543294  32.1631004  94.8997716  31.6246625
  32.6752363  93.4843568  31.7837354   6.0343076  22.2831524   2.0834657
   5.5638314  21.7254913   2.7030584   5.8578826  21.8922937   1.2276956
  18.4251714  33.7941980  55.4706860  18.6574817  34.3990374  56.1752653
  17.9007089  33.1176496  55.8990002  38.7962747  71.3328981  74.2117310
  38.5092497  71.9071865  74.9216890  39.6781516  71.6379881  73.9985514
  57.4574804  77.1940851  60.3203630  58.0845261  77.6793146  59.7840786
  57.9183292  77.0368719  61.1444569   0.4915040  52.7333879  38.3442974
  -0.3193083  52.2429705  38.4795809   1.0856590  52.1052647  37.9336071
  40.1682043  87.4569702  78.4420109  40.3138781  87.6039696  79.3765688
  40.8785295  86.8722153  78.1779528  29.2554021  24.7269201  86.9537163
  29.6440887  25.2675414  87.6413822  28.5160303  24.2929435  87.3794174
  57.3891597  94.2527656   9.1097089  58.1198435  94.4222430   8.5150644
  57.8020649  93.9294366   9.9104616  80.6190411  37.1341026   1.1197015
  80.8936301  36.3770187   1.6370603  79.9103210  37.5276840   1.6286584
  76.1349252  38.9512623   3.2235643  75.3771033  38.5918129   2.7623388
  76.4747870  38.2167519   3.7346574 104.3006756  37.3882484  79.1504192
 105.0186279  36.7774868  79.3169928 104.6045830  38.2199836  79.5138597
  17.8116882  70.2363157  69.6251106  17.2594476  70.9685802  69.3511581
  17.5078988  69.4970703  69.0983725  40.7830763  62.2705269  81.7678642
  40.8959913  61.3534784  82.0178699  41.5955257  62.4971962  81.3153458
 105.9811124  52.1537483  12.2368165 106.7679724  51.7571342  11.8629476
 105.5112610  51.4222134  12.6372262  13.1435645  75.0391245  67.4678373
  12.2722709  74.9074984  67.8416777  13.0749226  74.7002268  66.5752745
  74.9447187  79.8229456  64.0246820  75.5259617  80.5229855  63.7274647
  75.0601872  79.1255569  63.3792782  20.0149751  40.2543068  75.1363659
  19.3928921  40.9617519  75.3059912  19.4757128  39.4642019  75.1023388
  35.6429076  55.6643772  48.0943108  35.6039906  55.4520416  49.0268517
  35.4225922  54.8442936  47.6525450  93.6463877  14.4101596  75.4978228
  93.3870419  14.0385437  74.6546888  94.1507467  13.7152648  75.9208775
  38.2564616  74.1168070  51.5776157  37.3484778  74.2028713  51.8681192
  38.2684016  74.5157051  50.7075739  28.0531025  77.0316505  80.0665092
  28.5741520  77.7855873  80.3427696  27.1798921  77.2015619  80.4198742
  11.5689313  32.1722174  63.0721712  11.2378478  32.4004865  63.9407921
  11.2998497  32.9017544  62.5139523  82.0352170  13.4053457  18.9220640
  81.9830284  13.0572832  19.8122140  82.7108553  12.8767336  18.4974309
  22.8325725  56.9845819  49.0329361  23.7607765  57.1012163  48.8302994
  22.4234533  57.8069782  48.7636518 104.1274419  99.3818951  79.0424919
 104.0951558  98.5745430  78.5292864 103.7384566 100.0443745  78.4714985
  13.0739118  11.6791380   6.3759538  13.9762879  11.8895853   6.6160985
  12.5393582  12.1668327   7.0025655  94.9888882  24.9620521  45.8911153
  95.4011283  25.7051790  45.4506036  95.7124266  24.3649614  46.0813924
  35.1630235  38.2113934  74.5185757  35.6130648  38.3966780  73.6943388
  34.3750572  37.7338624  74.2591429  93.6873660  11.4257992  10.9199258
  92.9034552  11.1044062  10.4744836  94.1831002  10.6350983  11.1327001
  12.0477784  36.6574049  58.9209557  12.1567094  37.2679424  59.6500683
  11.2189615  36.9131947  58.5161543  11.6901088  58.0472517  47.1155262
  11.0736418  57.3910284  46.7906094  12.5418067  57.7590895  46.7871904
  22.7425623  59.8868179  74.7704840  23.2452464  59.5148945  74.0457678
  22.7803326  60.8325529  74.6276760  24.9110603  55.7177162  66.0708761
  24.9485993  55.9254265  67.0045137  25.6690454  56.1655569  65.6952095
  14.3561149  42.4297190  64.2214823  15.1693940  42.6502848  63.7674332
  14.4903946  42.7391911  65.1172638  72.0510297  98.9333896   8.3655187
  71.8738990  99.7309045   8.8643476  72.0779400  99.2224149   7.4533864
  92.7625725  26.3379705  14.8313352  93.1148228  25.7793749  15.5242368
  93.2999298  27.1293772  14.8652955  58.4711437  77.6014427  30.7410070
  57.7069144  77.2816328  30.2615186  59.1999082  77.4929384  30.1299783
  15.4194546  47.0160580  68.5073996  16.2082076  47.1433163  69.0345669
  15.4517055  46.0956860  68.2464314  28.7582684  29.3351960  76.7693615
  28.2236242  29.5563531  77.5319052  29.4649887  28.7939119  77.1211958
  71.6442690  17.9916942   4.2194101  72.5422353  18.1302393   4.5205613
  71.1391410  18.6839712   4.6458169  30.2601266  58.1843805  66.3406372
  29.4986701  57.6131153  66.2402725  30.3617120  58.6006689  65.4847050
  21.3948083  27.3820233  63.4273767  21.4991879  27.1104002  62.5154829
  22.2319269  27.1668839  63.8386917  31.2444854  71.6515207  76.2494850
  30.5322266  72.0371962  76.7595530  30.8318377  71.3788557  75.4299641
  19.1245425  51.9205046  80.9716320  19.3376482  52.7528858  81.3934898
  19.8678875  51.3523340  81.1737442  64.3055348  65.9551302   4.9926111
  64.3060999  66.8232159   4.5893022  63.6955218  66.0322563   5.7262155
  69.9879460  75.4820518   6.2190553  70.0949626  74.5424966   6.0706731
  69.0564232  75.5896071   6.4112397  54.1263819  82.3204041  56.5174913
  54.0612602  82.1537018  55.5771732  53.2257032  82.2560406  56.8350887
  93.5569914  22.0048809  61.9803333  94.0985318  22.6999640  61.6064024
  94.0017768  21.7660046  62.7935600 104.1013989   4.4010675  28.7523671
 103.3251676   4.0899408  29.2180845 103.7826833   5.1237905  28.2117006
  21.4272213  45.8708477  90.9675217  20.6677318  45.3450775  91.2184715
  21.1939836  46.2365389  90.1142311  45.2181768  96.8722153  58.8164425
  45.6978941  97.4665546  58.2395029  45.6759071  96.9310665  59.6550417
  11.8469751  41.0707188  76.5346956  10.9077716  40.8974123  76.5986681
  12.0855510  41.4179420  77.3941994  39.0026723 102.3241405  15.3055211
  38.0482597 102.3285989  15.2326604  39.1796577 102.7217463  16.1580583
  80.7429204   0.2667320  23.0509015  80.6948456   0.7608545  22.2325059
  80.1181320   0.7022703  23.6307069 102.7373657   1.2352312   4.4135495
 103.3356938   1.7860973   3.9087888 101.8697128   1.5979517   4.2351075
  97.1903739  37.3523701  24.9431917  97.1390233  37.3162640  25.8983251
  96.4755020  37.9349697  24.6867486  30.2527237  58.7026405  69.0642691
  30.9782815  58.1296635  69.3122435  30.0984192  58.5073566  68.1399918
  30.0031567  75.2520275  83.8881207  29.0977263  74.9591541  83.9913464
  30.4949307  74.7410727  84.5310211  37.3254848  40.7857037  62.1636295
  36.3971400  40.9939480  62.2687101  37.7562475  41.2396336  62.8879404
  35.6503558  39.7544742  50.0818014  35.5353808  39.6560168  49.1366434
  35.8885455  40.6740522  50.1995945   2.3386904   5.1264581  86.2263870
   1.5294071   5.5205163  85.9007835   3.0172106   5.4473027  85.6323338
  28.8583040  65.0448513  72.9692459  28.8505220  65.9504128  72.6591921
  28.6810303  64.5223522  72.1870661  38.4306908  10.8068189  76.5722656
  37.5186481  10.6548604  76.8198919  38.3939019  11.0150441  75.6387138
 105.1961245  68.6531639  61.7669201 105.8627894  68.0308056  61.4762926
 105.4579397  69.4856453  61.3736486  99.2709311  66.9595718  71.7533541
  99.1054078  67.8545761  72.0496655  99.8587068  66.5933514  72.4141407
  42.8500414  55.2636719  51.8326712  43.5855055  55.5451632  52.3768091
  43.2568216  54.7944498  51.1042547  15.2763641  50.0994253  87.3480797
  15.3829086  49.7192669  88.2200623  14.8060572  49.4302225  86.8508720
  39.7161055  57.0773220  60.2425814  39.7133136  57.3356295  59.3208981
  40.5790520  57.3404503  60.5624533  41.0075998  53.4426260  49.6722555
  41.1972570  52.5110340  49.5608711  41.7800379  53.8876581  49.3236685
  72.0588060   4.7374666   0.2389547  71.5807838   5.5201900   0.5129358
  71.5800938   4.0119160   0.6397458  37.8957319  50.5006886  66.1249352
  38.6947966  50.7540226  66.5870476  37.7862501  49.5715904  66.3274670
   0.6938673  37.5005329  12.5340291   1.6140033  37.3064411  12.7126619
   0.3014709  37.6177776  13.3991929  67.9295831  99.6828393   9.3979665
  67.5822763  99.4623164   8.5336896  67.2164016 100.1530293   9.8298475
  47.5430279  92.2483210  30.3766462  47.5714116  91.2923531  30.4160520
  46.6683214  92.4751834  30.6923219 103.6724910  10.7144678   6.6248533
 104.4251165  10.4914701   6.0770818 103.0503878  11.1224497   6.0225507
  19.5538616  37.2882152  44.8681736  19.6195734  37.6557517  43.9867973
  20.3501916  36.7670083  44.9703169  70.4402404  13.9200791  58.1359863
  69.8532634  13.1961545  58.3542204  70.1533060  14.6391210  58.6989069
  18.0996847  47.3019600  86.5206623  18.2626164  47.4773550  87.4474430
  17.7440584  48.1229401  86.1804390  21.3252592  86.3185501  59.5279503
  20.9535956  87.0123577  58.9832211  21.3300252  85.5464649  58.9621830
  92.7453670  70.9273613   0.4243966  92.2467301  70.1168907   0.5280420
  92.7675829  71.3087929   1.3020345 102.6510062  45.1698446  90.0262260
 102.5771638  46.1241865  90.0286579 103.4165581  44.9874592  90.5711079
 108.4439406   5.1676977  29.6444150 107.6042924   5.2002418  30.1028463
 108.2466516   5.4786623  28.7608930  12.6639438  67.4512863  87.7600288
  13.2163858  67.9437828  88.3670616  13.1519437  67.4533463  86.9365692
  35.2361465  70.6048393  56.2384224  35.9808326  70.4523897  56.8201733
  34.4728923  70.3407049  56.7521381  10.4996778  14.2362249  26.9830724
   9.8548747  13.8384331  26.3980695  10.4579068  13.7079800  27.7802106
  21.3071585  50.1555014  81.3933563  22.1348000  49.7984934  81.7155170
  20.7129908  49.4052219  81.3767242 110.0259719  22.1360958  32.3879834
 109.7953472  21.4318312  31.7821428 110.8934555  21.8968571  32.7142831
  15.1240432  64.1792107  80.4421329  15.0595438  63.2346916  80.5834007
  14.7258484  64.3206692  79.5832539  56.9170830  16.3431204   3.3629342
  56.3507483  15.7870138   3.8979551  57.7462885  15.8671177   3.3174058
  46.2889576  36.6380572  86.8174076  46.7129469  37.2302341  87.4385262
  45.3877687  36.5662408  87.1319485  29.3390846  61.4251566  73.6084032
  28.9384031  60.6008148  73.8843441  29.9790287  61.1698008  72.9439497
  82.1187501  79.2045073  21.9986841  83.0360608  79.1362409  21.7338964
  81.6260152  79.0979985  21.1849901  38.2858682  78.1463718  74.2400217
  38.9128399  78.6856270  73.7580061  38.6905384  78.0175066  75.0978470
  72.9502038  54.8811901   6.2402078  72.6388513  55.7814682   6.1464807
  73.8598100  54.9707020   6.5245172  30.3239584  57.9147816  81.1438370
  30.0896454  57.2205210  80.5279350  30.1446986  57.5403547  82.0063400
   5.1275361  64.8673058  62.3683023   4.4398835  65.2489471  61.8226671
   5.2019387  65.4646587  63.1125259   4.6542856  61.9081497  86.8040752
   4.1523701  61.1050701  86.9432926   4.9425679  62.1652746  87.6798725
 111.2852712  82.7357101  84.8166370 110.7759899  81.9675541  85.0750923
 111.6871252  82.4876118  83.9840508  11.8359983  66.3718557  77.9234409
  11.5222955  65.8902168  78.6888456  11.0398519  66.6179180  77.4524450
  15.0871623  54.2068481  75.8642054  14.8482680  53.9415598  74.9760723
  15.9774911  53.8756084  75.9818029  35.3364682  57.7906990  71.1194181
  34.4578600  57.4129057  71.0800457  35.8304930  57.1904230  71.6778374
  97.9499384  46.9690037  71.8304062  97.1995302  47.2026443  72.3767853
  97.7766403  47.3946857  70.9907675  15.3998709  35.8073449  51.8295622
  16.2611008  35.3897285  51.8189001  15.3941143  36.3643193  51.0511160
  42.9766273  93.4158421  88.2846451  42.1477127  93.8886166  88.3595848
  43.3451748  93.7091732  87.4513626  13.8185430  57.1261072  60.5244350
  13.9758337  57.7684307  59.8324013  12.9011965  57.2540474  60.7659721
  17.8343451  56.3887024  51.1284971  18.6046445  55.9075594  50.8262157
  17.7778518  56.1878490  52.0626783  10.2401209  37.9633975  82.3456860
  11.0863376  37.5164104  82.3644638  10.0630820  38.1020546  81.4152813
   9.2600775  17.6902425  84.5385170   9.4750941  18.1108177  83.7059879
   9.9489903  17.0372522  84.6619415  53.6244345  79.2372417  43.9451408
  54.5595074  79.4104958  44.0540218  53.2028484  79.7612953  44.6262121
  76.4479739  21.5173519   4.3033620  76.2554182  21.3960636   5.2331182
  77.3076186  21.1141575   4.1822168 106.9872126   2.1083534  12.6426812
 106.1899910   2.0754993  13.1714460 107.0671234   3.0272138  12.3866769
  95.0589331  65.4450798  48.1564331  95.3911062  66.3404608  48.0917788
  95.8239993  64.9225760  48.3970547 110.4095444  23.5459841   8.7248155
 110.2253279  22.6270092   8.5304471 111.2868700  23.5386455   9.1075345
  26.1071587  24.9811792  82.5477695  25.8417344  25.8753157  82.3325920
  26.5097141  25.0525594  83.4132671  31.1185169  75.8757448  59.1306400
  31.9964218  76.1567783  58.8727045  30.5340552  76.5218401  58.7341595
 102.3418412   1.0540712   1.4480802 102.0008049   0.7843483   0.5953332
 103.2250723   1.3731325   1.2627813 107.4084299  56.2306356  65.5528641
 107.4461140  56.3676596  66.4994574 106.4734616  56.2314892  65.3477669
   4.4291717  93.7700653  83.8669205   5.3517908  93.7388039  83.6138821
   4.0252960  94.3571472  83.2278156  97.0131545 104.1500930  15.2190515
  97.7061372 103.7540606  15.7474157  96.2285189 104.0817670  15.7630273
  83.2418351  93.6476640   9.3083497  83.4395985  94.5825175   9.2520353
  83.4629016  93.4099034  10.2088090  10.5864918  56.2944937  38.3131385
  11.2335646  56.9557285  38.0675864   9.7435880  56.6904688  38.0918956
  99.3194231  61.5744448  84.8309231  99.0004572  62.4495888  85.0514126
  99.9854239  61.3884544  85.4928017  76.5251877  25.5003012   0.0614950
  75.5962618  25.6381166  -0.1238040  76.5411142  24.7605074   0.6686803
  44.6476221  58.4323740  59.1164780  45.5253601  58.7316513  59.3536234
  44.0795231  58.7930727  59.7972059  72.8942399 102.4150495  33.7044736
  72.0909719 101.9692210  33.9732381  73.1332140 101.9993047  32.8760549
  42.7926588  39.2638779  83.3153725  42.2800016  38.7021422  82.7341080
  43.5768127  38.7517786  83.5130882  53.7112968  86.6357402   3.1608220
  54.1516189  87.2835926   3.7109395  53.8543181  86.9443993   2.2661134
   9.2438222  27.3651064  37.8741571   9.9984551  27.9534805  37.8500863
   9.4601823  26.7257154  38.5528299  90.0309798  29.4832409   2.3190805
  89.9460659  29.2487228   1.3949415  89.4846532  30.2627743   2.4195405
   8.9907211  59.5208025  58.4203482   9.0894651  58.9930439  57.6279116
   9.8857206  59.7577477  58.6633778  27.6599336  54.7341490  71.0135555
  28.5143328  54.5176411  70.6402445  27.7636385  55.6248283  71.3484764
  34.8860741  78.0333853  80.6290340  35.1288915  78.0248499  79.7031784
  34.9827123  77.1235847  80.9103870  91.4295296  71.7321984  38.5222646
  90.9464793  71.6123454  37.7046319  90.7524543  71.8969158  39.1785260
  37.7551842  38.2456064  61.4689732  38.1895494  38.1146884  62.3118353
  37.5014663  39.1685653  61.4710808   9.3340766  95.6747723  90.3247356
   8.8292873  95.6521511  91.1376953  10.0242984  96.3172531  90.4891777
  38.4329438  51.8452835  60.8671188  38.4135890  51.3421345  61.6811800
  37.6945424  52.4498081  60.9415770  16.6936123  26.2939501  72.6815128
  16.4380455  27.1258807  72.2830009  17.1529114  25.8255649  71.9844532
  71.7301130  24.7426796  85.0844860  71.5473604  25.4784751  84.5001602
  71.6480494  23.9684772  84.5276070  90.0841889  17.1702183   5.3137800
  90.2559337  16.3098896   5.6966325  90.5201277  17.7859056   5.9029504
  83.1727700  90.5880741  25.7163354  83.5739951  91.4567212  25.7427808
  83.8757567  90.0083617  25.4231283  33.6542559  31.5851569  61.8936110
  33.2675385  30.7380962  61.6718721  33.1692696  32.2163820  61.3620329
  78.3509064   3.5786951  13.7521573  77.4104291   3.7552393  13.7283346
  78.4160516   2.6642883  14.0275594  12.3601174  38.4080052  85.6260490
  11.9366908  37.5666428  85.4555988  12.4595535  38.4376788  86.5776062
  18.3109868  31.8312669  87.3549175  18.2026780  31.1964417  86.6467571
  17.4680352  32.2821736  87.4033737  35.7712030  64.9809504  76.7951345
  36.1254311  64.0927744  76.8387318  35.0010967  64.9598217  77.3632240
  11.1633086  33.7944555  82.2660637  11.9918978  33.4650946  82.6141930
  10.6486094  34.0159512  83.0421162  28.0809522  75.1245070  54.4037390
  27.4141908  75.2049255  53.7216854  27.9026580  74.2784595  54.8144102
 102.1392331  28.3288181   9.2035600 102.7383718  28.0015266   8.5326406
 102.6897106  28.4516132   9.9769517  35.1455092  84.4925880  35.0411415
  34.4958305  84.5729351  35.7394910  35.0710082  85.3104591  34.5494390
  79.8939042  61.0362301   3.6701223  80.7398562  60.7929478   4.0461656
  79.7563128  60.4064397   2.9625436  16.2831378  45.6536007  84.4550705
  16.5188789  44.7412157  84.2871189  15.3865087  45.7331276  84.1295528
  13.5167886   0.2355898  18.3382150  13.2576133   1.1569918  18.3468648
  12.6951886  -0.2452623  18.4381696  47.7600813  93.9432335  83.5872936
  48.5146809  94.3709850  83.9920616  48.0996943  93.5836220  82.7677917
  26.8533158  65.1049185  60.4381227  26.6313434  65.9697104  60.7832193
  26.1406827  64.8982048  59.8334265  10.2837945   5.9671724   2.1957513
   9.4214107   6.2542427   1.8955633  10.8881427   6.6255367   1.8528959
  99.8315057   9.6933496  10.8986875 100.7383046   9.9972427  10.9386560
  99.3088135  10.4946745  10.9287092 106.8175723  70.0640678  75.6836653
 107.3704409  70.2973032  76.4294338 106.4049210  70.8879519  75.4244995
  89.7045191  26.8345523  87.9763126  89.9709805  26.1333704  88.5709286
  88.9230403  27.2091866  88.3827209   5.6018531  47.7515697  68.8039398
   5.2466446  48.6403990  68.8100815   5.5009925  47.4595881  67.8979588
  12.5428236  66.2969875  70.4734707  11.9349408  65.7142591  70.9285927
  13.3734798  66.1849403  70.9357309  28.5363317  61.3519430  58.1581450
  29.4619012  61.1225796  58.2414818  28.2823658  61.6446590  59.0333891
 108.4392326  37.9928875  84.7777843 108.7000739  37.0744205  84.7098732
 108.0782374  38.2036471  83.9166832  98.8280972  18.7851036  79.4113159
  98.2001909  18.0734110  79.5356560  99.6790477  18.3894026  79.5998240
  99.8772773  28.5009087   7.7566358 100.6607303  28.5799873   8.3008596
  99.5343861  27.6296604   7.9555913  86.4539202  33.9624929  80.6021976
  86.0983332  34.7902513  80.9256363  86.0644086  33.8573670  79.7341824
   1.6431714  25.2888859  17.0215818   2.3665978  24.7430075  16.7135164
   0.8774496  24.9597395  16.5508767  82.5792937  94.8738984  11.9825765
  82.3732381  95.4968671  12.6794835  83.0149751  94.1488341  12.4305650
  21.1606431  15.5401230  76.0804176  20.9360695  15.7867408  75.1832151
  21.0304832  16.3407719  76.5886021  60.6799106 103.2837752  10.7560273
  60.0371389 102.8598479  11.3246747  60.1541500 103.7755755  10.1252099
  50.3618908  22.3877954  72.2258854  50.4416609  23.3402681  72.2775173
  50.5200338  22.1838140  71.3041401  17.6704335  66.2757206  60.2918005
  16.7378497  66.0628748  60.2569103  17.8652370  66.6408014  59.4286680
   0.9726478   5.7199657   5.8089277   1.1584283   6.6373432   5.6085702
   1.3613916   5.2326858   5.0825139  -0.0390529  30.9118927  11.2458726
   0.4771663  30.1068676  11.2869283   0.5502773  31.5912903  11.5735074
  25.3722334  44.4028330  75.0380898  24.8107958  43.6278725  75.0167751
  24.7749019  45.1261806  75.2283335 109.7397875  54.7189903  61.5561628
 109.5874877  54.4205809  62.4528170 109.6596145  55.6716299  61.6039038
  38.9457011  62.0456123  79.7341776  38.4738231  62.8547955  79.9311161
  39.6457887  62.0118856  80.3860760 102.2416969  80.3039360  76.3612700
 102.7463426  79.6291971  75.9070730 101.3774874  80.2736378  75.9508371
  37.7929068  64.6867943  79.5263386  36.8944526  64.9520826  79.7229004
  38.1004882  65.3342962  78.8920164  21.4835024  60.3787565  69.8094082
  21.0306573  59.8850679  70.4931021  20.8397412  60.4589319  69.1055775
  69.4421606  98.3894423  11.4569207  68.6899714  98.6496619  10.9251996
  69.2743831  98.7778739  12.3155233  37.5090051  59.9855375  81.0858631
  36.5783405  60.2055597  81.0447788  37.9340601  60.6373978  80.5285168
  23.6105537  62.4787235  57.1109533  23.2313561  62.6009798  56.2406111
  23.0939531  63.0496454  57.6796436  18.1798935  26.4575958  79.1958666
  18.4805977  26.5681505  80.0978565  17.3067260  26.0744834  79.2797470
  37.8757691  69.2691755  60.6713533  38.2159138  68.5500479  61.2036943
  38.5675812  69.9303913  60.6918669  12.5722861  79.1541386  69.1605377
  13.1805611  78.9052629  68.4646273  12.9079878  78.7133121  69.9410582
  56.9445038  72.0220375  75.0772095  56.0562897  71.7996740  74.7981739
  56.9745541  72.9780960  75.0412989  38.1314422  64.0800655  19.7697755
  37.6792003  63.6321342  20.4846593  37.6136924  64.8704899  19.6168062
  22.8517818  69.2993784  46.7654610  23.7920451  69.1207552  46.7502022
  22.6129770  69.4044542  45.8445024  36.7555285  86.1018753  61.4656305
  37.3119736  85.3700066  61.1992455  37.3120832  86.6299438  62.0380211
 101.5599475   3.8503254  27.0582696 101.0497031   3.3566130  27.7002355
 101.7796883   4.6680487  27.5046750  97.9918084  33.9872921  44.3166944
  97.7852330  33.7784374  43.4056779  97.3679814  34.6739662  44.5523855
   1.5889497  74.9418831  53.7680626   1.1527899  74.8810863  52.9181814
   1.0310724  75.5253935  54.2823839 110.7664412  52.1334934  66.9303894
 110.3547315  51.8117428  67.7323866 110.0446943  52.5047398  66.4229536
  37.1893501  46.8085241  87.9172230  37.1850538  45.8629990  87.7682304
  37.9124403  47.1323490  87.3800850 108.0150779  44.9330902  33.1429338
 108.1725981  45.5848646  33.8260198 107.3943403  45.3543997  32.5484490
  86.0652980  14.9270952   7.3985025  86.2001369  15.3084839   8.2660314
  86.4527759  14.0538490   7.4579068   8.7682784 101.7614555  79.6444988
   9.7196472 101.7793560  79.5405293   8.5176396 100.8698750  79.4026470
  30.1022482  67.1894455  82.2555637  30.0219440  66.4053774  82.7987194
  29.2591405  67.6329184  82.3489952  75.7758904  29.7328591  78.7936544
  76.4673376  30.0511026  79.3740463  76.2382555  29.4401741  78.0082941
   2.7875552  66.4948320  66.3182640   2.5892141  65.6021833  66.6012239
   3.5977530  66.4122057  65.8152866   5.5978364  76.1211872  72.9691744
   5.4606122  76.6827059  73.7321281   5.2377266  75.2729750  73.2281828
  61.0016129  50.1457012  10.0010892  60.7122550  49.6809948  10.7862970
  61.6093740  50.8099068  10.3261777  36.5903497  66.7583752  85.2494621
  36.3301229  66.1998701  84.5169449  37.5406289  66.8365479  85.1652527
  79.2730984  17.2568119   1.8533822  79.8719898  17.9982984   1.9414541
  79.2716328  17.0600737   0.9166166  35.9138656  89.6685696  74.1014385
  35.9937024  89.0731335  74.8466301  36.6303563  89.4191933  73.5177565
  60.8597450   0.4721650  69.5708561  60.8801966  -0.4435054  69.2927170
  61.7288475   0.8083924  69.3521309   8.6233903  39.4274700   7.1533700
   9.2002059  38.9003170   6.6005346   9.1732789  39.6898544   7.8916189
  55.6574488  89.8083973  89.3857002  55.4908371  90.4171467  88.6660480
  54.9678326  89.1493225  89.3064213  20.3552270  70.4479170  62.1389055
  20.5587912  71.1907005  62.7073002  20.2811766  69.7030449  62.7354860
  78.0697230  34.7561443  43.1845971  77.6485881  35.2985657  43.8514253
  77.3428676  34.3650425  42.6998826  46.6601181  94.0476227  64.3911934
  47.5302744  94.2940331  64.0776014  46.0602522  94.3964958  63.7318850
  12.1798730  44.4730711  88.9698982  12.4955475  43.5694551  88.9779949
  11.2545943  44.4014406  88.7354660  63.5364628  74.7566843  36.6940832
  63.6085558  73.8295937  36.4670706  63.4271717  75.2013111  35.8534908
  18.9594650  43.7085485  56.3843727  18.6047375  44.4401598  56.8894911
  18.1885529  43.2697010  56.0247374  62.1175718  76.6900921  77.8029156
  62.5579262  75.9277344  77.4272490  61.2805891  76.7351389  77.3406792
  33.8979101  79.5639467  53.7580538  33.1733704  79.5558643  54.3835211
  33.8408208  80.4214001  53.3364630  72.7321367 103.9101485   0.5825921
  73.3997040 103.4286336   1.0711881  72.4618034 104.6121243   1.1745187
  40.4243135  83.2705212  77.4359226  39.5277262  82.9559994  77.5518513
  40.5840111  83.1973743  76.4949799  65.9107356   8.8384637  83.0792904
  64.9973254   9.1207799  83.0322933  66.1786465   8.7410935  82.1655178
  89.1969714  18.5693729  16.1307927  89.9188099  18.5388554  16.7586824
  89.6221790  18.5219515  15.2745267  40.6422663  58.8328075  89.6504402
  41.5279150  58.5252953  89.8435593  40.4180622  59.3972492  90.3902817
  23.1972480  50.5763197  76.3495350  22.3912740  50.0654936  76.2740946
  22.9158449  51.4151907  76.7146921   2.7181912  44.3674648  19.8751851
   2.3253895  45.0962818  20.3555795   3.6563254  44.4437588  20.0492879
  35.7583036  96.5890149   4.8175832  35.8313011  96.3059310   3.9061185
  35.3491373  97.4529342   4.7680208  37.9511404  74.5446348  67.5968361
  37.1699452  74.3866777  67.0667267  38.5051632  75.0992870  67.0476055
  54.1153336  87.3235607  89.0632343  54.0395117  87.0156574  88.1600952
  53.6000490  86.6986847  89.5733833  18.1253707  78.3050919  73.2240343
  17.2056532  78.1782913  73.4569979  18.2678330  79.2472363  73.3151531
  66.9323206  83.6239529  69.3002796  66.6842508  84.0877533  68.5005426
  66.4850187  84.0985489  70.0009346  55.5711126  94.4403267  78.5625839
  55.3647375  93.6995029  77.9926538  55.8851624  95.1205826  77.9668856
  47.7202272  91.2605858  48.0016565  47.3623562  90.3821468  47.8732204
  48.3212566  91.1686230  48.7409449  70.5489397  82.7427101  77.5842190
  70.2971888  83.2015705  76.7827845  71.5005064  82.8377342  77.6257801
   6.4561173 101.7717341  31.9429418   5.7528492 101.2291125  32.2996064
   6.0470387 102.2506455  31.2221547   6.9993055 102.9865742  64.9115849
   7.6132649 102.4489021  64.4113874   7.5354332 103.6964798  65.2648973
  51.3020897  77.5788689  90.2959061  52.0038986  77.0391417  89.9320507
  50.7785320  76.9709206  90.8179379  22.1464372  82.7961731  63.0576324
  22.9699516  82.8720665  62.5756645  22.4062848  82.5037766  63.9312553
  96.1410098  11.8615922  68.6347771  95.4083924  11.4947804  68.1398535
  96.0416465  11.4979276  69.5146084  40.2505922  97.8606415  90.2588844
  39.4276524  97.9066849  90.7455826  39.9902511  97.6164341  89.3707275
  56.1348193  94.8031548   5.0403043  56.4920788  94.7501210   4.1538545
  56.7989855  95.2799491   5.5380842 100.7826408  45.9001589  85.2383327
 100.0160595  46.0153675  84.6767998 100.4238924  45.6089449  86.0766220
  43.0417585  86.6281509  59.4603491  42.6095104  87.4207401  59.1422129
  43.8227654  86.9465256  59.9130058  20.6879711  63.1974983  88.2188797
  21.0084176  63.0687428  89.1116047  21.4804006  63.2382822  87.6835060
  44.0407991  69.0134525  69.8307133  44.0024662  68.4011364  69.0959835
  44.9144697  69.4004822  69.7746181  97.9531417  15.6447971   8.6362096
  98.0824098  14.8564423   8.1089326  97.3366437  16.1734045   8.1295129
  30.8686209  49.3918562  76.0709763  30.7521844  49.2065096  77.0028114
  31.6552162  48.9043951  75.8262730  98.2787690  16.2725723   2.5744649
  99.0202865  16.4101112   3.1639215  97.8150615  17.1099508   2.5734636
  45.8939743  66.1366320  57.6176643  46.2603855  66.0716915  58.4995699
  45.9704018  67.0642519  57.3942566  11.4224577  73.8683414  76.6242838
  12.1142817  73.7953711  77.2817659  11.8886685  73.9050055  75.7890987
  41.3193785 100.6536702   0.2731630  40.4812841 100.2764920   0.0056478
  41.9700198 100.0032834   0.0087758  21.0387492  79.7242832  45.1364422
  20.5977345  79.9633837  44.3212318  21.1313248  78.7727785  45.0885153
  91.1832521  26.1205805  18.0493184  92.0047102  25.6870354  18.2805654
  90.6902334  25.4574955  17.5661107  25.0541234  48.1601381  62.9187346
  24.5574379  47.9518318  63.7100267  25.7701707  47.5249577  62.9112530
  30.3455591  52.2735691  59.3969488  29.7222733  52.4182320  60.1088619
  30.6814051  53.1460953  59.1916561  33.4584451  54.1583824  51.4401102
  32.8782511  54.9189615  51.4064693  34.3369794  54.5222855  51.3306379
  49.8522663  61.0758829  49.5100546  49.3110943  61.7681932  49.8896265
  49.2287636  60.4998970  49.0676594 104.2479559  79.3305969  89.3965149
 105.1253548  79.6454430  89.1790867 104.1285523  79.5698977  90.3155994
  31.2243319  75.0830698  48.6402130  32.0144820  74.5503044  48.5504532
  31.3759303  75.6055450  49.4277859  33.0257249  76.7475510  87.2043324
  33.9231920  76.5558195  86.9322491  32.5230885  75.9807634  86.9293308
  96.1765513  20.0905741   8.5953542  96.9781813  19.7187412   8.2274457
  96.4544687  20.4913509   9.4189855  40.5366039  79.1692066  72.3399639
  41.3105249  78.9492226  72.8585005  40.2179432  78.3267403  72.0160246
 104.1145091  87.4715761  18.4032842 104.8598866  86.9448928  18.1147500
 103.4042506  87.2265963  17.8101941  41.5095663  57.5281477  55.8993053
  41.9583988  58.0808306  55.2595186  41.4502192  56.6716337  55.4761076
   9.2378998  75.5374622  75.5155277   8.4416676  75.0085449  75.4655838
   9.8572314  75.0932455  74.9364471  12.1074665  56.6974688  55.0932884
  11.9107091  56.7001915  56.0300446  12.5612211  57.5264931  54.9414492
   9.5351220  20.0019730   2.4503633   8.7081195  19.5240009   2.5123426
   9.7401858  20.0055731   1.5153905  55.7365227  80.0188446  84.3791389
  56.0282469  80.3986835  85.2079010  54.8201752  79.7876120  84.5310402
  85.4412322  66.9937793  27.7572271  85.8229880  67.0314673  26.8802568
  86.1679368  66.7348520  28.3238622  32.2678828  79.2868137  89.6986485
  32.2299075  80.0619888  89.1383839  32.3396373  79.6364880  90.5867958
  49.1275406  80.8909512  64.2909861  49.9041128  81.0277462  63.7483549
  48.7172794  81.7541504  64.3439627  93.3143716  21.3434800  54.3376017
  93.2702927  21.1559113  55.2752113  93.3378844  20.4816445  53.9217806
  30.0668645  43.4907103  39.2858481  30.0682592  42.6006794  39.6380997
  29.8715568  44.0465641  40.0402451  81.4439020  26.0614908   9.6894285
  81.0268846  26.7216480  10.2430745  80.8772567  26.0012758   8.9203283
  16.7220069  10.9353340   5.2579519  16.2965060  10.0861967   5.3768941
  16.3604070  11.4840114   5.9539625  43.9966636  97.3212651  17.0644494
  44.6351300  96.6081647  17.0737191  44.2137806  97.8269795  16.2812921
 105.4246244  39.1821182  19.7149965 106.1496267  39.7922218  19.8505327
 104.9688420  39.5192898  18.9437600  31.8765616  87.2244072  80.5504608
  32.5809813  86.9580460  81.1412907  31.1604667  86.6192436  80.7433796
  82.5647163  44.3885326  77.5878620  83.5207081  44.4090557  77.6313925
  82.2789192  44.7770166  78.4146786 102.5451574  32.2959221  22.9088136
 102.3534403  33.2336128  22.8946134 102.2888574  31.9858730  22.0402356
  45.7336140  76.5445805  75.4318237  46.5254450  76.9784546  75.1140356
  45.0152969  77.0295715  75.0255775  69.5457155  36.8078792   0.9064409
  69.4204203  37.6681126   1.3071271  69.9463034  36.9951332   0.0575086
 109.3793187  98.1491650   4.9475881 109.8969874  98.8328064   5.3728982
 110.0292883  97.5564468   4.5701524 109.4802603   6.7027176  23.9079114
 109.7672043   7.6126182  23.8306447 110.1501569   6.2001312  23.4443685
   6.1160713  54.0109062  76.6030931   6.5537912  54.2113018  75.7757616
   5.2087957  54.2835808  76.4662313  50.0063896  71.8523645  51.7588186
  50.1350689  71.1416197  52.3869228  49.5622253  71.4398527  51.0180187
 104.7793873  53.8303709  44.5650673 105.5350693  54.2404795  44.9857664
 104.5120104  53.1407499  45.1726580  56.3155794  84.7858334  87.0645714
  56.7742014  83.9545536  86.9426346  55.3874111  84.5558357  87.0216942
  42.3235226  83.0134583  66.9474268  42.8433180  83.4827614  67.5999641
  41.6424656  82.5727749  67.4555445  25.5204391  70.2280569  65.7273340
  25.7432270  69.3244362  65.9510899  26.3560867  70.6941700  65.7530737
 106.5892300  41.1243332   6.9075128 106.8871984  42.0100963   6.7004415
 105.7343111  41.0538090   6.4828130  91.0968194  23.1174791   0.4731199
  90.2995476  22.7212894   0.8247300  90.7839117  23.7674988  -0.1560000
  83.6250469  38.8333023  37.4658223  83.0295101  38.8115871  38.2148858
  84.3310675  39.4195164  37.7380773  91.8799421  23.4730232   4.4884034
  91.9153175  23.6202991   5.4335424  91.5239439  22.5892151   4.3968793
  34.0893078  79.8775482  41.2091446  33.2378006  79.4721127  41.3728285
  33.8842535  80.7882881  40.9976292  38.1997514  84.7737026  67.0475531
  37.8153706  84.3847847  66.2619114  38.3881378  85.6787205  66.7991924
  26.2994195  23.9684856   4.4149610  25.8401586  23.1812132   4.1225454
  26.6311742  24.3653191   3.6095449  21.4575339  32.9191101  31.0259363
  21.3522626  33.8565720  30.8636876  21.4166976  32.5195969  30.1570627
  92.6403861 102.9835061   5.9356805  92.8913073 102.0706586   6.0770437
  92.0100074 102.9499558   5.2161523  54.7380161  81.4768696  60.9313583
  54.9481678  80.5526257  61.0649204  55.2263308  81.7224026  60.1455498
  14.0274024  80.0358391  54.8241234  13.1427991  80.3929901  54.9025869
  14.3138051  79.9047184  55.7280111  87.6706705   5.2387751   5.6489679
  87.8631112   4.3715132   5.2925226  87.9345033   5.8458507   4.9575349
  44.2029743  13.3430108  80.5418777  44.5029633  13.8654908  81.2856865
  43.8343726  13.9828881  79.9328423  40.2663088  83.8485336  87.2268105
  39.7587848  83.2608986  87.7865696  40.2724600  83.4186935  86.3715744
  48.3886766  77.4157286  74.0089178  48.9335155  78.0684280  73.5691881
  47.9082680  76.9879484  73.3000851  29.6309924  67.5659657  62.9162121
  29.4008541  67.7072287  61.9978905  28.7903357  67.5464725  63.3735418
  55.7122128  10.6826600  76.6120434  55.7293885  11.6036042  76.3516569
  56.5231519  10.3182897  76.2573004  51.8958998  71.6413450  43.2632828
  51.4809275  70.8827162  42.8527737  51.5344954  71.6617489  44.1493988
  97.6548800  48.1238926  22.2373983  96.7148957  48.2196033  22.3906919
  97.7289352  47.3498047  21.6792508 101.1724481  35.1142872   4.3978139
 100.2393350  35.3011883   4.5007726 101.5387663  35.2338303   5.2740213
  22.3182130  57.7223539  69.0759420  23.2087088  57.7639294  68.7273455
  22.1346283  58.6142397  69.3710136  52.4107950  99.9870233  10.1678869
  52.7856164 100.8383636   9.9421521  51.4755564 100.0815991   9.9872896
  50.0614166 100.6820583  62.2629881  49.3823147 100.3234482  61.6916227
  50.8820629 100.4907513  61.8089294  65.0382428 104.0257529  22.3479863
  64.4346719 104.7040204  22.6511117  65.3708391 103.6248235  23.1510183
  35.6769109  72.6485968  81.9118309  35.1816225  73.3671284  82.3050690
  35.6132483  72.8015947  80.9690857  28.2185745  82.3378468  58.6269951
  28.0931234  82.9957771  57.9431772  27.6517916  82.6252747  59.3427944
   0.1692002  46.4193010  72.5774956   0.7131119  45.9504175  73.2103777
   0.1069335  45.8258200  71.8290710  31.6546416  70.0020027  50.4408598
  31.9273496  69.3371773  51.0732126  31.3563418  70.7357264  50.9783506
   7.4614531  67.5439548  80.3621578   8.1482351  68.0326509  79.9085808
   7.9193097  66.8074608  80.7673454  49.9316025  80.3230762  57.3955917
  49.6972847  81.0011292  56.7618942  49.4139051  79.5616198  57.1340513
  70.8028440  62.4763099  21.0309335  69.9725942  62.0330439  21.2053796
  71.0613279  62.8422657  21.8768045  13.6340690  62.6051188  53.5912800
  12.9571354  63.2772255  53.6704350  13.2475019  61.9420242  53.0193520
  38.2896495  50.4484177  56.8386745  38.4595466  51.0613918  57.5539589
  39.1556048  50.1262522  56.5885544   2.6624143  86.1316395  83.0814362
   3.1139159  85.9221172  82.2638321   2.1699128  86.9287109  82.8856087
  62.6995282   8.6879262  75.9995461  63.3171086   9.4109448  75.8897305
  62.7039962   8.2386502  75.1543427 106.4061293  32.7924431   8.3327600
 106.4496812  33.2162750   7.4756166 106.8393287  31.9485081   8.2049486
  54.6179199  72.6159811  82.1992302  53.8656092  73.2064152  82.2398376
  54.3509245  71.9295359  81.5878868  83.1727192   2.7923954  11.3593980
  82.9911563   3.3947361  12.0808240  82.7327618   1.9798553  11.6092893
  39.1795897  68.8199949  64.7599983  39.5118737  69.7099257  64.8776484
  38.4497237  68.7534952  65.3757143  79.7057012  16.9482124  17.9881212
  80.4742500  16.7343128  18.5170862  79.8961315  17.8145445  17.6283475
  23.7829804  45.3336716  59.3128967  23.0025387  45.8860254  59.3581104
  23.9269590  45.1987171  58.3762598  31.2796545  65.4583454  55.4686356
  32.0568871  64.9039745  55.3992414  30.8023190  65.1084900  56.2209558
  68.7820244  90.7772446  79.8309040  69.5642853  90.2350235  79.7294188
  68.8991880  91.2108898  80.6761646  25.4581499  29.4673014  68.2532120
  24.7622776  29.1220737  67.6939154  25.0274467  29.6448708  69.0893888
  26.9839549  79.6624756  83.3292103  26.6574955  79.2634821  82.5226974
  27.9210234  79.7821999  83.1749344  57.0495705 103.3716659  13.0347558
  57.4558978 103.6916427  13.8402005  57.6926284 102.7658538  12.6663801
  42.0321321  43.1470633  78.6279154  41.2991524  43.3914757  79.1929197
  42.0607662  42.1913385  78.6727285  83.4850602  99.3552379   3.8365575
  83.1108813  99.6846608   4.6536847  84.1791396  99.9786691   3.6224862
  27.8650618  70.0260162  69.7517204  27.1511292  69.9303007  70.3820944
  27.7002311  70.8690214  69.3293428  38.1381106  84.1047955  35.3433585
  38.4481502  84.7655392  34.7240686  37.1854925  84.1180134  35.2507401
   7.1983594  91.0283947  80.2021217   7.2508430  90.0737953  80.2492142
   6.2653351  91.2217522  80.2932739   6.5012181  88.3381557  79.7171402
   7.0350015  88.4242725  78.9272738   5.6655037  87.9913616  79.4048166
  71.8245797  15.8702477  78.5435200  72.1514301  16.4781293  79.2067575
  72.2532086  15.0392350  78.7482786  44.7298431  93.4465218  76.2419415
  44.2308331  94.0772724  76.7609596  44.2263985  93.3499241  75.4335833
  22.0689298   3.7938869   7.2290632  21.5548087   4.5130575   6.8620416
  22.6148988   4.2068422   7.8981038   1.2282015  30.7984436  17.6863309
   0.3139807  30.5158508  17.7102872   1.3983871  30.9807957  16.7621919
  57.5997877  65.1772594  77.8336143  56.7293692  65.5507326  77.9718828
  58.1439877  65.9241152  77.5840425   5.1801969  40.9533489  19.7326680
   4.7603990  41.0446060  20.5880472   4.7113801  41.5686691  19.1689130
  37.4032974  94.7491360  87.9798317  36.9632411  95.5095863  88.3596992
  36.7123389  94.2828560  87.5093079  40.6431961  59.0520191  84.3193054
  40.0035095  58.3416748  84.3688202  41.2022781  58.9247227  85.0857544
  71.2248755  64.8121405  76.5226650  71.1051941  64.0282631  75.9865284
  71.0009146  65.5375385  75.9396839  74.4453382  98.3035374  88.5184097
  74.1208792  97.4681377  88.1821537  75.3782463  98.3018875  88.3041382
  26.8911743  49.7580385  81.0213566  26.4641142  49.5084190  81.8408298
  27.4910307  50.4618073  81.2685680  47.3427200  66.5497732  77.1895790
  46.8670702  66.0414028  77.8465080  48.2648230  66.3564682  77.3586512
  36.0932994  79.9859762  74.9009466  36.2660217  80.6538963  74.2374134
  36.7499232  79.3092680  74.7361994  64.1097021  85.4483128  88.6357403
  64.1617775  86.3893414  88.4684372  65.0211430  85.1560783  88.6460590
  25.9799671  60.4004574  80.5116463  25.3168178  59.7635412  80.2455521
  25.6558180  60.7513809  81.3411045  30.9605765  62.7238512  40.3933764
  31.5653753  63.3427620  39.9842334  30.9986210  62.9331970  41.3266325
  32.1781826  96.7278862  85.1498985  31.6194868  96.1405087  84.6409035
  32.5929451  97.2904301  84.4958782  35.6752872  55.5119085  84.1449547
  35.8671451  56.4430428  84.0335560  35.7943296  55.1367760  83.2724094
 103.6686120  17.3712004   7.1352884 104.5379147  17.6793039   6.8791314
 103.5358247  17.7309263   8.0123254   8.4246033  95.2133179  28.1296301
   7.5879228  94.8109150  27.8966808   9.0806335  94.6762085  27.6853633
  12.6671088  90.5425453  87.1484184  11.8088543  90.8906937  86.9067001
  13.2292092  90.7518101  86.4024353  74.1721201  89.2070770  54.6435690
  74.5042562  88.4030724  55.0429344  73.6125469  88.9055729  53.9278889
  32.4777865  65.9736586  75.6417036  32.2505140  65.2544069  75.0524235
  32.5225949  65.5686378  76.5078306 102.8607068   6.5231789  27.9372903
 102.0684251   7.0370806  28.0935785 103.4938440   7.1561659  27.5986215
  72.4776459  49.9078226  74.0096521  73.0054522  50.6849003  73.8258123
  73.1115484  49.1917324  74.0498114  40.8642435  59.8558998  69.6519661
  40.1636648  59.9284029  70.3001642  40.6062412  59.1160393  69.1021776
  95.6101355  33.1437767   6.9890424  95.7637915  34.0876758   7.0300027
  95.9020099  32.8164566   7.8398725 102.4512419  40.8706177  27.7303907
 101.7534194  41.2512958  27.1971341 103.2300362  41.3790787  27.5041505
  20.7508636  66.1723471  84.6494484  20.2172136  66.0917330  83.8589096
  20.1153350  66.2191820  85.3636837   1.4928652  18.1637371   2.7431127
   1.1965061  18.7574947   2.0532914   1.3866283  18.6643589   3.5520097
  66.7927837  83.1706333  62.6697922  66.1700773  83.0762196  63.3905935
  67.6348400  82.9137516  63.0455446  30.8342624  72.3745966  51.4668655
  30.5115390  73.1920195  51.8462038  30.0471282  71.8481064  51.3273478
  43.8461304  75.3449345  67.2762728  44.0891838  74.4206619  67.3298550
  43.9856005  75.6809807  68.1616306 110.2595222  60.9188509  69.2044163
 109.5027684  60.6775665  69.7385883 110.5278470  61.7736244  69.5414543
  99.2878256  12.6829517   6.9330522  98.8236985  11.9395531   7.3179742
  99.1609893  12.5820625   5.9896680  66.1591487  87.5639705   7.8493806
  66.9465308  87.8139047   8.3328935  65.9494619  88.3328752   7.3192331
 102.8142557  35.4887092  13.5120698 103.6753258  35.4549015  13.0953618
 102.7522502  34.6679676  14.0007039  29.1728425  38.3170390  89.4980526
  28.9568639  38.6068940  90.3843784  29.2157888  39.1244888  88.9857864
  36.6933322  76.1933470  57.8706455  35.8814335  76.5423107  57.5028467
  36.8927050  76.7741442  58.6049175  25.8835077 102.5673485  81.9777489
  25.8335185 103.4979916  81.7594814  25.8074093 102.1193314  81.1352921
  75.9039489  19.4997967   1.6756555  76.3234337  20.3064001   1.3762399
  75.1333218  19.7961224   2.1599695  40.6491566  46.6480875  48.4631109
  41.4854097  46.7121696  48.0018091  40.6350136  45.7562876  48.8105726
   0.6100036  11.0382450   4.9348279   0.1683284  11.8856275   4.9904367
   1.5422536  11.2506521   4.9797937  29.8243809  76.0160971  78.0355406
  29.1943574  76.3794661  78.6578465  30.1193213  76.7703581  77.5253153
  85.0716882   1.4402303  74.5942450  84.5993810   2.0117387  73.9888191
  85.9692912   1.4288815  74.2619658   3.0373860  52.1643055   1.3195058
   3.5791875  52.9489410   1.4034005   2.2701503  52.3438061   1.8629857
  23.9437200  62.5397098  19.6564122  24.5970632  63.2386482  19.6271058
  23.6388589  62.4587906  18.7526723  35.1880884  61.3153839  86.2707424
  36.0842991  61.4050150  86.5947819  35.2095628  61.7041588  85.3963089
  54.9948168  77.5475836  80.7000542  55.5426979  76.8616486  80.3185463
  54.0978479  77.2605133  80.5289841  23.9111710  63.0443859  46.9546938
  24.1441941  62.3844767  46.3016605  23.7209177  63.8307810  46.4432096
  84.1009045  72.3128462  59.8594379  83.7413025  72.2351694  60.7431173
  84.9647522  72.7052355  59.9860191 109.0213880  15.3248108   5.3443452
 109.0733871  15.6636417   4.4506379 108.0956278  15.1149261   5.4674360
  74.6047256  46.6921032  17.9520246  75.0681955  46.2305916  18.6508962
  74.3584875  46.0045612  17.3332425  43.4254980  68.1744528  76.4582634
  42.7364540  67.9145002  77.0697165  42.9687691  68.3169746  75.6292200
  22.7485149   0.3744325  87.0629120  23.5238449   0.7212838  87.5042629
  22.6178794   0.9572514  86.3149166 110.2517566  47.3971641   4.3710824
 110.0953588  47.7763069   5.2359697 110.8436284  46.6629398   4.5348951
  93.1731992  90.3986219  38.2527849  94.0963130  90.2087311  38.0853483
  92.7426772  89.5444492  38.2171747  14.6883250  10.2863253   8.6390992
  14.4745494   9.7276247   7.8918477  13.9224578  10.8510721   8.7427636
 103.3772709 103.2145786  42.9153681 103.4957495 104.0811157  42.5263786
 103.8309380 103.2656479  43.7566805  54.5538331  27.6827038   6.9005891
  55.0456716  27.7607620   7.7180406  54.8132897  28.4501541   6.3907453
  32.5012159  91.8560982  75.8478737  32.1639037  91.0902405  75.3832150
  33.4123063  91.9269848  75.5630541  37.4730182  95.4119110  81.9105816
  36.5669084  95.2390003  82.1661186  37.9968333  95.0465679  82.6235867
  11.4111854  18.0863274  16.3124200  10.9817887  17.4347008  16.8667146
  11.4969874  17.6573837  15.4610177  57.1392298  90.2305889  83.6242485
  57.4083662  89.5364380  83.0226231  57.9320240  90.7490349  83.7617874
  93.2518134  21.6116226   1.3616964  92.6933512  22.3839176   1.2727567
  94.1114888  21.9630897   1.5933439  44.5610428  55.2301264  55.1464558
  44.2847347  55.5695200  55.9977436  45.0332355  55.9571171  54.7405672
   9.8811055  64.0169037   3.3898851   9.1624261  64.4672668   2.9461404
  10.1912833  63.3742321   2.7519151  31.4068270 104.4127464  84.7587490
  31.9224310 105.1556587  84.4449520  32.0037818 103.9320469  85.3321743
  49.6482591  40.4321774  77.3480225  49.4661276  39.7091969  77.9483223
  48.8477783  40.9569749  77.3552895  50.0534105  75.0068855  62.1964121
  49.3801689  75.5662251  61.8089628  49.6253872  74.6057653  62.9528046
  28.7618446  89.1868114  70.7432270  29.4545555  88.6777401  71.1642075
  28.4161186  89.7436237  71.4408445  91.6361603  45.5124844  13.9825746
  91.0667250  44.7498882  13.8805028  91.1196444  46.1293972  14.5010969
 103.9675269  35.3859699   2.9206392 104.6698079  34.8719681   3.3191797
 104.4207606  36.0234249   2.3688623  88.2130337  92.8074837  82.5697327
  87.7331829  92.5699139  83.3631706  88.3000660  91.9853687  82.0872593
  68.6914587  87.2636700  85.9084225  68.5391665  88.0510998  86.4309025
  68.6911058  86.5495396  86.5457916  78.8106251  72.8737068  89.6198559
  78.9267349  73.7467575  89.9947357  78.0892897  72.9737854  88.9986515
  20.9094024  92.6090145  66.0108423  21.8498731  92.4940968  65.8746815
  20.5053496  92.2107601  65.2398872  12.7899314  35.0642574   8.9377996
  13.0921603  34.6213520   8.1448861  13.4353734  34.8290146   9.6043607
  49.1906691  71.6671991  89.6633339  49.3977070  70.9784460  89.0316772
  50.0356770  71.9028378  90.0463104  96.8595652   6.4116200  68.2672882
  96.8696265   5.9520825  69.1069078  95.9359269   6.4329060  68.0169535
  47.0418978  87.9574966  73.0478430  46.6278601  88.5528183  72.4230289
  47.3896122  88.5309982  73.7307930  71.4439821  68.9944315  77.9871416
  72.1933556  68.4288073  78.1735229  71.6549492  69.4025517  77.1474028
   0.4911281  56.5575588   6.9545671   0.3572346  56.2356365   7.8460141
   1.2919332  57.0793617   7.0061036  45.9522200 101.9261551  44.1675854
  46.3784313 101.0738659  44.2579603  45.2174759 101.7649555  43.5756397
  89.4424793  40.0140655   5.8313581  89.1134593  40.1847065   6.7138883
  88.8669774  39.3299377   5.4893037  18.0892802   6.8648851  22.1892759
  17.7727510   6.3334453  21.4587900  17.2939397   7.1687925  22.6266595
  70.2103710  99.3322849  77.6315546  70.3686047 100.0366116  78.2601452
  70.2771854  99.7556305  76.7756653  48.0203676  72.2026300  55.1787138
  48.8804865  72.1048450  54.7702265  47.8093052  71.3278437  55.5049515
  62.9634476 102.3061275  88.6312103  63.8569212 102.6463985  88.5848904
  62.4210644 103.0073929  88.2702827  31.4566089  46.3481319  15.3184434
  30.9061814  47.1017158  15.1054307  30.8494044  45.7026565  15.6802293
  75.7135444  14.9460038  65.3973913  76.0651569  15.7231435  65.8317327
  75.3125124  15.2807340  64.5952940  78.5525456  34.7481144  23.2434007
  78.0930931  34.0016449  22.8588029  78.7724641  34.4629562  24.1302797
  42.0289517  26.1467922   0.1802751  42.4125863  26.9932878  -0.0488547
  41.0865594  26.3115442   0.2116414  85.2714252  91.9458580  81.6164303
  85.9771538  92.0298767  80.9752369  85.7053280  91.6343594  82.4107456
  36.8395420   9.0632733  83.8358402  36.0002034   8.6569222  83.6199284
  37.3868129   8.3375749  84.1359901  77.7286868   8.5029134  89.7098255
  77.4369054   8.1692227  88.8614464  77.8940110   9.4332990  89.5572567
  28.9686584  57.1134043  75.5163336  29.9087596  57.2549486  75.6277275
  28.6411119  56.9703531  76.4042997  76.0181408   0.2293881  48.2914257
  76.0535006   0.2155599  47.3349810  76.6420893  -0.4434196  48.5639191
  89.6057658   7.4364480  83.6664867  90.1472382   7.2534760  84.4343090
  89.7858338   8.3534821  83.4594536   8.7271548  32.2887123   5.0461980
   8.0937244  32.8192413   5.5294629   9.5780946  32.5564182   5.3932782
  45.5919552  94.0879631  57.4248171  45.2473211  94.9796772  57.4728632
  46.4874220  94.1942501  57.1037626  96.4016633   5.0178155  31.0411763
  95.5746465   5.4238042  30.7814717  96.6821151   4.5293435  30.2672434
  88.3889966  22.0772847  80.5422688  87.8404383  22.8537187  80.4305935
  88.6309628  22.0861634  81.4683437  58.2059050  61.0374212  89.6885109
  58.0478764  60.5624056  90.5043697  58.1267452  60.3721666  89.0048409
  33.1940842  57.4712181  74.1454315  32.7399874  57.8495073  74.8983812
  32.9670882  56.5416765  74.1710567  20.8693361  66.8586397  60.2687407
  19.9875486  66.7797804  59.9047852  20.7338572  67.1985054  61.1532545
  97.7855930  43.0760563  21.2797185  97.1334610  42.9055202  21.9593355
  98.1911978  43.9033401  21.5391752  59.4995165  74.0323925  79.4354868
  59.7516251  74.2293549  80.3376389  58.6184025  74.3960571  79.3481922
  35.5154896  66.3296413  87.8251362  35.8417177  66.5037155  86.9422436
  34.7207785  65.8136463  87.6894283  27.1130085  77.0803022  50.4036856
  27.1136904  76.2745810  50.9204531  27.4215889  76.8103504  49.5387363
  40.3022766  59.6916819  78.8322687  39.9123883  60.3606033  79.3950844
  40.3973293  58.9268017  79.3998575   7.6557971  27.0650137  19.9390813
   7.9978562  26.8346918  20.8029004   6.7788364  26.6819275  19.9187967
  28.7809181  82.0393658  86.6209221  27.9149008  82.2923279  86.3011456
  29.3154740  81.9639206  85.8304787  46.3440466  87.5208664  78.9417696
  47.1029711  88.1021500  78.9905787  46.1637688  87.4404907  78.0051422
  57.8003502  74.4266558  84.2808247  57.2626400  73.6454821  84.4107056
  57.3000908  75.1325655  84.6902943  70.0618152  11.3284978  59.4643641
  70.2952533  11.6241368  60.3443336  69.5857220  10.5101117  59.6050787
  18.6805202  51.5558994  10.1241514  18.3331157  50.8241547   9.6141549
  19.6272565  51.5135849   9.9894830   0.4438211  48.2215298   8.1678029
   1.0104562  47.6687897   7.6296254  -0.4439877  47.9989136   7.8876706
  14.1435386  45.0644386  23.2012674  13.8800288  45.1629341  22.2863408
  14.4079448  45.9441555  23.4703943  77.4348259 100.2111626  70.1845074
  77.1355867  99.8420048  71.0154200  76.8180943 100.9199142  70.0013781
  84.2257977  90.6261921  79.0536642  84.8397160  90.8131790  78.3434677
  84.5569324  91.1318779  79.7958612  47.6560545  75.6462479  67.5065231
  48.3108234  74.9551821  67.6061726  47.2433901  75.4652357  66.6620255
  32.3178363  84.8237896  71.2266779  32.5193071  84.5755577  70.3244448
  31.4209104  85.1559639  71.1891031  66.4334564  51.9510659  82.4264526
  66.3428168  51.2225541  83.0406952  66.8690162  52.6375493  82.9316807
  25.2649736  26.6636848  75.9349966  26.0108018  26.0666633  75.9944487
  24.5293093  26.1639047  76.2889004  49.8565769  91.1133957  83.2527065
  50.6920433  91.3433266  83.6593437  50.0949717  90.5442810  82.5209236
  96.4132695   7.6116761  39.9905682  95.8909659   6.8442067  40.2238464
  97.3202281   7.3282727  40.1060915  51.5182781  90.7935429  70.9251451
  51.8108463  91.5603638  71.4177036  50.6186485  91.0004234  70.6719732
  78.3040571  64.4544315  89.9853992  78.8643694  64.7965384  90.6819916
  78.0386782  65.2288866  89.4893932  73.3712864  89.6774387  81.5520763
  72.4696207  89.5009995  81.8206024  73.2864904  90.1490784  80.7234669
  63.2479715  66.3896322  81.1413097  63.7122107  65.5532408  81.1753750
  63.7792921  66.9350147  80.5612278 103.1728539  32.8901089   4.5406553
 102.7299103  33.7360371   4.6072694 104.1013703  33.0968941   4.6471044
  49.0895224  78.2870770  67.1916533  48.7700510  77.4693012  67.5729847
  49.4925690  78.0241394  66.3642216  65.5259037  77.4060822  68.5887623
  66.4133787  77.7480698  68.4807873  65.1734257  77.3696613  67.6995707
  32.6129293  73.7425423  89.9341774  32.8614974  72.8217554  90.0154018
  31.9880724  73.8855553  90.6450462  45.1293755  98.3076382  83.3671284
  45.2388763  98.4996700  84.2984581  45.9475040  97.8807735  83.1127930
  26.6004014  92.5685883  78.8713503  27.4073911  93.0102062  79.1358709
  25.9132242  93.0019855  79.3774986  59.4848967  97.7515984  31.5450239
  60.2661610  97.6083374  32.0791912  58.7820435  97.3156929  32.0269108
  63.7738876   7.4744615  23.3392215  63.6696629   6.7383393  23.9421344
  63.5380344   8.2438382  23.8575530  17.3489762  78.4141815  21.2106248
  17.4451257  78.5739601  22.1494790  17.1485902  77.4804390  21.1458608
  78.1247330  76.2451887  86.2261391  77.3198938  76.7237902  86.4246464
  78.8063431  76.7117691  86.7098141  20.6966401   0.1700676  20.2863809
  20.7119990   0.5296457  19.3994256  20.1128341  -0.5862438  20.2281400
  54.4512606  69.0404415  71.4514923  55.3176498  68.6841393  71.2548923
  54.3089914  69.7081518  70.7805586  85.4526763  24.9636468  69.8959255
  86.3252358  24.6958169  69.6075964  85.2172284  25.6831559  69.3101788
  25.3108931  98.9853096  74.1338587  25.5968142  99.8835373  73.9675045
  25.0332856  98.6598587  73.2775593  18.3155776  29.1805256   3.2556840
  17.6156236  28.5792911   3.5102769  18.4712554  28.9889992   2.3308584
  96.0108905  12.5632676  85.4200172  96.6661649  13.2365617  85.2369213
  96.2696032  12.2014626  86.2675953  73.7842560  69.5535135  71.5102053
  72.8434515  69.6388912  71.6645622  74.1406393  70.4168749  71.7195797
  50.4588513   1.9477662  66.4851284  51.2521498   2.4767980  66.4012146
  49.8509948   2.3250493  65.8491993  35.3257942  99.2889118  68.5499573
  35.5264831  99.6368694  69.4187975  35.4948926 100.0191021  67.9545975
  51.7745399  86.9426441  81.1267090  52.7263784  86.8671036  81.1940384
  51.5634537  86.5591335  80.2754784  25.5372287  33.3785713  19.6324464
  24.6569778  33.0912388  19.3898984  26.1170770  32.7138985  19.2606660
   3.4129621  35.1125801   5.5166551   2.8248240  35.1922787   6.2676355
   3.9501382  35.9042156   5.5480596  74.6965389  12.0248326  80.8787727
  75.2094726  11.2168702  80.8970928  75.2969985  12.6817998  80.5265331
  40.3078127  93.1282997  78.0833006  39.6500301  93.6871433  78.4971285
  40.6283045  93.6435127  77.3429728  30.0060058  98.0580902  34.0505862
  30.4546142  98.7862396  33.6207104  29.2541933  98.4622097  34.4838309
  95.6477790   6.3169297  71.0091591  94.6999650   6.4018926  71.1124134
  95.9454970   5.9359178  71.8352461   9.8209131 100.3967857  65.9071112
   8.9811850 100.2283287  66.3345575  10.1941895 101.1317158  66.3937140
  43.6820459  68.2687521  64.0792704  43.7017345  68.2231283  63.1233597
  42.8097248  67.9538393  64.3161678   3.6383678  20.6386269   1.6121408
   3.6437226  19.9360121   0.9621164   2.7585579  20.6103647   1.9881364
  84.3992762  89.6672181  18.1209298  84.2737870  88.7562946  17.8550264
  83.6297231  89.8696116  18.6529561  45.9874474   4.2803296  87.2659492
  45.6537186   5.1098451  87.6076698  46.2803887   4.4873818  86.3785172
  43.0417776  79.1873932  46.0087109  42.2826719  79.7683907  46.0580635
  42.7556849  78.4666634  45.4475260  51.5673351  83.7000370  78.6675167
  51.9374132  82.8698540  78.9676332  51.9720268  83.8475895  77.8127146
  31.3801980  78.6779690  55.0180435  31.0908365  78.0911589  55.7167292
  30.8045220  78.4747362  54.2808056  49.1727018  89.9372005  27.9787278
  49.9659491  90.4706001  28.0284405  49.1063213  89.5257950  28.8404560
  49.2369127  86.9044304  82.0705986  50.1353979  87.0027256  81.7554855
  48.8835764  86.1739922  81.5628242 103.1093316   4.2103585  65.4457140
 102.5840478   4.5876988  64.7400761 102.5039630   4.1404637  66.1838722
  66.9397573  15.1773461  42.7431297  66.4056949  14.4198235  42.5040340
  67.3762851  15.4290971  41.9293165  93.6598873  82.9630947  80.3247738
  94.2053127  82.3202610  80.7780933  93.1432915  83.3713436  81.0195255
  45.7450247  84.6572971  87.7931499  46.4441013  84.5236874  87.1530914
  45.0455904  85.0841045  87.2983170  91.3239913   1.9548520  88.4657478
  91.3663440   2.3402318  89.3409157  91.4281516   2.6979932  87.8715038
  93.4035449   3.9907369  50.4168701  93.4000592   4.9364957  50.2693367
  92.7987532   3.6437997  49.7610569  78.4567690  96.9321632  68.1847715
  78.4671259  97.4757862  67.3969889  77.5289011  96.8440437  68.4027815
  10.6494042   7.1142968  78.6725378   9.8873135   7.2645291  78.1131792
  11.3030049   7.7398404  78.3599091  52.8341071  14.9080094  74.9228430
  52.6361220  14.3936547  75.7054520  52.0244245  14.8891362  74.4126558
 111.1719555  94.5383167  70.7863998 110.7662566  93.7394714  71.1232901
 110.8628451  94.6011639  69.8826647  92.3385053   8.7823781  59.9135256
  91.9290356   8.8784989  59.0536833  93.2605176   8.9919385  59.7645092
  79.2366319  10.7360944  40.6623650  78.3772759  11.1446198  40.7664871
  79.8461966  11.3544949  41.0651636  52.5954533 102.8461742  80.7813740
  52.2242212 101.9638920  80.7815647  53.4544468 102.7445126  80.3714752
  43.0873775  57.0911694  90.2295589  43.9533758  57.3962069  89.9589539
  43.1824875  56.8967152  91.1619568  72.2100215   7.1761140  67.8186989
  72.6750331   6.3534078  67.6665592  71.5472727   7.2077664  67.1287775
  92.9990039  34.4264019  16.5973779  92.2259602  34.0467251  17.0150873
  93.3346603  35.0525558  17.2388574   1.0965570  71.6655350  75.0289822
   1.3910180  71.8256474  75.9255791   0.1774701  71.4140940  75.1200294
  93.3861825  36.6303909  14.6283170  92.9441712  35.8701027  15.0062295
  92.7071616  37.0740688  14.1200658  43.6824560  87.7662659  80.3685379
  44.5671988  87.5161934  80.1022148  43.5500669  88.6302280  79.9783182
   4.2616323  80.4024220  79.1129589   4.0415859  79.8262930  78.3809137
   5.1130998  80.7720566  78.8792849  66.3081174  97.0538978   0.9369489
  66.7980556  96.2966994   1.2576314  66.8866496  97.7992610   1.0981103
  37.8836966  80.9480095  77.5361443  37.6698017  80.8863068  78.4670973
  37.1929574  80.4506779  77.0982170  59.8595381  77.7994394  76.2725210
  58.9220095  77.6353931  76.1707211  59.9176359  78.4077263  77.0092964
  60.7453394 101.4416790  56.7050171  61.5732384 101.2075615  57.1245432
  60.0890303 101.3334751  57.3933315  62.9617481   2.3847588  68.1619692
  63.8976579   2.3657235  68.3618212  62.9124527   2.1866807  67.2267914
  20.1644969  82.1382236  75.1258373  19.7709048  81.7040443  74.3690014
  20.7377076  81.4753723  75.5109215  21.3138295  30.1755226  28.8449022
  21.8913842  29.7545612  28.2081624  21.3482381  29.6054542  29.6130582
  98.6543565   8.8770207  75.7186222  98.6577897   9.2076215  76.6169119
  98.5417323   7.9310616  75.8119726  38.3266354  43.2409477  55.0645447
  38.8097215  42.7319336  55.7155180  37.7948880  42.5939226  54.6010447
  67.4056959 103.4277821  43.3670521  66.7795849 104.1514778  43.3452272
  68.0527544 103.6905384  44.0216494 105.0163846  95.7752542  35.5821534
 105.5194144  95.7884625  36.3964101 104.2968373  95.1681165  35.7549688
  40.5043602  99.0741444  55.6531811  40.1780844  98.2171249  55.9275961
  40.7196236  99.5217133  56.4714575  60.3785086  78.1988955  89.7681713
  59.6823835  78.3122063  90.4153156  60.5526257  79.0833950  89.4463348
  68.2171397   7.6992139  85.0899410  67.8350835   7.0956429  84.4527817
  68.0700831   7.2780999  85.9368515 108.4132659 104.4489098  72.1931887
 109.1659265 104.1547489  72.7062225 108.3513003 105.3866577  72.3749161
  32.3116685  40.5987919   6.9305917  32.8238536  41.3814247   6.7271730
  32.9660798  39.9300850   7.1325990  25.4590322  26.9560039  12.8567144
  24.5126868  26.8857897  12.7313062  25.8329726  26.6691673  12.0235750
  72.3896456  94.8749352  58.3349943  73.0651855  95.4896259  58.6214161
  72.8367758  94.0295601  58.2942486  47.6547956  69.0783167  78.0711508
  46.7954826  69.4614697  78.2472420  47.4659586  68.2913971  77.5599432
  38.8865185  62.3630333  57.3789883  39.4890618  62.9609346  56.9366264
  38.1238127  62.9024982  57.5875235  53.0289555  68.5289574  53.9856434
  53.5458469  68.6869812  54.7756338  52.4977589  67.7611256  54.1965866
  80.9286499  90.0449944  87.6545620  81.0757732  89.1580105  87.3261452
  81.6210938  90.1786900  88.3017635  60.8520699  80.6111336  88.2206440
  60.5238104  81.4237213  88.6055756  61.2817097  80.8862305  87.4107265
  84.6263842  13.2243356  58.0002642  84.1126733  13.2473191  57.1929216
  84.1124635  13.7350758  58.6257792  13.7107766  88.2089424  79.8928928
  14.5757163  88.3277702  80.2853107  13.5511708  87.2666264  79.9458075
  48.3872747 104.6096897  58.9893818  48.7688732 104.5026302  59.8606730
  48.9396048 105.2662563  58.5650206  44.9364233  76.7570019  61.1708117
  44.5772791  76.7122841  62.0569563  45.8749533  76.8943214  61.2994003
  42.9768753  73.2103777  88.3520985  43.8458061  73.4972620  88.6329651
  42.3898697  73.9110518  88.6361885  47.2868013  85.1454449  80.0718403
  47.3535395  84.5529938  79.3229961  46.8283510  85.9129906  79.7298908
  34.7613025  73.3692122  67.8912735  34.7062588  74.2897558  67.6347542
  35.0586295  72.9178047  67.1012974  57.4364853  78.0036020  71.6836834
  56.5898418  77.8674936  72.1090126  58.0545759  78.1050873  72.4074888
  77.9164125  39.0948475  23.1424638  78.0336476  39.9628628  22.7564069
  78.7837316  38.8604629  23.4727022  55.3903961  83.5283184  39.9572015
  55.1624203  82.6088047  40.0941277  56.2127447  83.5009289  39.4680953
 106.8526253  44.3799580   8.4634801 107.4423060  44.0192211   7.8013822
 105.9853420  44.0648544   8.2090112  58.0294610  25.9868181   7.8544828
  58.6556150  26.1775053   8.5529062  57.2355081  26.4565981   8.1097623
  55.0148869  74.3285608  63.7900543  54.3404293  74.6014786  63.1680822
  54.7214985  73.4721375  64.1010094  24.8887206  10.1562441  19.9683019
  24.6666528  10.8622444  19.3612787  24.0597249   9.7031677  20.1223012
 105.4338646  87.4823284  81.5873623 104.7202015  88.1147671  81.5041733
 106.1748028  87.9978275  81.9059753   8.9260722  24.9636019  28.5947725
   9.5501901  24.2412603  28.5245439   9.0374375  25.2904165  29.4875261
  32.2631693  74.6930742  64.4373894  32.4206638  75.3835726  65.0813103
  33.1047845  74.5813465  63.9953136  39.2026281  74.7253799  90.1648426
  38.9603353  73.9598370  90.6858635  40.1537418  74.7849512  90.2546501
 107.0064452  94.1419888  84.7751427 107.9261183  94.3474579  84.9431133
 106.6987237  94.8579407  84.2193127  98.3537612  28.2290447  22.9037496
  99.1511616  27.7650059  22.6486894  98.6248669  29.1432751  22.9868909
  15.3646661  12.7178944   6.9006082  15.3125335  13.4325302   6.2659284
  15.6315614  13.1412256   7.7165624  28.7102033  35.2927292  31.7684957
  28.8156272  34.3645466  31.5597078  28.4899856  35.3052032  32.6999303
   6.4042665  30.6685722  22.2176572   5.7824231  30.1397312  21.7177888
   5.9262467  31.4727676  22.4201413  20.3814387  76.3179636  79.1530943
  21.1852551  75.8896732  78.8586760  20.4248190  76.2779284  80.1084709
  60.7472086  86.5001583  82.3421478  61.0772324  87.1704960  81.7438507
  60.5590773  85.7488060  81.7797375   0.8117224  44.9638546   0.5030176
   1.1832381  44.4776714   1.2391111   0.2918030  44.3166626   0.0265046
  28.2817460  48.3005035   2.7814599  27.4968530  48.0059612   3.2434293
  28.5622121  49.0810097   3.2593366  16.8366290   4.5893562  18.9249250
  17.5239469   4.1044367  19.3817350  17.1162654   4.5961416  18.0095121
  48.3796883  68.8448000  61.9923496  48.7699842  69.6994257  62.1754217
  48.8893223  68.2305956  62.5207949  35.3283525  89.5473385  36.6239572
  35.1022053  88.7036705  37.0155120  34.6105838  90.1283741  36.8758225
 104.1800647  83.3648972  11.5411779 105.0174861  83.1565145  11.1270067
 104.0349774  82.6500682  12.1610185  29.4876720  38.4707344  19.5467016
  29.9174167  38.1817902  20.3517267  28.7272359  38.9687622  19.8466035
  67.7392297  36.9024381  83.8440609  68.5916285  36.4870080  83.7134266
  67.9474931  37.7881059  84.1414547   5.7981998  82.0283699  70.2083349
   5.9744591  81.2780380  69.6407366   5.7170445  81.6519356  71.0846615
   8.9728677  92.6945686  70.5629444   8.6840087  93.4034920  69.9882936
   9.5815718  93.1128025  71.1718750  41.4539528  74.8692131  46.5607357
  41.5629959  74.4558954  45.7042837  40.5265856  75.1034880  46.5972948
   8.8569427  84.7379017  63.4862041   8.8391125  83.7927628  63.6366367
   9.2499715  85.0994968  64.2805672  57.0152764  19.7846421  85.1849461
  57.3081450  20.4969796  84.6165848  57.7697520  19.1983804  85.2423096
  29.5414662  60.7985067  86.1262894  30.3677535  61.2390232  86.3248634
  29.6888852  59.8873138  86.3797188  50.7136345  75.9307575  58.9390278
  51.1926985  76.6223288  59.3956041  50.8955622  75.1390123  59.4452572
  63.5047245  92.2913361  46.7102242  63.4160471  91.7882919  47.5197411
  64.2749596  91.9195843  46.2803793   0.2380777  59.9461258  17.0068189
   0.8163787  60.4656494  17.5652906   0.6239439  59.0701569  17.0116254
  29.8095989  88.9831543  78.0266571  29.5337820  89.5409679  78.7539864
  30.4126120  88.3540154  78.4226274   2.4977375  31.0596741  20.0951978
   2.0782114  31.0955990  19.2355844   3.2768823  31.6082561  20.0045797
 110.7328399  82.8730679  81.7599392 110.1461626  82.1285248  81.6269207
 110.1473807  83.6196041  81.8870640  35.5696273  82.9621887  53.2046747
  36.4585614  82.6339531  53.3399057  35.1425838  82.8542519  54.0545034
  41.3815212  85.4354763  83.9682293  40.9280777  86.2700748  84.0867615
  41.8351746  85.5262566  83.1302643   8.7942935  21.0735262  18.4069368
   8.5122777  21.8908728  17.9962751   8.4995080  21.1473740  19.3146154
  36.5464164  26.9270122  27.6711961  36.0103560  26.4105308  28.2729551
  37.3892308  26.4736641  27.6519033 104.3145128 103.9759731  82.6074409
 105.0037470 103.3823013  82.9053497 104.5298900 104.8157692  83.0131245
  20.3111268  53.8495052   8.0573102  19.3645764  53.7158573   8.0081960
  20.6385375  53.0768097   8.5177251 103.4567408   3.3209142  49.6553802
 104.0111165   2.9340848  48.9776897 103.9458232   4.0865525  49.9567461
  39.1278529  70.7722425  53.9076614  39.3007541  70.4444981  53.0250978
  39.4748807  71.6643143  53.9041376  84.6867726  11.8070114  22.1718713
  85.3289756  12.5147713  22.2255536  85.0031755  11.1490477  22.7909108
  66.3677935  15.2956590  77.1293592  65.7845979  14.6506604  76.7292404
  65.7827501  15.9846124  77.4444675  25.3391266  74.3578148  71.1372757
  26.2282443  74.5668221  71.4236546  24.7800827  74.6559620  71.8547821
  98.2808003  18.7452448   0.5997487  97.8380522  18.7947882   1.4469453
  97.6441488  19.0943230  -0.0239924 101.3979063  31.7986286  26.3465234
 101.7852673  32.4993122  25.8219167 100.9320125  32.2540367  27.0477887
   6.9613410  39.2262543   2.5392457   6.8412734  38.3311642   2.2220155
   6.3317395  39.7444904   2.0379850  36.8537831  91.8332386  85.2011204
  37.6009393  91.5848827  85.7454586  36.5773010  92.6819801  85.5466938
  56.2624121  88.2301235  71.0484505  56.3817072  88.0980587  71.9889593
  55.3908777  87.8789139  70.8659172  64.3047667  85.5047226  82.0453739
  64.3628168  86.4587116  82.0979023  63.3675766  85.3256321  81.9689846
  30.2303648  55.7183361  88.8780403  29.5552850  55.1972818  88.4432983
  31.0229349  55.5591202  88.3654785  28.0065536  83.5429573  83.5800648
  27.3734879  83.4957123  84.2964649  27.4856663  83.3980370  82.7901936
  12.7720829   0.4939183  61.4017630  13.0371472   1.4135941  61.4151335
  12.3543640   0.3774270  60.5484343  16.2326480  70.0033081   7.9519292
  16.6027213  70.8320320   7.6478025  16.4149095  69.3854511   7.2439309
  17.4715801  43.8808736  89.5788956  17.6557728  43.1799611  88.9535713
  17.4800202  44.6800908  89.0521908  80.5328751  99.6885490  83.0740356
  81.0995483  99.0606403  82.6258945  80.5524826 100.4678249  82.5185394
  96.0989484  97.5768841  17.0216008  95.3907261  98.0076683  16.5429803
  95.6854186  96.8142498  17.4260827  85.7682185   8.0882367  69.2325401
  85.1793485   8.6443814  69.7426128  85.5760197   8.3084592  68.3210611
  18.0520345  32.3293198   2.7436467  18.7079860  32.2900761   3.4396478
  17.5601436  31.5129269   2.8318044  23.4065338  13.7484368  55.9423447
  23.7227532  13.2362374  56.6865826  22.4901577  13.4894093  55.8453846
 109.0161476  30.7310665   3.4932920 109.5480427  31.5268314   3.5016366
 109.5406994  30.0974834   3.0037519  35.8249974  94.9638939  45.0636673
  34.8764420  94.8357296  45.0708437  36.1654925  94.2060184  44.5883512
  43.5911752  84.0610302   9.9853536  44.5071221  83.7883461  10.0392743
  43.1013681  83.3316505  10.3652593 105.3336434   8.7751779  83.7767315
 104.5015197   8.3047780  83.8270760 105.1102643   9.6807393  83.9918804
 109.4539122   8.7591847  74.5641470 109.4424109   8.7516507  75.5212498
 109.6610217   9.6649846  74.3342304  53.3889198 101.3385677  87.1794796
  54.0730715 101.6892815  86.6092491  53.4618664 101.8513584  87.9844379
  76.9275236  90.4354286  75.8222246  76.7839146  90.6167030  74.8933792
  77.6688719  90.9910583  76.0628605  80.9022479   2.7483376  73.5534477
  81.5727668   2.5707921  72.8938150  80.2843337   3.3335694  73.1153679
  76.9507103  16.7115125  83.3892155  77.1250777  17.1438416  84.2252350
  76.1011700  16.2877187  83.5113335  21.6838790  53.5503471   5.5046865
  21.2169171  53.8808906   6.2720987  22.3703528  52.9891861   5.8653661
  89.9158478  89.5023918  51.1474514  89.0204239  89.5889759  50.8204126
  90.3618145  88.9721203  50.4870367  80.5083041  22.8488263  40.8839512
  79.7670941  22.6915559  41.4688444  80.7954888  21.9744595  40.6208134
  85.4847813  98.7701607  65.4722548  85.7656479  98.0281353  66.0077381
  85.9418488  99.5228672  65.8474207  60.2755833  86.9541168  45.5729246
  59.7037983  86.6954041  44.8501778  61.0809183  86.4565754  45.4311085
  50.3052044  82.2477341  83.9304733  49.9898529  81.4950180  83.4302711
  50.5579805  82.8882408  83.2655811  82.5447306  16.6417301  11.4124128
  82.5702480  17.4633062  11.9029161  82.6095441  16.9081819  10.4953309
  73.8855028  50.6249475  83.8288975  73.9594793  51.3621283  84.4349766
  72.9436302  50.4743576  83.7487602  17.3165942  36.8635643  17.8380891
  17.3388005  37.3922527  17.0404455  16.9601441  37.4507130  18.5047551
  97.4520683  66.8502760  79.5145512  96.9863892  66.6173506  78.7113571
  98.3061504  67.1613836  79.2145872 110.7829909  17.1366033  67.2286177
 110.5425505  16.2172803  67.1134281 110.2089982  17.4484452  67.9282761
  99.3569312  33.6820019  14.0566655  99.9428377  33.8285816  14.7992727
  98.5937199  33.2463634  14.4360944  41.9793368   8.8398636   2.2131845
  41.7550612   8.2905519   2.9642984  42.2855235   8.2230795   1.5483114
  34.3804503  63.1113041   2.4454423  34.4828988  62.2929466   1.9596216
  33.5351993  63.4563721   2.1578332  25.4235221  65.2768791   2.5235673
  25.8289195  64.7018993   1.8745061  26.1286546  65.8632648   2.7977487
  67.5278664  87.4979210  57.4667978  67.5791025  88.4093189  57.1787882
  68.0047464  87.4817848  58.2965899  67.1495199  69.9809551  83.5028172
  66.3745070  69.8037434  84.0359020  66.8193674  70.0181532  82.6051235
  87.7264314  16.3632974  48.8647938  87.8407149  17.2508630  49.2044783
  87.0170026  16.4404973  48.2268429  67.6696777  82.9830170  86.4762402
  67.4636173  83.2268047  87.3786545  67.2430944  83.6541557  85.9434700
  46.8451977  92.9023361  34.3967533  47.0762062  92.2087193  33.7788820
  47.6867485  93.2417393  34.7014260  58.6445379  64.5615149  80.6858158
  58.9228201  65.0887728  79.9369574  59.4605589  64.2375422  81.0671043
  78.9062600  16.1370572  74.5537615  78.2518964  15.4522332  74.6918344
  79.6052556  15.9289082  75.1736927  56.2834454  72.3589563  58.6905670
  55.6217527  72.9175520  59.0984488  55.7912111  71.8133211  58.0771971
  45.0677204 103.6861038  79.6672487  45.6509924 103.0718613  80.1130486
  44.6294260 104.1573811  80.3757858  95.8886728  56.2106979   7.9171773
  96.4796409  55.9684933   8.6301442  95.1024017  56.5338791   8.3571359
  63.3372307  79.0766573  80.8260059  62.8144836  78.5863256  81.4604664
  64.2210627  79.0775251  81.1935329  53.7629510  74.4265831  21.1889097
  54.1926957  75.1476753  21.6488954  54.4435502  73.7593353  21.1006471
  10.7710029  73.7675846   5.5448648  10.6525518  73.2444179   6.3376447
  11.3586808  73.2453525   4.9988481  43.5162545  10.5975902  17.9614183
  44.3617345  10.7756842  18.3733388  43.0175210  10.1293934  18.6309549
  65.6171255  17.0368775  49.8342705  65.7454781  16.2620362  50.3814125
  65.6813721  17.7730283  50.4427004 111.1272297  69.5686615  17.1092912
 111.5731010  70.4141987  17.1591970 110.9494981  69.4462765  16.1767312
  90.7453918  81.1691189  80.8965492  90.0029278  80.8397961  81.4030170
  91.3117027  81.5866375  81.5455532 107.9925499  12.6407612  17.7928277
 107.7466068  12.3546875  16.9131109 108.4661755  11.8959654  18.1632253
  22.4137163  68.1450224  69.0019464  22.5405478  68.4868956  68.1169224
  21.5534139  67.7261734  68.9759064  44.3100119  64.9292088  61.2173748
  43.5782051  64.6709108  61.7777061  45.0645304  64.4646692  61.5794992
   6.3885876  13.3626183  86.8844032   5.6249329  12.8107461  87.0532036
   7.0194432  12.7770242  86.4656734  23.5394145  49.5137108  34.0850755
  23.2611133  49.8090637  33.2181569  23.5278274  48.5583008  34.0277501
  58.6083078  99.5103359  64.1126490  58.5094786  99.3605423  65.0528765
  58.3891249 100.4343891  63.9929962   6.5575505  41.2834633  10.4148027
   6.9069100  41.8246353  11.1228296   6.9267655  41.6640747   9.6179029
  40.9278394  41.9353092  13.3606931  41.6190482  41.9339836  12.6985284
  40.1186896  41.8198765  12.8625223  16.5839064  91.8411636  87.3107338
  17.4420393  92.2326183  87.4738312  15.9589016  92.4958897  87.6220703
  37.8547193  47.1294105   7.2844907  38.3620549  47.7699268   6.7859098
  37.4727059  47.6333797   8.0030366  33.7756658 104.3680191  82.9152203
  34.7303486 104.3160152  82.8693199  33.4791946 104.1022110  82.0447731
  43.0118370  81.1208153  57.7246284  42.6195097  81.9399834  58.0267525
  43.6813831  80.9204006  58.3786726  55.1942826  29.9853027   5.0838300
  56.0383512  30.4125774   4.9381658  55.0570680  29.4527138   4.3004056
  93.5740762  34.1819390  60.5142260  93.4715180  35.0993165  60.2609921
  94.3754868  33.8999089  60.0732851   4.5832349  41.0734260   3.8766691
   3.8000632  40.5267704   3.9402505   5.3009749  40.4943741   4.1331312
  77.1863317  98.1437302  86.8683338  77.7176666  98.9349461  86.9572353
  77.6812649  97.4693298  87.3335838  60.7876015  92.6249695  54.2270327
  59.9949408  93.0209446  53.8649178  60.9529066  93.1140232  55.0330925
 103.2587819   1.7874059  69.8145103 103.7901454   2.5046166  70.1601887
 103.8031392   1.3928327  69.1331768  15.5408145  22.6276863   3.1726381
  15.5058719  22.4483908   4.1122457  15.5712510  21.7623270   2.7646562
  63.1592941 101.6000271  79.3374634  63.1175709 100.8534908  79.9351025
  63.5729551 101.2517262  78.5476542  65.2975159   4.0073880  35.2729082
  64.5758180   3.6103257  35.7604814  66.0656957   3.4928998  35.5207682
  26.1845875 102.4522305  30.3024387  26.3394332 102.2044086  31.2139440
  26.5240169 103.3447552  30.2359200   5.2808572  47.9228962   2.8966924
   5.0989200  48.4599865   3.6678335   4.9664928  48.4471310   2.1600934
   6.9568058  10.1276406  56.0719109   7.9019161   9.9963674  56.1477947
   6.6645619   9.4305715  55.4846096  70.2797937 101.0956478  86.8321609
  71.1148548 101.4035225  86.4798641  69.9078703 101.8611145  87.2703075
  69.9219513  76.5423489  68.3582926  70.6746483  76.6842270  67.7842283
  69.2559195  77.1486664  68.0342245 109.0159282  78.4970558  20.6570264
 109.0849743  79.3759907  21.0297891 108.4282217  78.0303944  21.2512132
  54.4103098  72.6732540  87.5190258  54.8863697  72.4913549  86.7087746
  53.5056305  72.4275637  87.3255920 107.3743972  32.1271313   1.4002057
 107.9584369  31.6852653   2.0165464 106.9138083  31.4159668   0.9548494
   1.7304970  65.2415836   5.2491399   2.1894527  65.9015453   4.7294732
   1.9420482  64.4112003   4.8225900  93.6929469   0.9397515  49.0248537
  93.2497172   0.2777490  48.4942532  93.7435965   1.7080029  48.4561205
  30.3630353  68.9310635  10.4277726  30.0565864  68.0931652  10.7745286
  31.0116817  69.2309940  11.0645791  95.5298428  26.9969186  62.5070524
  95.0075106  27.7897366  62.6288700  95.3327327  26.7151364  61.6137552
  72.3367505  14.0411004  73.5917330  72.9113822  14.3916139  72.9111671
  72.8606849  13.3662995  74.0234375  79.6161132   8.2876405  79.6942091
  78.8277917   7.9395684  80.1109028  79.9761681   7.5469121  79.2064476
  51.5459852   0.6459245  72.8322077  52.2544591   0.4318341  72.2251987
  51.9791488   1.0988339  73.5557222   9.3855287  25.3151644   2.2182199
   9.1560937  24.3880117   2.2812864   8.5540820  25.7758510   2.3308870
  99.6832280  14.5632657  62.4022770  99.5145087  14.0164956  63.1696129
  99.8676925  15.4308137  62.7622414  20.0608182  63.3207607  69.3411827
  20.7045293  63.0368280  68.6921453  20.5045319  64.0125704  69.8318386
  53.8334703  99.1063309  52.2464275  53.5163164  99.8870087  52.7005100
  54.7872114  99.1734695  52.2922564  11.3904525  72.9898441  23.1228372
  11.9413758  72.8810680  23.8980027  10.5096580  72.7632034  23.4212705
  39.0257646  55.6849659   8.8828203  38.9840938  54.9391067   8.2843324
  39.9182321  56.0179603   8.7887498  54.7915841  53.5173309  12.6731130
  55.0254727  52.7948082  13.2557699  55.5713178  53.6528957  12.1347257
  20.4074241  58.5964859   1.7280313  20.1980687  57.8103817   2.2324582
  19.5575524  58.9970959   1.5451261  58.0758238  92.7417564  60.0509024
  57.1506929  92.9268074  60.2125120  58.2454443  91.9313622  60.5312443
  22.9083873  37.9238403   5.5668184  22.7947618  38.6411751   6.1903116
  22.0536853  37.4938572   5.5380555  53.0795717  76.0165071  50.6851912
  53.9598227  76.0272169  50.3093243  53.1935310  75.6242371  51.5508509
  62.5250578 102.4182320  37.7482963  63.0363989 101.6343498  37.9490232
  61.6256142 102.1020985  37.6628685   6.4435435  41.1582172   0.3026315
   6.2978459  41.1618793  -0.6434134   6.1157228  42.0073879   0.5987378
  84.5432768  77.8418053  36.3546010  85.0306937  77.1057785  36.7246267
  84.2115507  77.5134838  35.5189058  97.7187447   7.9774674  57.7473640
  97.9463534   8.4430608  58.5521317  96.9849734   7.4150666  57.9953861
  45.2451325  45.7138336  20.8234903  45.7912351  46.2258900  21.4199754
  45.7580377  44.9252594  20.6465074  34.0394736  45.4415787  10.0997850
  33.3265687  44.9379242  10.4926225  33.6087800  46.2023533   9.7099611
  52.5959397  43.1239307   9.6842691  52.0962525  43.1882465   8.8703843
  52.5775720  42.1923817   9.9036142   5.8879086   3.3790311  46.5500116
   6.5974518   2.7720841  46.3393116   6.2000176   4.2292031  46.2401104
  87.9940128  90.3932190  81.3896847  88.6737823  89.7565269  81.6105366
  87.1716690  89.9387074  81.5724182  90.7753369  59.4190586   3.2277795
  90.9588084  59.0352524   4.0852567  91.1631105  60.2932346   3.2687208
  45.9895992  68.0633974  75.0171709  45.0986338  68.2472706  75.3148222
  46.2609720  67.3018646  75.5296755  19.9824430  57.4106396   6.0551759
  20.0161077  57.1024692   6.9607850  20.6797887  58.0638779   5.9983846
  84.4567590  48.2210931  76.9740200  83.6871533  48.5238847  77.4559593
  84.5590691  47.3062714  77.2364616  21.1736680  60.1334179  34.3465921
  21.1047507  60.4505432  35.2470990  20.4349185  60.5389011  33.8926622
  76.1463456   6.9329270  74.5667839  76.1091428   6.3411626  73.8153410
  75.3559308   6.7331418  75.0683403 109.1310248  54.8625744  13.8995191
 109.7518835  54.1762436  14.1439077 108.2743272  54.5043838  14.1319104
  59.0615797  93.5203934  50.4871130  58.9190340  94.0518570  49.7038698
  59.7929430  92.9470634  50.2576923  86.8457465   1.3206014  70.8129930
  85.9840827   1.4570435  70.4190922  87.4504285   1.7824944  70.2322674
  28.6875535  50.5273903   4.4999238  28.1371594  50.8918751   5.1930734
  29.5833589  50.6686867   4.8061773  77.8585720  85.6072426  81.0709763
  76.9973183  85.7960415  80.6983662  77.6933718  85.4841518  82.0057392
  91.8134312  22.1081456  80.0221443  92.1816258  21.6984948  80.8049965
  91.5115695  21.3740643  79.4871330  31.7958499  42.5881946  20.5933591
  32.5453807  42.1584976  21.0054132  32.0463038  43.5107029  20.5433961
  52.2922612  54.2023075  13.4608766  52.2119332  54.5836342  14.3351671
  53.2353593  54.1104591  13.3253690  31.8767072  71.0347832   2.7205392
  31.6390992  71.4562500   1.8946191  31.0401488  70.7737911   3.1056043
 106.7678313  19.0560254  69.1495562 107.4203782  18.4160623  69.4339132
 106.5333800  19.5297917  69.9475622  37.6543332  43.1728447  15.3816243
  36.7997790  43.5689152  15.2110597  38.1935741  43.4363163  14.6359559
  62.3824835 103.3222961  71.3260412  63.3368158 103.3436775  71.2551308
  62.2066736 102.6584530  71.9928551  17.7672192  19.4717034  87.8258610
  18.0194660  20.3727063  88.0278397  18.5645767  18.9618882  87.9692078
  18.2451631  53.9438999   2.7929136  18.2257558  54.1103638   1.8504926
  19.0328027  54.3932903   3.0993387  74.6436076   8.3468636  67.1594143
  73.8514595   7.8251943  67.2882557  75.3371601   7.7005299  67.0272303
  26.9860316  37.2031391   2.5061532  26.5843583  37.7532471   3.1786653
  26.9594384  36.3191879   2.8724214  27.1738101  50.9152306   6.6474649
  26.4835549  51.0299862   7.3006173  27.8138352  50.3447330   7.0730611
  86.8377929  24.5887097  79.3346119  87.0188193  25.0403603  80.1589108
  87.3689799  25.0512227  78.6864138  86.3995890   3.1949815  81.0404015
  87.0238356   2.4922761  80.8594131  86.6728978   3.5457047  81.8880558
   9.5777603  19.8593339  58.1609058   9.1755387  20.6939801  58.4013748
   9.4864556  19.8148831  57.2091055  73.6278276  19.1917333  78.8475847
  74.1878347  18.8840112  79.5602751  72.9188566  19.6621522  79.2861080
  87.7348571   3.9166459  74.8965502  87.4446540   3.0593404  74.5850420
  87.2563224   4.0486726  75.7149696  12.0148421  13.8615168   7.9223176
  12.7009917  13.8820923   8.5894033  12.2195865  14.5973385   7.3453637
  59.0870285  82.3550987  50.8394098  58.6135483  82.8450012  50.1670694
  58.6624718  82.6036644  51.6605043  84.3131261  14.1281899  74.3831491
  84.7352080  14.7535142  73.7940454  83.6118178  14.6282586  74.8006725
 102.2156529   1.7546567  75.7443476 101.9473080   2.3671254  75.0594378
 103.0066256   2.1439179  76.1172724  20.6503917  22.7642715  10.6889077
  21.4403392  23.0998123  11.1127397  19.9346782  23.2535875  11.0945627
  13.3577968  27.0477903   6.3419839  13.0070067  27.2463978   7.2101613
  13.0163194  26.1768711   6.1391755  81.9565487  65.7308102  53.9943218
  82.8090382  65.5279350  53.6091852  82.0879555  65.6244612  54.9364805
   9.3661782  39.1951760  45.0147057   9.8758789  38.4270486  44.7569895
   8.5310646  39.0926179  44.5583248  87.3788981  13.4313020  64.4090843
  87.6856427  13.9921483  65.1215410  88.1564956  13.2796391  63.8718987
   8.1633664  26.3785398  15.6221029   8.2250215  27.3269165  15.7361909
   8.3088113  26.0219324  16.4984151  29.2394948  82.4065590  46.9545269
  28.3473539  82.2985268  47.2841406  29.4743705  83.3043861  47.1889830
 110.9994273  25.9395417  84.9472904 111.0535531  25.3530320  84.1927719
 111.4439492  25.4664811  85.6507492  55.1579618  96.3869762  49.5135307
  55.4626799  97.2930622  49.4647074  54.2032051  96.4552212  49.5168924
   5.4017907  94.5836735  77.8608465   5.2184093  95.5039406  77.6718760
   5.1318932  94.1182041  77.0691872  52.1221542  68.9513350  72.9240370
  52.8420448  68.5732412  72.4190235  52.3766279  68.8218975  73.8376665
  88.0275254 100.7907418  20.6944391  87.8314881 101.6723374  21.0116121
  87.2323518 100.5187110  20.2362653  26.6908694  18.6046303  13.5607263
  27.4554254  18.5091818  12.9927751  26.7938806  19.4695127  13.9577123
  76.8324356  13.9610204  46.6475153  77.0191006  13.6842450  47.5446081
  77.4684577  14.6549233  46.4736986  28.1013489  62.3714972  89.1376400
  29.0421700  62.2296572  89.0328979  27.7564979  61.5147305  89.3891525
  80.0462775   4.9410733  84.4666290  80.1449351   4.5599278  85.3391075
  80.1133542   4.1952237  83.8704395   0.7802964  19.9164188  22.4174234
   1.6117884  19.7778690  22.8709146   0.2432896  20.4008186  23.0444928
  32.6818229  48.4247196   3.7846299  31.9105102  48.0120361   3.3960363
  32.5302125  48.3749092   4.7284337  78.7008047 101.1204243  66.6709375
  78.4016848 100.2209282  66.8038225  79.6460724 101.0419655  66.5423346
  63.9195614  11.6885480  79.5491648  63.9857106  11.1467084  78.7628698
  63.1832866  12.2748288  79.3747854  97.4225907  15.4794129  85.9311008
  97.8600459  16.2065896  86.3739014  97.7020840  15.5517205  85.0184727
  15.8489371  33.0592525  31.5024396  15.9213353  32.3849857  32.1779844
  16.5893079  32.8939140  30.9187051  86.9181018  86.1149029  40.5116483
  87.4493508  85.3441028  40.7113191  87.1345382  86.3262538  39.6035119
  17.3206330  66.7917431  13.9483568  16.5403462  67.2054756  14.3174287
  17.1332122  66.7189682  13.0125066  95.7877259   3.5866078  48.7025452
  96.5572600   3.2030972  49.1232300  95.1373200   3.6468514  49.4022417
  20.8695031  65.1196468   6.0569879  20.8562327  64.1845024   5.8531400
  21.3424779  65.1771248   6.8871805   0.8301664  26.3035334   8.1760522
   0.1071931  25.7493866   8.4700986   0.6010200  26.5391672   7.2770521
  35.6345273  57.5633896  15.7392713  36.3697959  57.4371517  16.3389989
  35.7881213  56.9325912  15.0359079  59.9125100  37.2086132   3.7980577
  59.6481038  36.3370693   4.0925714  59.5433618  37.8040588   4.4502851
  51.0156345  76.5699720  77.1288919  51.6168690  77.2086239  76.7456532
  51.0487700  76.7442417  78.0695105  58.2684040  96.5968990  69.3411827
  59.1405010  96.2158108  69.4434118  57.7418280  96.1757088  70.0205564
  46.3847446  84.2856026  40.4189825  46.9746351  84.7604084  39.8334742
  46.9410229  84.0101719  41.1476326  63.1526999  12.4293431  32.5507760
  63.8551764  12.8719148  33.0271053  63.3041100  12.6580151  31.6337061
  50.4734278  68.2845163  80.2886677  50.8400822  67.5480652  79.7993469
  49.7530460  68.5997963  79.7428799  88.4220366   3.9060315  63.8008690
  88.5706620   4.7953328  64.1222477  88.9953570   3.3585462  64.3373394
  65.7129908  98.2970238  68.4013510  65.3884411  98.8634586  69.1013908
  66.6608715  98.2733345  68.5324764  59.1320562  87.7987766  90.3539276
  58.3933735  87.1957016  90.2709866  58.7342978  88.6691475  90.3320312
  95.2242236  28.1457337  58.3885050  94.6264558  28.8892278  58.3102560
  95.5588536  28.0130776  57.5015688   6.3520433  75.4426277   3.9392587
   6.6008950  75.5311764   3.0192300   5.6532289  76.0852802   4.0612813
  81.8650246  45.1755953  83.5167217  81.4535904  44.4435549  83.0572987
  82.8040314  45.0419998  83.3876896  89.1927342  12.3839291  69.8763323
  89.6509127  11.8113812  70.4915524  89.1479831  11.8772420  69.0654707
 110.1012759   0.9977921  80.2484417 109.9806933   0.2268418  79.6940708
 109.4983821   1.6483125  79.8884630  37.6498462  35.6631363   8.6623308
  37.9887534  34.9189079   8.1648370  36.7817498  35.8232868   8.2922098
  63.5687284   6.2708291  73.0182791  63.2786088   6.0454759  73.9021826
  63.5126929   5.4488667  72.5309610 108.9282803  10.0140866  77.6826096
 108.6017518   9.1269406  77.8328705 108.2977300  10.5800256  78.1279659
  33.0359555  25.2049578  10.4744359  32.3296405  24.7276199  10.9097501
  32.6024247  25.6805313   9.7658368  39.7567201 100.4181194  72.7075529
  40.6202459 100.0067329  72.6712704  39.1416097  99.6847439  72.7019835
  75.2477603  41.9544228  83.2124615  75.6012921  41.9086083  84.1007996
  75.4477935  41.0997495  82.8306961 109.8915705  21.6012705  19.6998330
 110.2739510  21.4721430  20.5677816 109.0378198  21.9988335  19.8709604
  45.6054497  91.5236759  90.9732819  44.9774933  91.2772560  90.2941895
  45.3852367  92.4307346  91.1853695  20.0808644  96.3614464  71.3119602
  19.9761355  95.6427956  70.6884146  19.5580935  96.0991955  72.0696974
  90.5913834  11.1683186  71.8598747  89.9349646  10.7753381  72.4351215
  91.1601786  10.4393109  71.6123629  54.3800545  93.8153458  73.7673807
  53.6108398  93.9393330  73.2113504  54.9489594  94.5560646  73.5578394
  24.9425078  61.6440094  22.1706125  25.8284856  61.6188896  21.8091604
  24.3701316  61.5684593  21.4071199  65.9456587  95.5593586  65.5301285
  65.5232286  95.0568008  64.8335505  66.3376236  94.8970985  66.0993481
  43.6639833  67.9139757  86.8968105  44.6110964  67.9767561  87.0203495
  43.3113289  68.6750603  87.3579121  60.2429085   5.1715573  73.2624817
  60.8988600   5.2535352  73.9547539  60.4225402   4.3210133  72.8618145
  82.9063229  14.3865403  87.9886436  83.7751012  14.7037419  88.2352829
  82.3226456  15.1240167  88.1665993  17.3601247  76.4859474  10.2471372
  18.0156804  77.1713627  10.3762933  17.4091722  75.9547890  11.0419294
  56.4876795  71.3201857  90.8387566  56.0962343  70.4855919  91.0965538
  57.1991301  71.0780716  90.2459240   4.8443128  29.8389233   1.5531465
   5.2945281  30.6796158   1.4707872   5.3611041  29.2369926   1.0175725
  75.4650927  83.9080811  84.6405220  75.2991152  83.5460377  85.5109406
  75.9022617  83.2007980  84.1663074 107.4764542   7.8293332  49.1266441
 106.8177132   8.0437573  48.4661007 108.2354264   8.3623609  48.8898516
  84.9195103  11.8258580  60.7114267  84.7752576  11.3904771  59.8712730
  85.7198291  12.3350152  60.5830431  44.8212099  76.4776230  78.1797934
  45.3968811  75.7314014  78.3470821  44.9663687  76.6901541  77.2578430
  16.7408272   1.9578561  69.5208597  16.5511223   2.2372636  70.4165030
  17.5494763   1.4509782  69.5942879  93.1942844 102.0691204  66.5788698
  94.1356850 102.2337341  66.5248871  93.1118965 101.1193657  66.4928341
  74.4653511 103.0728340  58.0899906  74.6748972 102.2829151  58.5883284
  74.6588373 102.8413105  57.1815920  14.8663999  45.6261528  13.7811681
  14.9140645  44.7680557  13.3597108  15.0206758  46.2502277  13.0719777
  61.9357920  75.6114006  67.3644352  61.4025116  75.4945850  66.5781784
  62.7129412  75.0747395  67.2086525  81.8623118   5.7360372  19.7501504
  82.4721436   6.3386735  19.3245077  81.6120772   6.1808022  20.5599642
   7.7026397  97.8093624  62.9074478   7.4933368  96.9934177  62.4528503
   8.6527431  97.8921604  62.8257132  35.3822185  39.0736473   4.1061803
  35.8754445  39.7404087   3.6282846  34.4772912  39.1924370   3.8176938
  55.6496859  87.6554680  79.6427822  54.9416876  87.3110199  80.1871490
  55.6059599  88.6038399  79.7648382  97.2877822  31.0919273   0.2732011
  96.8442807  31.2087238   1.1133786  97.4793896  30.1550186   0.2317163
 105.9577374  33.2128438  81.5593529 105.8342891  33.2813844  80.6126213
 106.8781714  32.9718694  81.6640472 111.4522180  35.3359020  16.5423318
 110.7790980  36.0086429  16.4395925 111.3241491  35.0026119  17.4304506
   4.4771052  22.0712078   7.7604600   5.3220082  21.6452444   7.6158067
   4.5472623  22.9058969   7.2971937  20.3996087  88.6347378   3.5561391
  20.1819802  89.3195713   4.1885015  20.5988980  89.1087807   2.7487966
 105.1794181  16.1516560  20.0857278 104.6606431  16.9560802  20.0874730
 105.4860005  16.0624063  20.9880945  17.4338008  50.9250439  25.4783460
  17.2947455  49.9814880  25.5595895  16.5751935  51.3097275  25.6545183
  99.4606356  35.9483727  54.6793652  98.8336186  35.9036359  53.9575100
  99.0716033  35.4095944  55.3682756  96.1491589   0.7214078  67.7126837
  96.9885783   0.5813512  68.1508589  95.5190663   0.8165177  68.4269428
  16.9218823  52.6281365  79.0531778  16.8254181  51.6967114  79.2515993
  16.0262963  52.9659757  79.0482283  31.4267398  51.2671364   5.1934453
  32.1434833  51.7001713   5.6571122  30.9719134  50.7658470   5.8702489
  77.7904654 101.4209175  57.2685623  78.6938810 101.1197472  57.3653460
  77.8641844 102.2531605  56.8014812   2.7288147   8.2088097  88.1649017
   3.5793587   8.1005105  87.7393723   2.7814385   9.0642461  88.5911560
  60.6128359 100.5868530  70.4435110  60.1320314 101.2923145  70.0106287
  59.9461937 100.1121998  70.9400225  91.4644675   8.9467820  76.9752550
  90.7723908   8.4633073  77.4263763  91.3036351   8.7839612  76.0458183
  82.2925238  10.7908257  42.9807329  82.4915414  11.6787347  42.6836967
  82.5098662  10.2338418  42.2332287 111.1453204   7.0981797  79.5433664
 111.4951091   6.4285764  80.1311779 110.5191474   7.5843724  80.0798035
  90.0681877  86.9108105  71.6478062  89.8069668  87.5245667  70.9612989
  90.4085159  87.4664402  72.3490095  58.7338353  55.4841030  12.0882913
  58.9774419  56.3556946  11.7764875  57.9163934  55.2860725  11.6313573
  29.2412711  73.9057148   7.2666761  29.1703607  73.6909950   8.1967851
  29.3353129  74.8580826   7.2472211  38.8836146  53.2485664  16.5213414
  38.9144374  52.2922790  16.4930555  38.8636733  53.5148514  15.6021425
  67.4953508  81.7321587  40.5189800  67.3199606  81.0372829  39.8844552
  67.0212078  81.4632607  41.3058186  64.2846775  99.4979286  87.5712013
  64.0361881 100.3275108  87.1634293  65.1840210  99.3477631  87.2798920
  16.5565110  87.1151150  25.8899041  16.7276383  86.3247669  25.3777524
  16.9872857  86.9544304  26.7294523  13.7484647  83.8118542   0.8064100
  14.4111968  83.1225479   0.8497163  12.9222489  83.3610332   0.9806558
 110.0609975   9.2525777  48.7847900 110.4926019   8.4938916  48.3919191
 110.1693158   9.9507722  48.1390190  91.0624501  72.8828037  20.4048082
  90.4450962  72.6237381  19.7207090  91.9030401  72.5276268  20.1158639
  40.7809163  80.5226314   9.4288083  40.4681541  81.1696995   8.7965795
  41.0743667  81.0417450  10.1775667  71.0538054  87.9183292  84.7719002
  71.3762808  87.0170975  84.7682190  70.1084471  87.8339481  84.8960209
  10.9324933  79.2745006  23.8122674  11.6972066  79.1377628  24.3715116
  10.8159782  80.2244079  23.7939092  49.0463924  72.7536488  79.9224758
  48.8592958  72.6563025  78.9888000  48.4697151  72.1202230  80.3496170
  22.3260547  95.1561344  17.0941659  21.5020467  94.6831978  17.2106954
  22.0989896  95.8985794  16.5343114  73.6985540  94.1122341  79.8578310
  73.9581680  94.4996166  79.0219069  73.9156961  93.1841850  79.7694588
  20.9332229  63.5783470   0.8549329  21.5278388  62.9680050   0.4188844
  21.5084268  64.1556538   1.3570138  57.7914572  83.0952454  65.3938866
  58.4189081  83.7858391  65.6074810  57.2184753  83.0471706  66.1591387
  76.6635065  11.1369523  69.7484016  77.0394497  11.9874581  69.5213938
  77.3527818  10.5067452  69.5386982  98.2021336   1.2714681  80.1657772
  98.6971431   0.8839425  80.8875942  98.4470992   0.7509717  79.4007254
  32.1731568  38.9535988  11.1375829  31.3467885  39.0666569  11.6072389
  32.7558662  39.6118248  11.5162870  75.9408903  83.2304096  66.6683531
  75.3922415  82.9829979  67.4126673  75.3881454  83.8117981  66.1461496
  81.4651966  68.4323931  53.1021881  81.4443779  67.7281904  53.7501860
  82.3329449  68.3656263  52.7037144  92.6428084  14.0967473  84.4873238
  93.0105691  13.6724099  83.7121391  93.2812218  14.7722348  84.7161770
 109.0088992   0.3530892  59.8833132 109.4756465   1.0676869  59.4500303
 108.6600690  -0.1752082  59.1653633  48.5024549  70.3231323   3.2889196
  48.1952954  69.6175850   3.8582059  49.4566346  70.2504146   3.3109018
  51.1170007  32.9406822   3.0602380  51.3254739  32.0754230   2.7079507
  50.2124597  32.8641022   3.3638212   2.7881571  63.4648427  81.0069180
   2.7718302  63.9573773  81.8275166   1.8677708  63.3875569  80.7556152
  75.4930000  12.2131165  35.4430652  76.1259346  12.9310998  35.4318380
  74.8137264  12.4829492  34.8249984  39.5927215  91.0631943  82.0375061
  40.2757072  91.1030579  82.7069664  40.0698662  90.9562397  81.2146282
  21.9386245  40.9474266   9.1480562  22.5292779  40.6332386   9.8326322
  21.0657359  40.8789146   9.5348474 105.4060555  71.2868404  56.9315195
 104.6878815  71.0314798  57.5105381 105.3528976  70.6730509  56.1989450
  97.4755001  93.5094738  53.5014343  98.1545448  93.3687687  54.1612244
  97.7698803  94.2796516  53.0152273  52.1771051  10.6864584  16.7151185
  52.9571630  11.2369526  16.6466352  51.5684033  11.0527313  16.0735914
  21.0804033  87.0915318  64.3955374  21.5368271  86.2762356  64.6033859
  20.4687166  86.8527317  63.6990833 103.8216452   8.6146840  48.8602638
 103.4881549   9.1436776  48.1355715 104.4742160   9.1725549  49.2835426
   0.3907205  55.8729351   9.6312066   0.3957630  54.9732387   9.9579355
   1.2558485  56.2146366   9.8570939  10.7877537   5.2802094  67.9281902
  11.2859055   4.7182092  68.5216856  10.8151432   4.8241528  67.0870638
  16.8923604 104.3253708  72.1243572  17.0267606 103.9556789  72.9969978
  17.0605779 103.5966015  71.5269947 110.7525019   4.4326409  73.0787230
 111.4781241   4.1059312  72.5467777 110.2696853   3.6465176  73.3339167
   7.5043965  75.4386223  18.7224122   7.4753095  76.2715137  19.1932412
   7.2547437  75.6615818  17.8256437  68.1915140  76.5570593  86.8387222
  67.7648020  77.0335007  86.1265755  68.1254864  75.6366253  86.5844250
 108.1678586  41.7221936  81.7374229 108.2623153  41.3533219  80.8592224
 108.3522324  42.6548966  81.6265488  37.7837420  99.6077919  89.2415142
  38.2547092 100.2299404  88.6871147  36.9599223 100.0484657  89.4497299
  48.7351609  36.6414917  10.9710809  48.4341050  37.2568500  10.3025647
  48.0265142  36.0022438  11.0447332  84.5775990  10.4054459  58.3952475
  84.1955190   9.7759637  57.7836895  84.7403912  11.1857327  57.8652620
  98.9176402  70.5328071  15.0880357  99.8479590  70.4076088  14.9007818
  98.5748276  70.9767235  14.3123742  62.1387911  84.4955635  90.1996994
  62.9544640  84.8364925  89.8327160  62.2091961  84.6657753  91.1390114
  59.1889000 104.1689014  49.7768211  58.3766413 104.6055031  49.5202017
  59.7163630 104.1556740  48.9781761 100.4904752   0.0018510  74.0454817
 100.9324317   0.4194745  74.7847366  99.9150758   0.6818875  73.6951923
  98.8034539  23.9647683  67.6647282  99.1546397  23.9456185  66.7744875
  98.5390096  24.8749551  67.7983570  95.7649712  13.2977399  76.9761181
  95.3932671  12.8619870  77.7430487  96.5376048  13.7532433  77.3104668
  17.1925117  62.1063221  18.8111326  18.0606032  62.2202194  19.1980096
  17.3402787  62.1718586  17.8676816  98.4773068  36.7450150  68.2163000
  99.2129187  36.1659058  68.0169487  97.7752213  36.1548146  68.4901094
   7.7551509  43.0953586  12.3676130   8.3880998  43.7777794  12.1442052
   7.0086337  43.5710514  12.7318498  33.9510490  73.8002861   8.3435460
  33.8485766  74.6263874   7.8710195  33.0914689  73.6385715   8.7324067
 110.9136300  28.7989530  85.0636959 111.0026507  27.8476914  85.1220608
 110.2472787  28.9362821  84.3903828  82.8931002  18.7139138  45.8016920
  82.1039347  18.9288434  46.2989378  82.8970961  17.7576169  45.7603121
  23.6899901  68.8847149   0.5288335  24.1834451  68.9686954   1.3447305
  24.3569757  68.7267483  -0.1393012  44.2831136  58.9221180  20.5648061
  44.7632600  59.1498936  21.3609334  44.7482205  58.1628025  20.2135869
   8.4316255  99.6864880   7.8468534   9.1485549  99.7824848   7.2199270
   7.9873801  98.8813103   7.5812265  55.2990580  98.1765270  81.7777824
  54.5968294  97.8954697  81.1911774  55.7076645  98.9147377  81.3257790
  51.6748715  52.4937141  26.0502073  50.7708551  52.7489651  25.8662912
  52.1747209  53.3057678  25.9668466  70.2216530  94.9198437  64.1504669
  70.6046152  95.6069565  64.6958494  70.7464647  94.1423702  64.3410921
  98.1995010  77.7216911  81.1150551  99.0599346  77.5452328  80.7345963
  97.6928902  78.1000471  80.3964233  55.9682370  61.3037384  11.3292524
  55.7823659  61.8338764  12.1042558  55.8502198  60.4004181  11.6230317
   6.1746308  19.9698552  53.5097218   5.7334086  19.4925317  52.8070736
   6.0987374  19.3970021  54.2728138   5.4571530  16.6519841  67.3836899
   5.6030127  16.1184224  66.6024923   5.0016209  17.4295529  67.0610237
  74.8143530  83.2608128  80.3525066  74.4187880  83.0804157  81.2052727
  75.6485891  82.7918530  80.3714275  55.6191254  96.5386772  73.3241177
  55.8585882  96.8799496  74.1857529  54.7558737  96.9135475  73.1494713
 101.2053971   2.6395329  44.6366405 100.2702336   2.7648839  44.4754410
 101.3031392   2.7552422  45.5817795  48.4998465  86.7173290  88.9976692
  48.6723852  85.7863426  88.8572121  48.2023859  86.7714310  89.9058723
  91.9060950  26.1006459  80.0627613  91.3970856  26.6479882  80.6607246
  92.7923446  26.1110410  80.4242611 105.8175425   3.5066327  84.4753170
 105.8968119   3.2389935  83.5597229 105.1665835   2.9094609  84.8439121
  45.5158998  27.8218830  35.5149671  44.9697591  28.3995617  36.0481092
  45.9897805  27.2860325  36.1509916  42.8018523  52.2777737   3.6271974
  43.4263516  52.0726478   4.3230077  42.7811290  51.4898765   3.0840322
  59.3079854  58.0409229   1.5445157  59.9377156  57.6510132   2.1508523
  58.7857915  58.6308659   2.0881292   2.0844837  17.7325543  83.8951778
   2.0541950  18.5314378  84.4215870   2.8296467  17.8606328  83.3081818
  33.3821441  68.8300312   0.2139589  33.8334466  68.0537403   0.5455228
  32.4821378  68.5392464   0.0667402   1.7001625  15.6136235  74.2834473
   2.1940895  14.8015794  74.3967724   2.2919937  16.1881551  73.7977600
   7.3607155  26.6020402  74.1024542   6.8051144  26.1172303  73.4921265
   8.2425591  26.2659940  73.9422607  51.7377472  93.1984043  88.6550999
  52.4602365  92.5727844  88.6017513  51.0979748  92.8803349  88.0181026
  97.5373225   3.5989293  28.9227247  97.7224307   4.3849000  28.4087038
  97.7041726   2.8739938  28.3203483  73.5754442  88.0175400  38.1369162
  73.9263773  88.0818653  39.0251398  73.9461803  88.7711716  37.6777554
  83.0669758   5.6889856   9.3015691  83.0696330   4.8169554   8.9068719
  82.2206113   5.7487619   9.7446557  10.5667901  21.5260816  81.3720322
  11.3860404  22.0005059  81.2306690  10.8404624  20.6617069  81.6789341
   7.9709452  -0.0691398  63.9090776   7.2362006  -0.0940223  63.2960796
   8.5624325   0.5907919  63.5473251   2.2335739 104.0006797  66.8598747
   2.1646567 104.5362335  67.6502323   1.3522358 104.0101566  66.4865351
  20.1561880  16.7105186  55.4076290  20.9704399  16.3405955  55.7487774
  20.3668594  16.9656479  54.5094299  62.3437508  21.9625282  58.6551762
  62.7185353  22.0209718  57.7763414  62.8661164  21.2912250  59.0941715
  86.3904461  27.3868918  84.0851116  85.7702120  27.6765943  84.7541428
  86.4626583  28.1308961  83.4872150  54.0290408  65.5781321   9.2018243
  54.1649084  65.2172986  10.0779363  53.3824544  64.9971072   8.8011190
  64.9298625  68.5650007   1.6172334  64.9497108  68.2403378   2.5174733
  65.6139188  69.2339436   1.5887376   2.8466240  23.1980133  73.2200003
   1.9961654  23.5332012  72.9360962   2.6844853  22.8429008  74.0939760
  91.8129603  83.1451598  54.6719503  92.3108748  82.4405614  55.0865030
  92.2250346  83.9486137  54.9895811  97.8649160  38.2486558  66.0086060
  97.9639932  37.8732347  66.8835211  97.3653146  39.0530872  66.1483240
   7.4304140   6.2452489  35.2523422   6.7283523   6.6807061  35.7357860
   8.2116115   6.3836980  35.7878757  44.1373161 103.8470506  86.7333508
  43.5823540 103.0672926  86.7182636  44.5632747 103.8213320  87.5901604
  84.0197185 105.1377110  67.6280212  83.1877807 104.6871273  67.7732325
  84.4623128 104.6140727  66.9600821  54.3879311  33.2360629   3.0667993
  53.6776762  32.6102046   2.9251310  54.2199831  33.9358381   2.4356576
  41.1129093   8.4875923  45.7595015  40.3311682   8.2456434  45.2629423
  41.5804911   7.6621974  45.8872461   4.1103861   3.9992735  73.0618143
   4.1110834   3.1559169  73.5145617   3.1930253   4.1468993  72.8318405
  13.5878193  10.0683558  58.5934305  12.6877427   9.9365008  58.2955885
  13.5089469  10.6660211  59.3369389  95.5258349  98.2828454  72.8112555
  96.1808971  98.8021127  72.3448992  95.4035381  97.5057903  72.2658587
   2.8019705  31.4223313  62.9257870   2.3083363  31.7473412  62.1728420
   2.3285463  31.7596555  63.6862564  85.6402191  31.5037799  84.1090584
  85.6902631  32.4517202  83.9860344  84.8210057  31.2500048  83.6839485
 110.9357164  27.3695970  67.6408291 110.3924882  28.0490375  68.0401945
 110.7855287  27.4649191  66.7003059 107.7875792  18.3988440  61.3496065
 107.7986818  18.2030809  62.2865105 108.6195450  18.8437617  61.1880112
  23.9524436  26.9685197  64.1434240  24.1211104  26.0467553  63.9481497
  24.7854280  27.4066210  63.9689493  12.2486365   8.9360845  52.0034647
  12.4974668   8.9203680  51.0793066  12.9103589   9.4879746  52.4203253
  10.4531586  15.0081694  57.7029371  10.3852737  15.3100431  56.7971230
  11.2863958  15.3636765  58.0120659  41.0726166  41.2199497  89.2196178
  41.9783735  40.9825897  89.4183540  40.5674696  40.8744287  89.9555969
  22.8444505   8.0783659  78.5011101  23.0558109   7.2316825  78.1078053
  23.1330729   7.9988587  79.4102859  56.5984492  53.0864900  23.4017774
  57.3863344  52.5436734  23.3731386  55.9776788  52.6381067  22.8274652
  87.0451816  22.3755789  71.2038994  86.8481191  23.2157660  70.7897902
  87.9954918  22.3820090  71.3183451  14.0383649  30.8789039  74.1078520
  14.9304748  31.2000990  74.2390203  13.7607217  30.5823350  74.9745655
  59.8052125  77.1577815   1.2154504  58.9731984  77.6274780   1.1573716
  60.2375345  77.5305013   1.9838258  37.0603585   2.5589457  61.7944956
  37.9373240   2.7838379  61.4837170  36.8548775   1.7337069  61.3551903
 106.3570624  45.3781414  83.5283184 106.2707632  44.6374512  84.1284657
 106.4679583  46.1378813  84.0999222  67.6772885  43.1791035   3.5241243
  66.8729763  43.6917911   3.4437200  68.1272797  43.3069227   2.6890107
  29.7402668   8.8638288  70.6547403  29.8046279   8.6715615  71.5902233
  30.4748607   8.3921283  70.2621794  73.0201153  99.9861438  71.4615154
  73.7283721 100.5296162  71.1162043  72.4013638  99.9092040  70.7352543
  18.0753820  65.4594842   2.1028348  18.0413191  65.6712822   1.1699792
  18.8661318  65.8965365   2.4189493  19.6979988   4.6399957  75.3434229
  19.5769846   5.1437640  74.5385599  20.5972505   4.3163082  75.2904654
  13.8673615  26.2806249  69.4573069  14.5886099  26.9075513  69.4025803
  13.3187628  26.4798403  68.6986351 108.0259594  25.8059525  74.8592949
 107.6178115  25.0828028  74.3831635 107.9621535  26.5517855  74.2627287
  60.2969885  38.8620925  80.9066105  60.0761366  39.0201044  81.8244839
  60.8054686  38.0512094  80.9187698  33.2155585   8.6128467  77.8197908
  32.3273849   8.2568353  77.8450775  33.5071921   8.5939914  78.7312889
  56.3915090  59.9539099  24.6175596  55.7155912  59.6257291  25.2105733
  56.4589684  59.2840526  23.9371415 102.5440284  44.1542482  56.0645723
 103.4221520  43.7736368  56.0809040 102.3916080  44.3654299  55.1434851
   4.9234414  50.4571819  68.6770868   4.6911669  50.9080172  67.8652811
   4.0837961  50.2786541  69.1005898  80.4093131  47.6005602  83.1983852
  79.5736798  47.2025490  82.9543781  80.9898456  46.8573284  83.3621597
  88.0409058   8.0900055  74.6156740  88.7861069   7.7939606  75.1384211
  87.7128919   8.8597262  75.0806141   4.0064506  61.1091141  22.7650567
   4.8367004  60.6475476  22.8828546   3.6537485  60.7622526  21.9455930
  29.0851139  77.9623274  10.1738092  29.9292062  78.3874921  10.3253862
  28.7079029  77.8604678  11.0476323 107.4671372   7.6340890  82.2481537
 108.0196210   6.9750756  82.6685047 106.8396648   7.8876936  82.9250526
  41.9860821  64.1926650   7.2870752  41.9574379  64.2014638   6.3303491
  42.6150482  64.8775450   7.5141736  23.8030672  27.3687196  66.8708706
  23.7913489  27.4495268  65.9171629  24.6671653  27.0083475  67.0701075
  36.8352164  44.4982938   0.2981683  36.0584707  44.6714483   0.8300611
  36.8750669  45.2331594  -0.3138903  47.7993934  68.2358507  31.7993280
  48.0997066  67.5088219  31.2539121  48.4397166  68.2831148  32.5092431
  34.7234416  30.5505133  66.1371088  34.4289732  29.8857880  66.7597342
  35.6011915  30.2670121  65.8813524  32.2522926  15.5207968  86.5215874
  32.2292948  14.5643878  86.4902115  31.6282153  15.7529545  87.2092438
  86.6356925 105.1270581  78.7107611  87.2150258 104.5642286  78.1971216
  86.6319386 104.7340265  79.5835400   3.1808352  57.3664331  21.5358901
   3.0808064  57.4083424  22.4869251   3.0042785  58.2584476  21.2369466
  36.3875628  19.9488759  84.4653988  35.9993911  19.9703348  83.5906982
  35.6376028  19.9428809  85.0601673 110.6309542  51.7443323  78.4246159
 110.4532849  51.7440176  79.3651819 110.4947542  50.8360910  78.1548357
  20.8490276  49.3985748  87.0463181  20.9155941  49.3581200  86.0923004
  20.0041676  49.8177195  87.2099018  67.0352535  60.8023117   4.6070405
  67.1688585  59.9327020   4.2300054  66.0950212  60.8460478   4.7810479
  11.2650919  17.7763152  61.4116335  10.6534529  17.4984431  60.7297850
  11.4517581  18.6925697  61.2070227  22.0945263  20.4155588  47.6121664
  21.6091442  21.0663748  47.1051407  22.3175001  20.8647633  48.4274769
  41.6117144  10.2943003  43.8617706  40.9332323  10.0247371  43.2427168
  41.4613199   9.7493833  44.6342230  13.5817122  25.3980088  83.7069130
  13.5248041  24.5549297  83.2572269  14.0902364  25.9516644  83.1143761
  11.2415624  15.8104968  76.5392733  11.4559364  15.6155992  75.6269693
  11.9927287  15.4865348  77.0362902  42.2594261  30.6581545  78.3762550
  42.2785330  30.2976346  77.4897528  41.8502235  29.9729371  78.9047098
  31.4365840  24.9928045  35.0998831  30.7980561  25.1419735  35.7972074
  32.2027564  24.6357918  35.5490518  97.1259996  21.3872766  62.9507732
  96.8131062  21.9379544  63.6684608  97.2137912  20.5162740  63.3379173
  64.0396957  88.2183126   1.8231412  64.1152291  88.2121471   0.8689424
  63.0992632  88.1536106   1.9893857  52.5773709  52.6680467   7.3484060
  52.3851471  53.0887168   8.1864473  53.2745366  53.2015883   6.9669267
 104.9238352  99.9110529  81.6568565 104.5270804 100.0390768  80.7952118
 104.3980674  99.2217288  82.0626068  52.2132127  65.2627508   5.6476613
  52.5494413  64.7734121   6.3984796  52.9937355  65.4973856   5.1457044
  83.7367352   1.8264270  57.0525837  83.3136829   2.5593275  57.4999285
  84.5909556   2.1680169  56.7882872  11.0833609  11.1412740  50.2108622
  11.5829968  11.3911366  50.9881449  10.1701915  11.2940633  50.4537773
 100.7576378  11.6792870  90.8178806 101.2999358  11.1156547  90.2661037
 101.2689932  12.4825501  90.9154320  87.6167599  86.3038972  74.4500923
  87.0730129  85.5778519  74.7557545  87.0176557  86.8574885  73.9492464
   9.2332172  24.0297627  80.4359150   9.5516640  23.1546044  80.6571007
   8.3510065  24.0641737  80.8057213  34.3947959   0.2863331  69.3864870
  34.4676471   0.0745049  70.3171062  34.2656469   1.2345610  69.3660784
   3.7505527  76.1291948  84.7216988   3.2918592  76.8691555  84.3238449
   3.0771871  75.4564992  84.8231411  97.4197908  10.2897692  73.5384655
  97.3362835  11.0493767  74.1148806  97.7540072   9.5945913  74.1052628
  58.3926514  97.5370893  60.6813431  58.1068507  96.9187579  61.3538170
  57.9665331  97.2332070  59.8799038  12.3490322  24.3961763  70.8612204
  12.9235137  25.0230694  70.4216671  11.5343797  24.8777628  71.0049152
  56.2803166  61.0349820   1.3669320  55.5192022  61.6154388   1.3695165
  56.8556397  61.3974003   0.6932184  12.8946567  33.5085678  79.3303537
  13.1352699  34.3788338  79.0125895  13.3767831  33.4116864  80.1515770
  27.6427770   5.8133090  87.4080276  28.0668712   6.2145156  88.1665802
  27.2578263   5.0056392  87.7481937  12.4146068  39.5099640  66.1094999
  12.2382009  38.9234734  66.8451214  11.5510988  39.8237634  65.8409548
  47.6383495  25.2099228  68.9534760  47.2518158  24.4005561  69.2877674
  48.3706474  25.3872871  69.5438194   1.9609652  36.8588853  75.7076740
   2.0903897  37.6939702  75.2580976   2.8431410  36.5793228  75.9523010
  15.6824005  19.6787405  64.0737104  16.5451705  19.2676353  64.1271114
  15.1385057  19.0358472  63.6186314  41.5118217  29.0036440  70.1698685
  41.8267345  28.6923957  69.3212318  40.7368565  28.4707522  70.3478861
   7.6229322  34.1448855  39.0073299   7.0970970  33.4983039  39.4781399
   8.1653523  33.6259079  38.4134650  53.2351892  75.7520584  13.7788602
  53.2231002  76.4510397  14.4326993  54.1075365  75.8044437  13.3883497
  97.3628601  12.9152060  74.9199677  96.7075809  13.2848108  75.5117702
  98.1281777  13.4800208  75.0272274  34.6168613  34.0101957  72.3894358
  35.0363350  34.2864442  73.2042742  34.3691540  33.0987167  72.5446081
   2.3609595  82.3795609   2.2322961   1.7424707  82.1116666   1.5526410
   1.8098097  82.6115064   2.9797384 103.4631195   6.9341475  86.6787529
 103.7913277   6.5572631  85.8623791 104.0985479   7.6146817  86.9008732
 105.5265106  91.0980729  17.3741742 105.7195772  91.5554956  18.1925412
 106.3752235  90.7697801  17.0772954  12.7158594  29.3507671  72.3042345
  13.1828988  29.8098111  73.0023670  12.1666193  30.0231504  71.9011641
  13.2064569  27.8523016  81.7348862  12.6029778  28.2769728  81.1252117
  13.1182206  28.3521414  82.5464344  40.0405264  24.9263024  71.6881037
  40.9227753  24.7265577  72.0011044  39.5305657  24.1425753  71.8929148
   3.1346306  33.4088016  14.3655777   2.5926727  32.6757288  14.0738273
   3.7178624  33.5842466  13.6271393  79.2678252  98.2235507  75.1302004
  79.6534530  98.6965374  74.3927670  79.8398832  97.4662319  75.2544975
  24.0978289  63.4294271  64.4695759  24.3532825  63.2512665  65.3746891
  23.6724758  62.6231575  64.1776228 102.4717053  34.0156245  56.2299681
 101.9091316  33.4585953  55.6919527 101.8634119  34.5179296  56.7720938
 106.9118544  23.7186527  47.3251247 107.8521445  23.8080335  47.1698952
 106.5032610  24.1209483  46.5586805  25.9628599  76.7576484  16.4777776
  26.8852155  76.8283490  16.2318345  25.9143691  77.1616320  17.3442003
  24.1732550  36.9551396  51.5711689  24.6035671  37.4096203  52.2954035
  24.4420505  36.0415936  51.6681862  13.8102233  12.2106552  60.6056833
  13.0023253  12.6155436  60.9212732  14.2291534  12.8911054  60.0786924
  97.5679847   0.6333426  83.7597370  96.8018612   1.1883979  83.6141300
  97.6196989   0.5412415  84.7110939  71.1990214  83.6013499  81.9727898
  71.4247388  82.7356378  81.6324615  71.7626370  83.7121073  82.7384949
  41.5526342   0.8557153  86.8828392  41.1901474   0.4252340  86.1085510
  42.1590614   1.5081087  86.5323162  20.2384472  36.0649681  74.9776602
  20.2209425  36.4432025  74.0985298  19.8602784  36.7429256  75.5376530
  28.0664992   1.3925733  42.4818707  29.0219831   1.4408807  42.5127029
  27.7741647   2.2688991  42.7325201 108.6662670  10.0165033  89.7503853
 107.9787912   9.9174094  90.4090118 108.8356706   9.1252732  89.4450283
   7.1686071  11.3634777  64.9392080   7.1595657  12.3074841  65.0973272
   6.3103330  11.0624361  65.2374887  21.3381886  43.9091444  68.7860537
  20.3970146  43.9486456  68.6161709  21.7017603  44.6441364  68.2922554
   6.0499120  25.9559107  76.4534092   6.7959905  26.1343074  75.8808947
   5.9598029  25.0030613  76.4395189  45.5627702  67.7564398  26.6811487
  45.7644700  68.5612635  27.1584436  45.7663427  67.0541970  27.2989293
   0.7160906   1.2295385  68.3858538   1.2469365   0.8796826  67.6702881
   1.1206479   0.8772513  69.1786051  12.9581761  59.7539330  69.0494442
  12.3296618  59.6846151  68.3308363  13.3066475  58.8680124  69.1491508
  10.0598235  95.2534649  79.8087454   9.8950000  94.3542889  80.0925541
  11.0060926  95.3641668  79.9012184  32.3481178   7.0964402  71.4972496
  32.1381807   7.7681720  72.1460438  33.1691861   7.3918092  71.1037540
 109.0914843  61.0190630  74.7665119 109.8839132  60.4994059  74.9015903
 108.4429120  60.6224012  75.3481007  11.6188765   1.4293334  51.2631559
  12.1464479   0.6880056  50.9659481  12.1818292   2.1921483  51.1311388
  14.2458975  57.4407005  69.2089939  14.0222383  56.7741823  69.8585844
  14.6708691  56.9538641  68.5028648   5.3285915   7.5738710  87.2278786
   5.9688538   6.9267327  86.9320583   5.2553344   8.1891614  86.4982986
  61.8488232  96.9533137  57.7849722  61.2714437  96.3844339  57.2758150
  61.2568942  97.4572018  58.3434963  51.9165270  49.3820772  24.2236062
  52.5793187  48.7758754  24.5544549  52.2833054  50.2508537  24.3877240
  24.5340514  52.2526360  59.7376108  23.6684966  51.9840908  59.4294977
  24.8586774  51.4974022  60.2279902  13.2139564  21.5530968  67.6116276
  12.5654233  22.2558403  67.6539040  13.9967501  21.9248080  68.0181932
  28.2262611  34.8245764  61.3345242  27.9693818  34.4135642  62.1599436
  27.3978972  35.0514102  60.9119272 105.3362348  50.8893490  66.1737633
 105.6705227  51.5754366  66.7514896 104.6277793  51.3103676  65.6868696
  33.6390434  51.0765890  11.9566270  34.0213083  51.0970756  11.0793039
  34.1995935  50.4762561  12.4481698   7.2714597   5.5470473  86.5144920
   6.8803322   5.6269866  87.3844719   8.1340677   5.1640272  86.6739750
   5.4481858  21.2598634  59.5740032   5.4245335  21.0221577  60.5009174
   5.0717533  20.5040026  59.1232252   2.5897279  29.9629569  89.8825073
   3.5189545  29.9694681  90.1121330   2.4769466  29.1669083  89.3630695
  21.9896936   0.9394456  74.5048046  22.0737505   1.8892494  74.4209099
  21.7068052   0.8029736  75.4090071  52.6193397  68.6628024   2.6223489
  51.8888669  69.1113059   3.0483552  53.0080538  68.1275717   3.3142015
  36.9336271  11.4156520  17.8947270  36.6011238  12.0788753  17.2899067
  37.6667833  11.8421268  18.3383846  14.8241897  93.5597137  53.7265682
  15.2935405  93.4144870  52.9050779  14.8406167  92.7091864  54.1653919
  88.0915841   1.5641071  46.8459225  87.6215514   1.3753758  47.6581287
  87.8709086   0.8348635  46.2664938  15.8620930  10.9520364  78.3307838
  16.7928827  10.7916808  78.1753826  15.8367324  11.7940474  78.7853241
  15.8917422  95.6627694  41.6244173  15.3781362  95.3337422  42.3621035
  15.3135343  96.2905607  41.1910725  11.7439985  14.9619555  71.6739035
  10.8611655  14.7493815  71.3711643  12.3171425  14.3948746  71.1579990
 108.2878169  33.3319283  77.3159218 109.1893046  33.0306983  77.4291182
 107.7688878  32.7477860  77.8688431 101.9742020  50.4095554  73.7263632
 101.7320146  50.4132938  72.8003168 101.2097975  50.0448751  74.1723728
 106.5783184  20.0051832  81.1731148 106.6999903  19.2244124  80.6329060
 105.9512182  20.5387974  80.6850243  99.8976401 100.3627235  88.0549812
 100.7597545  99.9481026  88.0878735 100.0791672 101.2752745  87.8301907
   6.0226619  45.9420633  55.8173609   6.1557430  46.7944336  55.4026508
   5.3858715  46.1104393  56.5118980 106.3731568  44.3100262  80.8651161
 106.4440420  44.7097158  81.7319775 107.0144685  44.7795391  80.3317165
 109.4634784  45.7814026  86.4693832 108.8419370  45.0565815  86.5368843
 110.2645300  45.4484701  86.8739891  36.6961432  43.2815933  79.7464228
  36.7503953  42.3796654  80.0623608  36.0224175  43.2572269  79.0669155
  68.3894530  19.0907562   8.9730378  67.4992201  18.8488615   9.2283937
  68.4097478  20.0446737   9.0496179  31.4270926  21.0048199  69.8331308
  30.6367731  20.9240365  69.2991829  32.0379782  20.3729725  69.4538975
 101.7831424  87.3601357  75.3793430 101.4491228  87.8265229  74.6130896
 101.7184428  86.4347104  75.1434755  22.1484590  15.8960366  60.7721615
  22.2063208  16.6301382  60.1606274  22.6716948  16.1699915  61.5254259
  50.0561981  47.4915201   1.1206361  50.3048651  46.6646097   0.7075807
  49.9949806  48.1128082   0.3950425  64.8613644  19.2656040  70.9295177
  64.1877508  18.6465549  71.2110472  65.6722784  18.7570834  70.9372616
  17.5118947  26.3486195  45.1265335  18.3904922  25.9720659  45.0764751
  17.0028055  25.8551121  44.4834852  92.4676148  89.1540114  68.3689117
  91.8061045  88.9865497  69.0401745  92.1104411  88.7545827  67.5757408
  71.5145958  86.3607386  71.8878222  71.3007364  85.8944896  71.0796690
  71.8650421  87.2015170  71.5936947   6.0149713  72.2736660  58.4442472
   6.4601083  71.5507833  58.8864279   5.8397718  72.9080740  59.1392708
  89.9524227 103.3391577  74.9335718  89.6241812 102.4740634  75.1787281
  90.9035376 103.2656098  75.0123358  27.9769564  13.0532587  68.8494587
  27.8745532  12.1870053  69.2436028  27.3221993  13.0778193  68.1516600
   7.5091898   7.6443607  51.6780138   7.3606128   8.3453453  51.0433674
   6.9147134   6.9451433  51.4061213  13.1894302  -0.0100753  68.2901669
  13.4518814  -0.5269850  67.5284863  13.5748732   0.8528385  68.1383610
 110.3074983  94.9922762  68.0599403 110.2945808  95.9146855  67.8045464
 109.4857148  94.8633472  68.5335255 104.5203891  32.5341964  76.9800901
 104.1965469  32.1428347  76.1687994 104.1993459  31.9542313  77.6705980
  96.4560648  34.0882993  31.1827588  97.0190545  33.3164668  31.2423396
  95.8499929  34.0000367  31.9183660  39.4778013  38.0541372  49.2332506
  39.2069769  38.0139518  50.1504612  38.7150693  37.7448988  48.7445354
  79.6959481  98.4073446  63.9593029  80.5263928  97.9382053  64.0399313
  79.0272949  97.7336881  64.0830803  10.3305621 101.6173697  26.3365054
  10.3074022 101.1098725  25.5252457   9.4099326 101.7647237  26.5532088
  96.8656210  79.9804631  24.2755628  96.6904286  79.6103445  23.4103751
  96.8863419  79.2229835  24.8603940  59.5532370  28.9794707  75.4928207
  59.1103697  29.2379093  76.3010979  59.0757179  29.4374418  74.8011065
  38.0482149  31.2881923  70.1549911  37.6891804  31.1737776  71.0348988
  37.6343131  30.5986619  69.6358967  18.0871336  88.1328587  32.2772523
  18.8940732  87.6667074  32.0586606  18.3710842  88.8509873  32.8428384
  25.4279542  56.2481022  83.0347443  24.8524499  57.0026731  83.1598377
  25.0833225  55.5826902  83.6303139 109.8767387   8.8349724  81.4018250
 109.0345841   8.6252862  81.8056011 109.9728530   9.7793454  81.5249252
  33.8931801  74.2888383   0.8395025  33.2322921  74.8263363   1.2760278
  33.4417935  73.4683875   0.6411477  68.8005594  94.8750547  45.0196934
  68.0556861  95.4099808  44.7453785  68.7190369  94.0704051  44.5077133
  38.5471392  19.2354453  52.0181084  37.9132891  19.9300396  52.1970081
  38.7017751  19.2893934  51.0750246  69.7168336 101.9287548  41.5391016
  69.0069745 102.4727735  41.8802404  69.3072668 101.4044527  40.8509207
 111.0510350   7.2126764  70.6098032 111.2795133   7.9048401  69.9893665
 110.2141757   6.8732572  70.2924824  22.6152015  30.6412530  65.5748367
  22.0510292  30.9285498  64.8569250  23.4761953  31.0010099  65.3615379
  86.6003112  74.3239919  83.8405132  87.1668223  73.6473933  83.4696865
  86.8565861  75.1264945  83.3860397  21.4458175  90.8840576  40.6849384
  21.3999028  91.8387905  40.6338596  21.8474097  90.6189719  39.8574805
  51.1366658  65.3366748  13.4066316  51.0979168  64.5230369  12.9039117
  50.3960244  65.8515827  13.0863878  95.0559195  14.5657527  55.0727606
  95.1035424  14.4387352  54.1252232  95.8959266  14.2440450  55.4000568
  44.0952206  17.7508271  77.0145035  43.3411407  18.0082905  76.4841127
  44.7126007  17.3753595  76.3867331 105.5712446  22.7105975  71.5452576
 105.8195504  23.2128477  72.3213482 105.8468529  21.8151188  71.7411852
  12.0069134   2.4935296  85.5170631  12.0151556   2.1724045  84.6153736
  11.8076849   3.4263611  85.4372787  35.9200764  16.4373159  53.1975746
  35.2741742  16.0225785  53.7694407  35.7925415  17.3761892  53.3335304
 106.5076255  16.2766469  68.1062031 106.4637908  17.1229517  67.6611471
 106.6313600  16.4976001  69.0292978  97.1372827  22.4389553  75.1138926
  97.4503370  23.3017421  75.3856039  96.6809424  22.0967364  75.8825731
  10.8809650  56.1975765  57.7001476  10.7814145  55.2670050  57.4992657
  10.9197843  56.2334776  58.6558867  14.7159839  35.7658625  70.0094557
  15.0392938  36.1249590  69.1831684  14.4474053  36.5329027  70.5151749
   1.9447723  33.3448291  22.6507998   1.8311453  33.1651306  21.7175102
   2.6939160  32.8076863  22.9086637  25.5623126  28.8245797  54.1049147
  25.7122445  28.1667066  53.4259796  24.6883702  28.6265874  54.4414473
  16.6848373  56.8789625  80.4319096  16.5882003  55.9493542  80.6386089
  17.6279283  57.0370388  80.4746151   9.4186205  39.0529108  60.1159525
   9.6104646  39.9393487  60.4219913  10.0610030  38.5011792  60.5622339
  24.2439795   2.0114163  62.6179695  23.4111142   1.7315473  62.2381783
  24.6733451   1.1970767  62.8801298 109.9821506  11.7717230  80.9146214
 110.4254875  11.6999936  80.0693130 110.4688092  12.4495852  81.3835526
  59.8852067  40.7651965  10.9892865  60.5437927  40.0785438  11.0941716
  60.1985435  41.4835552  11.5388414  13.3009481  43.8835526  44.8914719
  13.3917952  44.6732712  45.4246902  13.8890350  44.0263319  44.1498566
 105.2587792  52.2492504  42.6443148 105.0626960  52.9503012  43.2658529
 104.8490884  51.4716053  43.0233335  22.4966598  18.2465005  89.5887089
  23.2094789  18.5140014  89.0085697  22.7046919  18.6562014  90.4284096
  42.6854038  23.6168766  78.5636520  41.7684221  23.8587451  78.6935377
  42.9729080  23.2993221  79.4196510  27.3176742  25.1827526  37.1125221
  28.1970549  24.9312711  37.3947930  26.7383814  24.5573187  37.5478196
  10.1228893  44.2115927  80.0996780   9.3107444  44.6352911  80.3774071
  10.7507527  44.4206429  80.7912827 101.5570452  17.1120954  90.0609970
 100.7287046  16.6743445  89.8648834 102.0564761  17.0557129  89.2463589
  53.0144613  77.3977164  16.0767671  53.0602317  77.8916005  16.8954393
  52.1573763  76.9722370  16.1013242  50.4379559  39.0394211  67.4811172
  49.9624872  39.2979574  66.6916084  49.9379301  38.3020878  67.8311825
  38.0444527  50.0611925  37.7746701  37.7000427  49.5626354  37.0336866
  38.6995840  49.4844532  38.1676126  20.5923581   7.7443612  75.0365543
  20.3738976   8.6424774  75.2853441  20.3042865   7.2133482  75.7790327
  48.6313438  30.2620888  62.3984671  48.3306980  30.5509353  61.5368319
  47.9005575  30.4574084  62.9850101 108.0426659  37.9782057  65.0420141
 108.9385238  38.1187296  65.3484821 108.1443759  37.6311660  64.1557550
  42.4920797  20.0651217  47.5333357  42.8793526  20.4630828  46.7536688
  42.0504284  19.2808223  47.2076893  22.2296405  51.5908384  62.4275064
  21.4224100  51.4956141  61.9219923  22.6498866  52.3698807  62.0632029
  15.9188129  12.0446766  22.9027673  16.8328811  12.3283804  22.8878614
  15.7717658  11.6648329  22.0365545  99.8378631  68.3073378  79.1193104
 100.2286240  69.1765070  79.0294027 100.3554245  67.7506971  78.5374880
  29.6068406  42.8648520  42.9025984  28.9059162  43.1311989  43.4975767
  29.8037791  43.6530495  42.3964405  74.4787221  80.9084610   4.1998884
  73.6939006  80.5210666   4.5874711  74.7316794  81.5998367   4.8116418
  45.0381756  36.4911985  81.1845684  44.4679165  36.8865085  81.8439388
  45.8027077  37.0662951  81.1532879  66.4701109  81.3620643   8.0592843
  67.2698264  81.2294249   7.5502702  66.1225657  80.4803328   8.1934186
 106.8416768  34.5820355  71.5257883 106.5224531  34.5693684  72.4281025
 106.2551665  35.1878071  71.0727119 107.8558782  88.9463059  71.1796236
 106.9706301  89.2662052  71.3534832 107.7614001  87.9950646  71.1301804
  21.1737847  24.4776559  66.1066628  21.4280701  24.8232746  66.9622993
  20.4772067  25.0629711  65.8093071   3.4288865  61.6889191  28.1722403
   3.6877787  61.4532042  27.2813702   3.2726002  60.8501244  28.6061001
 106.1613067  41.9132137  49.0930033 105.7334902  41.0571814  49.0727282
 106.9717213  41.7877102  48.5993338  21.9700789  41.4713717  73.4649611
  21.3919187  41.2193918  74.1850138  21.6155577  42.3040867  73.1533098
  34.3430758  19.0267479  78.9182854  34.1639781  18.3295810  78.2873249
  34.6970439  18.5726166  79.6829462  50.5234699  75.7284740  15.4875680
  49.6828048  75.7049922  15.0304433  51.1659126  75.4880194  14.8199769
   1.2352544  31.0416245  54.7737789   2.1783844  31.1831284  54.8557234
   1.1506552  30.1147342  54.5502853  31.9329214  51.8231440  81.9735909
  32.0640278  50.8751106  81.9571209  31.5472078  52.0264387  81.1214638
  57.5023990  70.7915906   2.0348951  57.3928695  71.6558532   1.6383096
  56.8550937  70.2417211   1.5934583  20.8595467  35.5224776  62.2904158
  20.6411076  34.5972657  62.4022102  20.0201988  35.9770560  62.3617315
  45.9448004  35.4227376  78.8241339  45.9441376  35.5521178  79.7725487
  45.5802917  34.5461631  78.7017250  97.6188234 101.8624101  55.2136898
  97.4896387 102.3314575  56.0380316  96.7750243 101.4448023  55.0409555
  38.3909869  32.2014594  40.8936262  39.3402719  32.0997643  40.9625292
  38.2572150  32.6366639  40.0516462  32.4789500  22.8724694  66.5212154
  32.1459198  23.7418580  66.2987661  33.0223441  22.6254559  65.7729244
  68.0826192  54.5692933   5.3325197  68.9577250  54.1834877   5.3722211
  67.9412942  54.7473001   4.4026967  47.8823500  68.6461631   5.6470796
  48.4281854  67.8920094   5.8696767  47.1581440  68.6104373   6.2719652
   1.2333904  65.8567333  78.5162258   1.1850249  66.3918066  79.3084288
   1.0613551  66.4702654  77.8019333  26.7260385  34.6100974  77.7203846
  27.0371366  35.3835726  77.2500801  27.2798824  33.8973022  77.4019337
  63.0987167  13.3271623  83.2620239  63.3697557  13.7962282  82.4728775
  62.3804998  12.7649415  82.9716778  33.8113761  28.4173036  67.5263643
  33.0440378  28.1277204  68.0198860  34.3755984  27.6451278  67.4860001
 104.0866432   4.1762770  14.8009702 103.3178911   4.2969311  15.3583642
 103.9569959   3.3184564  14.3965360   5.7540947  23.1109238  88.1304169
   6.0236335  22.7144909  87.3019123   4.8989034  23.4981966  87.9436111
   1.2821081  17.2981477  52.1015120   0.6934193  16.5440166  52.1325636
   1.7380491  17.2808862  52.9429722  41.5238412  91.3568524   7.5265333
  40.7175733  91.4625958   8.0314943  41.7409413  92.2419552   7.2338125
  35.0212073  60.2348757  50.1564026  35.4741740  61.0443020  49.9200153
  34.5423794  59.9884796  49.3650436  12.4296653  50.0578880  63.1602669
  12.6891351  49.3272829  63.7216282  11.5147042  50.2221251  63.3885288
  96.5090999   8.8777292   5.0802060  96.1329660   8.0218017   4.8749181
  96.2127528   9.0620411   5.9715196  16.6109145  23.6780214  51.3077974
  15.9468377  23.2549858  51.8521070  16.9783819  24.3625426  51.8669271
   9.3033183  34.3150949  72.0033884   9.8388064  34.6246219  72.7339220
   9.6489495  34.7779012  71.2401199 108.2006649  90.2129522  50.8508158
 107.6986722  90.9710244  50.5515432 108.1481890  90.2527634  51.8057442
  33.2104349  33.2824278  85.1557350  33.9538336  33.8783550  85.2477074
  32.8099608  33.2631397  86.0249138 110.7811766  46.6867924  89.1431236
 110.5640858  47.6058769  89.2992878 111.1349753  46.6720247  88.2538319
  30.1340032  54.1656399  83.2516766  30.9177375  53.8719797  82.7871799
  30.1081872  55.1110268  83.1039906  12.4074185  24.9704957  48.8887644
  12.6794493  24.3257689  49.5418787  11.6299427  25.3812146  49.2670107
   8.1777632  42.3750591  59.8396254   8.0768192  43.1178713  59.2444181
   9.0731317  42.0702410  59.6925402   7.9193348  30.7928371  69.4178486
   7.7181125  31.4520383  70.0820732   7.2810847  30.0960827  69.5708275
 105.6445082  33.0481577  54.1096544 106.3731863  32.4345326  54.0162468
 104.9331518  32.6538706  53.6049366  14.8220968  35.2735710  20.8832359
  15.4448891  35.7636476  21.4200640  15.3137898  34.5087981  20.5839133
 101.7639824  23.1407642  66.4985228 101.7389777  22.1905804  66.6114759
 102.0210686  23.4773207  67.3569345  99.3103536  10.9536517  30.7824659
 100.0583967  10.3736937  30.9249806  99.5608207  11.7756414  31.2041664
  47.9542112  41.1981297  43.0739069  47.7217150  40.9785080  43.9760971
  47.8758049  40.3711700  42.5982761  27.7296352  30.1567674  51.6133356
  28.2228351  30.9746671  51.6767931  27.5685239  29.9031043  52.5221443
   1.1085191  59.3371820  69.3575573   0.2939385  59.8391914  69.3835831
   0.8269624  58.4295988  69.2424583  14.2862988  59.7757435  42.4421549
  14.4471276  60.7169580  42.3752308  14.9657512  59.4583607  43.0369997
  15.3967166  24.4872403  67.9073715  15.3824031  23.5945129  68.2524252
  14.8708212  24.9922085  68.5275936  83.4896628  95.6176332  60.1231813
  83.6492387  96.4887694  59.7600126  82.8721634  95.2134547  59.5136166
 108.2476767  15.2466822  71.3874817 107.4735364  14.7330570  71.6179752
 108.8074634  15.1970494  72.1623421 108.5963287  35.6007838  58.4531403
 108.0032023  36.2447762  58.8400602 108.5622381  34.8541212  59.0511084
  25.8781838  18.4752488  29.0129566  26.2382770  18.9515340  28.2648134
  25.3909135  17.7495551  28.6228704  34.0645432  39.4593120  56.1640120
  33.9502811  38.7157011  56.7558050  33.2336068  39.9322033  56.2103796
  33.0452037   4.3867657  61.7979050  32.9089880   5.3222609  61.9479895
  33.8496137   4.3417442  61.2810564  25.6446981  54.1645145  49.7274351
  25.5214334  55.0713491  49.4469118  26.5706110  54.1107798  49.9641418
  20.5708170  48.2177067  33.3620024  20.5240488  49.1398096  33.6145377
  20.7875609  47.7579403  34.1730928  96.6864256  85.9127525  43.1481314
  96.1099533  85.3237859  43.6349916  96.9884352  86.5452710  43.8000107
  29.1468573  30.8093905  61.0997200  29.0531707  30.7500267  62.0504713
  28.4350753  31.3872004  60.8245230  46.5956593  41.2018871  63.1278801
  45.7010269  40.8857822  63.0016470  46.8807364  40.7938385  63.9454746
 108.0647581  28.4420443  60.8990574 108.0824908  28.5202384  59.9452209
 108.3461147  27.5434279  61.0709763   9.9555998  67.8159408   0.6551477
  10.4198055  68.0022542  -0.1609591   9.8656945  68.6691121   1.0797044
   5.0783253  40.7860756  73.1096554   5.4201937  40.0880766  72.5509453
   4.3290722  41.1343813  72.6264000  10.8706987  15.9634733  36.7648578
  11.7894173  15.9435558  36.4969158  10.8913100  16.2812221  37.6675439
  28.4940481  27.3525739  71.9545031  28.6457348  28.2617164  71.6962671
  27.5455856  27.2404861  71.8905497  44.6214724  72.5393105  66.5995789
  43.9557266  71.9146204  66.8872881  44.4572639  72.6499987  65.6630898
  16.2758815  42.0767784  59.6760273  16.1026633  41.3000250  60.2078962
  17.1886277  41.9819498  59.4037485  93.0206876  86.9758514  -0.0576476
  92.4845128  87.7513794   0.1075956  93.7284713  87.0327953   0.5842420
  13.2982993  15.7031798  68.9631891  13.2189381  16.4497292  69.5569849
  12.8797591  15.9955907  68.1535244  32.6559186  63.5666800  49.3614149
  32.1453881  64.3756390  49.3957329  32.0368218  62.9057217  49.0514374
  29.1710830  61.1975956  55.4127932  28.6946464  61.1242580  56.2397528
  29.9508381  60.6564522  55.5368090  30.3811479  37.6617670  48.8343000
  30.7226729  38.0011916  48.0070257  31.0089278  36.9874382  49.0939283
  97.4983958  97.1123592  76.5109205  97.6878194  96.8941811  77.4234724
  98.3563665  97.1355966  76.0871506  84.8453209   1.4963663  13.9417096
  84.0031341   1.8709791  14.1998121  84.6158180   0.7478321  13.3910295
  31.0932326  35.5755854  64.7922945  30.2075601  35.8805871  64.9892426
  31.5424061  36.3487816  64.4507647  10.8021641  12.0277119  77.1464157
  10.9301627  11.2332499  76.6280746  10.2233863  11.7578256  77.8594446
  47.4944639  20.8133793  35.7107472  47.9473448  21.3891315  35.0945997
  48.1096458  20.0964713  35.8650994   8.9216024  31.3072515  52.5639725
   8.5742992  30.5697703  52.0622396   8.4755212  31.2531924  53.4091473
  11.4953351  69.9172020  60.4136801  11.1490905  69.0255594  60.3773499
  11.5511167  70.1899767  59.4978619  33.3280849  10.6994200  29.1446757
  32.9633331  10.9690523  28.3017731  33.9312673  11.4040685  29.3810534
  41.8995714  46.8746614  50.8921671  41.2796688  47.0564222  50.1858282
  42.6760674  46.5344381  50.4477167   1.6752119  29.7714376  78.2699966
   2.2472973  29.7441673  77.5030518   1.6198497  30.7002640  78.4946012
  27.7455579  50.6842918  16.7596074  28.0841480  51.5656128  16.9172880
  26.8914466  50.6750030  17.1916314  23.9880562  16.0287678  48.2709455
  23.6830115  15.1262605  48.1778860  24.4958568  16.0274982  49.0823460
  70.4197531  82.5644306   9.9557420  69.9894790  81.7093972   9.9598142
  69.7028498  83.1929211   9.8704168  39.2833424  48.0509901  86.7440891
  39.7828627  47.9252625  85.9372997  39.8432565  47.6896572  87.4312305
  41.6310220 102.3153571  14.2229673  42.2906600 102.4110297  14.9099656
  40.8064662 102.5510673  14.6481534  63.1491737  74.2915992   2.6993390
  62.3793011  74.2488626   2.1321508  63.8080125  73.7629680   2.2490999
   8.6520982  19.9363124  67.2480011   8.3701181  20.1868701  66.3682652
   9.0673476  20.7237482  67.5997734  35.5161858  65.6398487  73.9600229
  35.4385805  65.2854109  74.8457861  35.2596617  66.5580034  74.0461159
   5.1891500  31.1094952  90.5812931   5.3114045  31.4979410  91.4475536
   6.0686606  30.8459163  90.3107071  37.1307755  30.1190615  54.9141932
  38.0291915  30.3152347  54.6484947  36.7616653  30.9684587  55.1560926
  60.3111892  84.6471194  40.1655790  59.7316294  85.4014544  40.0591585
  60.2739696  84.1956452  39.3223592  49.7274446  37.9234529  75.7890558
  49.7143412  38.8637662  75.9675789  50.6029224  37.7582932  75.4390574
  30.0663638  22.1403527  81.2068748  30.6369352  21.4850640  81.6084671
  29.9747992  22.8198361  81.8748188  64.0770817  17.3030639  67.8019953
  63.4191322  17.8981185  67.4424934  64.9139404  17.6742065  67.5224400
   8.4417754  62.6648426  36.3724613   9.1365027  62.0103836  36.2998605
   7.9084498  62.5360155  35.5881143 106.6267418  20.0924706  72.0003510
 106.4627706  19.6186423  72.8157234 107.4324738  20.5820441  72.1657133
 101.6241559  25.0974441  83.7880230 101.5701171  25.7636333  84.4732285
 100.7790240  24.6493387  83.8224506  36.1789656  81.8701267  72.9731178
  35.6907654  81.5029526  72.2361803  37.0692730  81.9805813  72.6393747
  10.6699729  27.0849490  46.3076973  11.3174260  27.5730371  45.7989645
  10.0289524  27.7437878  46.5746355  30.9671021  51.1004305  52.2457218
  31.6715622  51.6279984  52.6220703  31.3581681  50.2365017  52.1156073
   6.1010951   2.5414833  51.0495663   5.7419014   2.3753235  51.9211149
   5.3370118   2.7465048  50.5107021  42.7638292  33.4409666  70.6073952
  42.9854488  33.5168433  71.5354872  42.4630117  32.5379372  70.5060291
  47.2466946  58.3133221  48.7959146  47.6328897  59.0322351  48.2956648
  46.7303181  58.7452888  49.4763470  13.8060308  51.8892431  34.3105125
  13.6184263  51.4927387  33.4597373  13.0583858  51.6478968  34.8573303
  34.6894813  27.7444220  89.1604424  35.5155897  28.0635381  88.7971973
  34.0282869  28.3439183  88.8145161  13.2546723  13.4011471  77.1756506
  13.6427987  12.6748574  76.6877031  12.3138463  13.2257187  77.1582603
   9.8087764  65.5329180  84.4425774  10.6038666  65.1956081  84.8552322
   9.8614353  65.2284098  83.5366344  53.5328274  84.6873478  21.3021680
  53.4979169  83.9067272  20.7493230  53.9638524  84.3934015  22.1046945
  66.7204324  14.2875088   6.6210862  65.9335277  14.8225534   6.5174505
  67.4434486  14.8859823   6.4331743  51.0763359   6.1167020  64.9876308
  50.4832745   6.8495625  65.1532364  51.6211748   6.0672873  65.7730865
  45.8784866   3.8795722  82.3900604  46.2871027   4.0425664  83.2401752
  46.0553885   4.6721721  81.8833828  38.2154393  37.5504589  89.0301895
  37.4320102  37.8719974  89.4763756  37.8835869  36.9317985  88.3795261
  37.4976397  47.1590233  52.8812408  36.7755771  47.0833206  53.5050392
  38.0024934  47.9116058  53.1894302  20.6743240  42.0638275  30.1673412
  20.5548787  42.9728985  30.4422140  21.2832451  41.6977024  30.8087492
 103.3658012  41.1285639  84.1816044 102.7497729  41.5948009  84.7467232
 103.4973188  40.2852917  84.6149921   7.7046591  77.7271509  76.1757183
   8.4010702  78.2856703  76.5211153   8.1538665  76.9295120  75.8960485
  34.6682668   6.8938816  65.7296228  35.3202534   7.5925356  65.6746149
  35.1484060   6.1455876  66.0842371  13.1882584  19.6181238  72.7315235
  12.2952414  19.5273840  73.0639648  13.1817269  20.4454637  72.2501755
  60.7442808  43.5207987  56.2349415  61.4084482  44.1126156  56.5883017
  60.0380898  43.5403061  56.8808079  23.0370641  25.2158713  50.8304310
  22.2002697  25.0851107  51.2764263  23.6085796  25.5930328  51.4992762
  48.2190084  71.2359428  49.6791792  48.3180571  70.7476711  48.8618565
  48.1392622  72.1493626  49.4043350  23.8215780  28.6949396  85.8243370
  24.4878006  28.2186580  86.3198566  23.1686711  28.0313420  85.6016636
  43.1717491  23.4627628  75.9524488  42.8472662  23.4321356  76.8524504
  44.1184616  23.3481741  76.0351372  14.6747160  32.4628687  53.6551332
  14.8769999  33.3517551  53.9470100  13.7625313  32.3281717  53.9120531
 105.1516219  16.7167091  42.2329903 105.5573776  17.2435188  41.5444660
 105.6123259  15.8784819  42.1961069 107.7540975  40.6730700  56.2001657
 107.2449996  40.1058769  56.7792511 108.0028468  41.4157677  56.7503977
  14.8426366  23.6007738  64.5460463  15.7521534  23.7058902  64.8252583
  14.8933280  23.0429673  63.7698269  48.9934985  87.7191500   9.0798780
  49.8611371  88.0892996   9.2424222  48.4151714  88.1928615   9.6776792
   6.9486088  42.6916838  31.3261437   6.4054000  43.2568169  30.7768011
   7.8112888  43.1063271  31.3170004  90.7327422  38.8571668  81.6932678
  90.0806554  39.4588637  82.0523930  91.4081224  39.4273615  81.3258839
   6.2333310  11.3267076  78.1308174   6.3431156  11.7772639  78.9681816
   6.0227954  12.0237982  77.5095558  33.8548218  84.8938779   3.2419797
  33.0561595  85.3990749   3.0898401  34.5605712  85.5377392   3.1820508
  54.0307474  30.3542733  55.1710224  54.2415237  30.3194976  56.1040783
  53.4437275  29.6114278  55.0302315   2.3311593  39.1388488  47.6543427
   1.8682888  39.9765062  47.6366568   1.6380961  38.4839535  47.7380466
  27.6560855  21.3395047  61.5232372  27.7457547  20.7325959  60.7884884
  28.3353305  21.0694385  62.1412325  14.4226539   6.3831741  68.5924196
  14.0790868   7.2239864  68.8944578  13.7605107   6.0593140  67.9817533
  19.2295182   9.8652351  84.9418926  18.7652659   9.0616739  84.7073936
  19.0757763  10.4548037  84.2036533  41.9518042  36.8968415  58.2507420
  41.3412762  36.9056845  57.5135756  42.7770376  36.5906811  57.8746033
  49.0984850  43.7276975  17.7920743  49.9091141  43.9857117  17.3532792
  49.3494551  42.9852495  18.3416292  38.7230825  58.7980080  62.9297161
  38.9721417  57.9112005  63.1900597  39.5542264  59.2653418  62.8458691
  27.8599191  30.1990438  72.4455452  26.9089985  30.1189566  72.3709154
  28.0557084  31.0666442  72.0917606  76.2895374  86.4126328   2.2219583
  76.5523224  86.0616640   1.3710805  76.0909228  87.3331431   2.0503637
  31.5619302   7.8382576  68.4031296  31.7895079   8.1760877  67.5369215
  32.3360372   7.3480123  68.6799812  35.0273681  69.2316723  85.4745674
  34.8829198  69.5690680  86.3586044  35.5012584  68.4104729  85.6060791
 100.0110564   1.7233932   3.1652471 100.7821402   1.7140663   2.5981733
  99.6105370   0.8632219   3.0390664  84.5068221  92.7562646   4.1388818
  83.7860541  92.1265606   4.1530725  85.2580838  92.2680286   4.4757291
  38.5344018  51.5740207   3.6289522  37.8632744  52.1646168   3.9710351
  39.3524905  52.0624780   3.7204572  22.8057861   0.5091395  71.6208744
  23.1846571  -0.3209524  71.3316774  22.7910209   0.4458731  72.5758696
  78.0622005  15.5996978  67.1993923  78.5997248  16.2708282  66.7788219
  78.5245514  15.3974962  68.0127668  18.6272454  18.1667078  68.3328438
  19.0360284  18.6145735  67.5922012  17.7701163  17.8947222  68.0048370
  42.8501177   5.2764642  55.5176640  41.9302750   5.3381312  55.2601385
  42.8283882   5.2251029  56.4732361  62.2641735 103.7498645   2.3341962
  62.0401697 104.1092185   1.4757558  61.6696911 103.0080012   2.4458429
   1.8532416  20.2690601  19.9232340   1.4257734  20.2614594  20.7796478
   1.7057306  21.1540866  19.5897627 101.2941942  10.6311644  13.7497636
 102.0866618  10.2190817  14.0938875 101.5834627  11.0807646  12.9557821
  23.0281305  48.2101583  51.5130043  22.9070306  49.0879393  51.8750334
  23.5899067  47.7648640  52.1473169  20.9142327  48.8689375  46.1565018
  20.4081869  49.5597172  45.7287455  21.4557290  48.5012388  45.4580688
   9.0678465  18.7042201  48.3491707   9.8430502  18.2599378  48.0057955
   9.4152701  19.3552828  48.9587975  13.2677162  47.6741743  33.3668256
  13.9747906  47.0663548  33.5832310  12.5807536  47.4791622  34.0042305
  24.3173862  52.0882607  70.0089121  24.2205358  52.9564428  69.6176195
  24.7546554  52.2497749  70.8449411   5.1261848   5.6529772  61.8765736
   4.2129713   5.3670406  61.8992424   5.1055461   6.4829129  61.4001179
  11.7384219  22.1385264  62.8621197  11.9069886  23.0252457  63.1807756
  12.1692002  21.5690136  63.4995461  43.9943743  33.5055876  83.3204460
  44.7700214  33.7458229  82.8136063  43.4946489  32.9342937  82.7372456
  46.5316391  30.0170636  68.3574915  46.0063934  29.8614049  69.1424227
  47.2691441  30.5449033  68.6635971  22.1295929  46.4238930  71.0732555
  21.6541958  47.1840429  71.4085102  22.2023344  46.5828466  70.1321507
  46.1901188   1.5780912  61.6291285  45.8449268   1.8959238  62.4634266
  45.6978512   2.0622751  60.9662008  32.1172996  75.8324079   2.4024507
  32.6886170  75.9862522   3.1548902  31.2321465  75.9596852   2.7438279
  30.1962662  22.4955583  53.7021637  30.7898116  22.8657937  54.3555117
  29.4017339  23.0246067  53.7732744   4.2984912   5.6372291  67.5544024
   5.0134683   5.0380737  67.7689981   4.5359811   5.9971976  66.6998529
  39.4414827  54.1828729  24.4298192  39.7528790  53.3923799  24.8707124
  39.7652118  54.9025668  24.9715539  20.0969005  15.6202865  73.4912395
  19.3001568  15.1034963  73.3714104  20.5328369  15.5892861  72.6396370
  24.6669960  72.4362803  30.9936237  24.3537664  72.1145248  31.8389583
  24.0905452  72.0223713  30.3512740  36.9436193  34.1026950  81.9818497
  37.5217319  33.4902000  82.4366665  37.2121119  34.9653029  82.2981548
  11.7860019  21.2655401  52.8466320  12.5653219  20.7218456  52.7313614
  11.7884827  21.4936781  53.7762403   9.9268860  34.3937325  88.0673027
   9.8756391  35.2112460  88.5625553   9.2005551  33.8663483  88.3997726
   1.1849317  33.8666439  81.1909389   1.8373904  33.4210515  81.7312908
   0.4025072  33.3196259  81.2603283  31.5248132  44.7476196  49.7705555
  31.6636968  44.7260761  50.7173824  30.6598473  44.3569136  49.6464062
 106.9371065  19.4887817  90.8647346 107.5053104  18.7234175  90.9518814
 106.3337769  19.2599130  90.1577377 108.4399056  47.6413536  74.6752262
 108.7338438  46.7906427  74.3494654 108.9582207  48.2782745  74.1833782
  16.1864817  39.6660638  40.8537388  15.3369403  39.2755961  41.0587931
  16.5250325  39.1372252  40.1312828  12.1349430  37.9793525  61.3453484
  12.8620386  37.5480652  61.7942953  12.1007943  38.8547730  61.7309713
  24.0551543   4.4932258  81.6098499  23.5501385   3.7924331  81.1974430
  24.0109897   4.3009835  82.5465107  36.9639874   7.8101081  69.8479271
  36.9977808   7.1618783  70.5514097  37.8777623   7.9315627  69.5900536
  54.3882148  54.8320863   2.7636739  54.6121781  54.0929619   2.1981927
  54.9964075  54.7634994   3.4996244  18.4777212  49.5001745  63.1116915
  19.4159460  49.6802378  63.0521774  18.1286740  50.2195597  63.6378813
  29.2341352  19.1484547  67.1621752  29.6918988  19.9853027  67.0823669
  29.3436861  18.7329972  66.3068247  12.8856099  28.4132910  40.2336836
  13.1013572  29.3257809  40.0412035  12.0839846  28.2469630  39.7377348
  54.9890661  36.5342188  85.3226757  55.5556488  35.7760286  85.1799488
  55.4883766  37.0986128  85.9129143  33.7371612  44.6125984  81.4109325
  34.6156931  44.8561192  81.1191845  33.8053632  44.5676661  82.3646450
 105.1897111  46.4109135  78.4013128 105.4402950  46.6496515  77.5088787
 105.9759822  46.0098886  78.7717009  45.6318855  49.6093941  60.0342464
  45.2804375  48.7358475  60.2064133  45.0538301  50.1996756  60.5176210
   6.8232566  75.3002071  63.8627386   7.6539993  75.1535559  64.3150616
   6.6593999  74.4830799  63.3919048  93.6364361  15.6191361  67.8874063
  93.6812039  14.8225749  67.3585176  94.5508166  15.8638704  68.0296850
  18.9258575   7.8697228  70.2044058  18.4017277   7.7747846  70.9997082
  18.4557390   8.5212511  69.6840906  51.1103821   1.0714914  53.7402058
  50.4334307   1.7217910  53.5529137  51.5953350   1.4368889  54.4801617
  18.7090182  42.6990652  75.5187654  18.8446903  43.5605669  75.1242638
  18.1302202  42.8648567  76.2629032  18.6380041  22.4718189  62.1480989
  18.8794267  21.8172002  61.4927959  18.5740137  23.2906055  61.6564417
  38.5721064  29.0371943  77.3716116  38.8564539  28.1334472  77.5080633
  38.0954146  29.0156078  76.5418339  20.1748967  52.3724318  89.9282551
  19.9686158  53.2044649  90.3541660  20.2822423  51.7537069  90.6506729
  50.1706123  38.7246728  70.9387970  49.7091913  38.2635117  70.2383327
  49.8324490  38.3353186  71.7451954  33.4082294  56.6388512  57.2326326
  33.8233876  57.3921204  57.6527023  32.8663874  56.2501764  57.9193449
  33.9725780  53.0478525  57.6759243  33.3238029  52.3472595  57.7429295
  34.8022056  52.5929594  57.5309372  28.9532375  69.2932129  90.4732132
  29.1287637  69.1750097  91.4067268  28.0314922  69.0562391  90.3709316
  22.4061322 102.8824806  81.4541340  21.7934752 102.6896954  80.7444000
  23.1314898 103.3383369  81.0271835  31.1355925  47.9234648  49.9999380
  30.7870746  48.8051081  50.1321316  31.9166088  47.8893471  50.5522776
  27.9800296  35.9176898  72.5681257  27.5055695  35.2281570  73.0325222
  27.3005486  36.4014769  72.0985699  23.1859159  36.0679197  36.4678907
  23.6976266  36.8198991  36.7660689  23.3890343  35.3754616  37.0967579
  33.0360651  18.2709670  52.1400261  32.6026511  18.9206886  52.6934195
  33.9067864  18.6350369  51.9802475  34.2791796  42.2566319  78.7359524
  33.7603092  42.5065660  77.9714012  33.6308718  42.0024061  79.3926907
  26.4388800  14.8293364  61.4978361  26.9364047  14.0146303  61.5682268
  25.5377483  14.5469296  61.3414955   8.1091130  46.4810514  48.3754349
   8.4934235  45.7034540  47.9706144   8.6842608  47.1985292  48.1096029
  31.6897464  62.4804115  59.0269613  31.4208436  63.1555796  59.6499157
  32.6462269  62.4883652  59.0631914  57.8122854  23.8467860  74.4558430
  57.5959492  23.5544205  73.5704279  57.9401445  23.0375028  74.9507618
   4.4671592  25.3099227  36.8464518   4.5203364  24.4377875  36.4555764
   3.5292095  25.4956818  36.8909097  17.5341558  48.7809563  78.2298517
  17.4465346  49.3080807  79.0240145  17.5911379  47.8792572  78.5459566
  11.0933292  62.1233654  74.2579174  10.2343512  62.1130657  74.6801519
  10.9014463  62.0522213  73.3228493  27.2242546  55.8553171  73.8339233
  28.1042480  56.1794043  74.0257883  27.1985531  54.9838209  74.2289734
  34.5969057  48.0448484  82.2596645  35.5031133  48.3528423  82.2723484
  34.6683002  47.0903206  82.2622681  32.9234791  89.4068813  67.1761656
  32.8565359  88.6471748  67.7546072  32.9254746  89.0364552  66.2935495
  20.3586268  39.5122123  67.2315931  20.0214791  39.0105224  66.4893866
  19.7170866  40.2109814  67.3595762  42.4943781  48.0959797  60.0495148
  41.6467047  48.4937191  60.2482414  42.4411821  47.2177887  60.4265928
  49.3563128  73.9944696  64.6455908  50.2658892  73.8572264  64.9102926
  48.8789415  74.0905905  65.4696751  47.0785236  29.6564007  76.8440819
  47.0931768  28.7196875  77.0405149  47.8421450  30.0089288  77.3010731
  14.6718407  48.9258099  82.7879429  14.5134199  49.4028902  81.9733715
  14.5460641  48.0059195  82.5550938  95.1802870  64.1927195  37.5345564
  95.7829734  64.4134235  36.8244219  94.3374344  64.0598249  37.1007705
  35.7162094  37.3413348  55.1726866  36.3669920  37.8887320  54.7332859
  35.1379991  37.9638410  55.6135798  57.4262905  78.7918472  82.4238396
  58.3068705  78.9241934  82.7749825  56.8710947  79.3723202  82.9444599
  15.4873693  43.2775545  74.0755415  15.6515968  42.7582741  73.2883930
  15.1351571  44.1049385  73.7474871  24.2285347  44.7696638  56.7479229
  23.5113859  44.6514559  56.1250639  25.0152516  44.8037052  56.2037325
 110.8875576  29.8810768  57.0254421 111.8235000  30.0703120  57.0920277
 110.4606400  30.7200909  57.1987343  47.7432299  42.3035955  76.7561626
  47.1086740  42.2840786  77.4725342  47.5996923  43.1496143  76.3320398
  38.0136633  62.4387121  86.9705677  38.2291961  62.1746063  86.0761356
  38.5248399  63.2350111  87.1149445  20.1038218  46.7520809  62.3955774
  19.3552494  47.2636366  62.7024603  20.8674431  47.2756958  62.6383543
  35.5823302  16.8443155  50.4481554  35.7707930  16.5935671  51.3525009
  34.8119545  16.3276434  50.2119350  29.8874187  13.7808144  53.4310722
  29.1706991  14.3700850  53.1959009  30.6787968  14.3048239  53.3071089
  43.2387447  29.9848270  36.6484165  43.5816622  29.9177289  37.5395608
  43.6318922  30.7850504  36.3001180  43.7312794  53.1504250  46.1292124
  43.9611959  52.3912573  46.6649628  42.8185225  53.3332682  46.3520861
   3.1460866   4.1378862  69.8631573   3.1869179   4.5505163  69.0004253
   2.7557769   4.8039928  70.4290104   9.1562867  73.9158201  25.9200144
   9.8325127  73.4710646  26.4310360   8.7551355  73.2212067  25.3976870
  57.4616241  69.0171337  66.2501860  57.6896000  68.1149006  66.4743233
  56.5292978  69.0866709  66.4555264  29.2536879  73.1341505  77.4801064
  29.3914247  72.7122402  78.3281898  29.3386126  74.0701389  77.6616240
  42.2820997  47.4723959  35.8893657  42.6920319  47.6000500  36.7448711
  42.3259735  46.5277290  35.7413173   0.3642107   6.4195574   8.3014222
   0.7029534   6.0489977   7.4864599  -0.5205130   6.7117918   8.0821248
  25.5676341  23.1332016  56.6627216  24.6288610  23.2407522  56.5098476
  25.6901741  23.3757353  57.5805378  20.0007820  62.0122623  65.7514620
  19.2826819  61.4181376  65.9695911  20.7662487  61.6307545  66.1812782
  23.4867811  32.6438308  52.0544529  24.2506170  32.0766473  51.9491482
  22.8821754  32.1337390  52.5934219  35.5450916  62.8882504  49.6819019
  35.7876992  63.4776545  48.9677763  34.8603344  63.3579969  50.1580095
  27.1532893  54.6049356  77.8749418  27.4018860  54.1908789  77.0485067
  26.2071681  54.7317600  77.8042078   6.6087091  48.2362700  57.7333355
   7.3977125  48.0459166  58.2407522   6.9026756  48.2309246  56.8224096
  52.7010298  25.6508112  86.1700821  53.2735109  26.3148284  85.7859230
  53.2388449  24.8595762  86.2006760  34.6404910  58.7773895  67.6333237
  35.3753042  59.1570902  67.1515417  34.0582943  58.4378529  66.9536209
  21.0524225  30.9198833  50.9002542  20.2963972  31.5058827  50.8646870
  21.4120126  31.0458755  51.7783499  18.3307815  35.4847813  68.6874866
  17.5416100  35.8516979  68.2889748  18.9908338  35.5281591  67.9956198
  56.4761257  36.2178993  69.7129393  56.1212206  35.9889269  70.5719185
  57.3303604  36.6059852  69.9024343  33.3091497  96.9279957  73.5066795
  32.4831319  97.0532322  73.0395174  33.1366277  96.2038040  74.1083479
  94.6514234  17.9952610   3.6578199  94.1001866  18.6316240   3.2023927
  94.0319512  17.3884857   4.0631696  43.0618668  51.8504620  30.6951404
  42.6937914  51.4911222  31.5023732  42.2993040  52.0479536  30.1513338
  33.1297493  22.4959946  48.4400463  33.0742908  23.0328035  49.2306089
  34.0011096  22.1017218  48.4788942  32.3607683  52.3301029  62.5487804
  32.3136115  53.0260658  61.8933058  31.4814186  51.9521666  62.5605249
  37.8979254  64.8162794  55.7983541  37.3464108  65.5871296  55.6647301
  38.7687540  65.1724482  55.9745169  40.3228951  10.2483046  67.1654654
  40.8662605   9.5858651  66.7386627  40.3579521  11.0023534  66.5768957
  39.9011993  71.9399548  88.6991978  39.7356462  71.2880611  88.0181313
  40.5654573  71.5380192  89.2590618  45.9737158  26.5991306  83.8714314
  45.1080656  26.3088560  84.1588688  45.7998705  27.3637366  83.3224392
  16.4072120  35.7677627  48.6878824  16.8649805  35.9610057  47.8697491
  15.6663072  35.2218843  48.4246111  25.0832701  54.7880507  55.4267979
  25.5657125  55.3777838  56.0061932  25.0318980  53.9645720  55.9120560
  58.8678837  83.5767078  84.3868160  58.7893152  83.1381321  85.2339935
  59.6305847  83.1694698  83.9761066  22.9222512  63.1695986  44.0401793
  22.2629356  62.9673481  43.3763742  23.3241987  63.9841223  43.7381506
  68.5937242 103.2008389   3.2025930  69.0793543 103.9947871   2.9788991
  69.2174463 102.4895219   3.0568906  23.7280726   7.1738821  47.8507757
  23.9102650   7.8052157  47.1547508  24.2129683   6.3891339  47.5952816
  27.1685982  25.0039458  76.8001890  26.8653464  25.1165128  77.7010727
  28.1067944  24.8331046  76.8828583  46.0225439  25.4005814  81.4340305
  46.1125517  26.2171054  80.9426880  46.1434603  25.6566787  82.3483753
  45.4998207  83.1670952  43.8270521  46.3992023  83.3360004  43.5463142
  45.2346373  82.3939133  43.3289528   2.0389380  29.0731859  70.7400990
   1.4034906  29.7864580  70.6794167   2.1285954  28.7552071  69.8417187
  32.6449800  47.7323294  75.0071669  32.0114565  47.4619818  74.3424892
  33.3940673  48.0556488  74.5066023  23.1848192  65.2361250  78.0407333
  23.5916781  64.4044256  77.7979040  22.7065921  65.5066824  77.2569418
  43.2724571  73.0083323  49.7921944  42.8865290  72.2801924  49.3052626
  42.9610348  72.8883123  50.6893253   4.0205480   5.9632004   8.1940957
   3.2042075   5.8395183   8.6783620   3.8192798   6.6480005   7.5562974
  41.4447927   2.8761378  89.7039318  41.2194681   3.1042653  88.8020325
  40.8127022   2.1988592  89.9447346  40.1678848  74.0731812  82.1114445
  40.9968615  74.5485878  82.0564651  39.5002413  74.7337770  81.9267845
  67.9739428  16.7498052  27.2881150  67.4979687  16.4816713  26.5021229
  67.9646301  17.7065182  27.2590637 109.5694201  71.6719389  47.7449036
 109.4392648  70.8165884  48.1543779 110.0247137  71.4784050  46.9254637
  30.4773712  33.7611508  48.8698816  31.1643648  34.4188905  48.9778233
  30.9438062  32.9252887  48.8706207  29.5800083  90.6984405  14.0895196
  29.1525565  90.9448222  14.9097749  30.0707518  91.4786819  13.8313981
  53.9526224  21.8235660  74.5640182  53.5270929  22.4405313  73.9686108
  54.7570086  21.5699482  74.1113806   4.9930656  45.2996731  76.5418959
   5.8140779  45.4577923  77.0079136   5.1569915  45.6164789  75.6536436
  38.7547326  39.6449828  66.0656881  38.8152695  40.5804968  65.8723402
  38.8711333  39.2170691  65.2174139  44.6830320  22.6461744  71.1611366
  44.0228271  23.1355357  70.6703329  45.3674650  22.4572301  70.5191994
  53.5083103  25.5911350  82.4546528  53.8054228  24.8465586  82.9776859
  54.2201996  26.2278390  82.5183201 103.2803855   8.1210125  14.5921918
 103.6987123   7.2799099  14.4083902 103.9261064   8.7738264  14.3217965
   4.0107298  19.9662721  72.5376368   4.2682925  20.4823256  73.3015633
   3.0903074  19.7533715  72.6916742  46.1241388  12.8638339  87.9510021
  46.7266226  12.8744709  88.6947346  46.6636801  13.1172109  87.2020531
  88.4124252  13.3695591   0.3144761  88.5447464  12.8328407   1.0959264
  87.7589950  12.8917921  -0.1963977  25.9650564  10.1203787  46.1192656
  25.7433677  11.0017192  46.4198065  26.8227911   9.9441653  46.5058851
  61.5678549  38.9230204  86.3715839  61.3029957  38.0165958  86.5280247
  61.9795370  39.1971016  87.1911144   2.3097688  59.9170780  21.0481763
   1.3816085  59.9138212  21.2821412   2.3505598  60.4238558  20.2371621
  11.1391151  42.3533154  67.6252794  11.6139841  43.1486845  67.8663635
  10.2816296  42.4515772  68.0391598  37.3552704  57.6001501  82.4476910
  36.6709018  57.3127651  81.8433094  37.6507092  58.4389496  82.0936298
 102.7577796  28.7442923  45.3782177 103.4289940  29.4260621  45.3483534
 102.5705447  28.5521102  44.4593906  28.3245182  80.8957577  78.5277510
  27.3938465  80.9824848  78.3214474  28.5760951  80.0530529  78.1498623
  20.1662922  76.8799257  66.2184954  20.4342794  77.5865507  66.8059444
  19.7465658  77.3261261  65.4829884  34.2027736  37.2199178  82.8550911
  33.3017659  37.4944425  83.0255413  34.2189002  37.0186543  81.9194317
   7.1671575  96.3937664  84.6665573   6.2996107  96.1948395  84.3143940
   6.9953585  96.7587852  85.5345917   5.6583381  44.3127251  58.7190056
   6.5058374  44.4233513  58.2880306   5.6708670  44.9446964  59.4378185
  24.7084308  49.6472263  49.7417784  24.0856957  49.0039015  50.0802565
  24.5888734  50.4140854  50.3020144  55.0536442  35.1770830  54.9774885
  54.1157913  35.3416681  54.8796558  55.1984167  34.3432474  54.5302868
 101.3013300  60.6770277  62.8746605 100.5845400  61.0665607  62.3739529
 102.0526024  60.7096338  62.2824097  53.4329224  30.4576397  79.3906736
  52.7842569  31.1507869  79.5132160  53.1312370  29.9813175  78.6171532
  25.4623461  56.1263371  33.4853601  25.6425595  55.4749584  32.8075242
  26.0941100  55.9324789  34.1778398  27.6546049  33.9478540  63.8419390
  27.9457831  34.4239068  64.6196413  28.2805204  33.2291746  63.7527227
  49.5473289  62.7464628  52.5559759  50.1648235  62.0663929  52.8251362
  48.9219856  62.8017569  53.2785511  23.6781836  69.1777229  33.1719518
  23.8009071  70.0548601  33.5349941  24.0666580  69.2235804  32.2983289
  48.0830574  49.0175200  55.9506178  48.3777285  49.8700047  55.6301928
  48.7382317  48.7669230  56.6019154 106.8652912  40.6965065  34.5140004
 106.1918440  41.2068415  34.9637294 107.5888237  41.3108969  34.3904877
  30.7136583  48.8622093  78.5992527  31.2242413  49.5155621  79.0774441
  31.0390639  48.0214977  78.9210415  52.3175399 100.3356484   2.3510476
  51.8262796 101.1561040   2.3928949  52.3614721 100.1301555   1.4172002
  26.8018174  44.7226810  88.4040642  27.0789647  45.4705667  88.9332962
  25.9165239  44.9470282  88.1174374  56.0112476   8.8382059  49.1589975
  55.6781101   9.3464833  48.4194660  56.4700985   9.4787210  49.7025299
  48.8156509  51.4427996  55.0532198  49.4652510  52.0584917  54.7138453
  48.5870743  50.8969116  54.3008947  19.1819859  19.9284124  60.5283022
  18.8731384  19.0614378  60.7913637  20.1364398  19.8603952  60.5532026
  15.5781710  77.9287672  74.1446447  14.7844112  78.4225655  73.9388704
  15.9095550  78.3316183  74.9472189  13.2727134  20.7636952  65.0274467
  13.1730103  20.9574151  65.9595203  14.2050421  20.5751896  64.9203873
  38.3004236  48.1442881  62.1894979  37.9893088  48.2320786  63.0904627
  37.5166178  47.9249239  61.6857529  40.3294230  52.2386217  47.1118641
  41.0661316  51.7349005  46.7658091  40.0518322  51.7537975  47.8891182
  20.7803202  54.7577381  64.5381355  21.6062069  54.4249821  64.1868305
  20.7883263  54.4948959  65.4585075  18.3648980  55.2054548  34.3534040
  19.0019608  54.5130873  34.5294929  17.5150466  54.7956800  34.5148587
  27.3459744  34.2657328  57.3775101  27.9654670  33.5435987  57.4823189
  27.8426981  35.0453711  57.6258326  97.3244771  80.7100391  65.1350069
  98.0268630  80.0627136  65.1970816  96.5421721  80.2435875  65.4293776
  39.8099613  68.8579321  86.8607330  39.2494321  68.2390547  86.3927269
  39.6704769  69.6927595  86.4136982  31.2736320  72.3921013  41.3556147
  30.9305978  73.1427240  41.8405056  30.5649710  72.1471834  40.7605982
   1.9722813  34.1261673  41.4868116   2.7291253  33.6997938  41.0847855
   2.3491949  34.7256708  42.1308327  65.4034548  79.0024451   9.1550752
  65.1799970  79.2195539  10.0601503  66.0887651  78.3384208   9.2302533
  61.8485403  17.7929366  56.4217472  62.5289488  18.0147505  57.0574188
  61.5429544  18.6384380  56.0931444  56.5086794  90.8756638  71.5259171
  56.8465900  89.9840546  71.4417267  55.6756163  90.8615685  71.0547018
  39.0346408  76.9672346  56.2905216  38.5320878  76.7570877  57.0776129
  39.7213721  76.3011265  56.2598801  13.8909292  28.0199981  87.3619652
  13.0877268  27.7138162  86.9408321  13.5960233  28.4116244  88.1840897
   5.7318878  26.1090064  59.0053988   5.3538030  26.7933416  59.5576382
   5.7714093  25.3385615  59.5720387  19.9438572  54.5845270  72.7863789
  19.1401184  54.7197628  72.2844362  20.3840160  53.8593674  72.3429441
  47.5642054   4.0003308  65.7842302  47.3223715   4.4839486  66.5740824
  47.7023487   4.6773061  65.1217651  45.4975080  72.0022678  42.3550415
  46.4283562  71.8453550  42.5135756  45.3951120  71.8999195  41.4088535
  71.1367278   8.9906606  38.8903069  70.5156450   9.0574750  38.1650329
  70.6212573   9.2057523  39.6676445  29.5386863  64.9642801  84.2257786
  29.3666077  64.0228033  84.2100716  29.4550776  65.2076912  85.1477242
 105.2650604  22.0139444   1.9950029 105.2179703  21.3809812   2.7114984
 104.3534145  22.1546019   1.7393705  30.0586891  51.8106556  55.2064848
  29.3668938  52.4193859  54.9474478  30.5956674  51.7098379  54.4205284
  33.0736566  92.9229355  49.5551920  33.9706659  93.1970024  49.3641615
  33.0768609  92.7293205  50.4926014  22.1548271  97.1674919  32.4881864
  22.0496535  97.8242016  33.1765914  23.0862141  96.9475269  32.5072908
  47.5491524  60.8560848  54.7828007  47.7087116  61.7945766  54.8828173
  47.2978306  60.5612421  55.6580925  13.1338573  52.1318531  86.3682652
  12.1862233  52.1169043  86.5024185  13.4930158  52.3702335  87.2229099
  12.8003609  77.9071426  65.1732922  13.6603522  77.8419018  64.7580910
  12.4486506  78.7425613  64.8656988   3.2138991  83.0930424  66.4855003
   4.1648865  83.2017326  66.4789438   3.0645418  82.2631741  66.0324621
  50.7603645  17.9530239  58.6932850  50.2663755  17.9063845  59.5118380
  50.5409622  18.8108611  58.3296776  30.8969712  42.7010393  53.5066128
  31.7481589  42.2890806  53.6549377  30.2631545  41.9965601  53.6415768
  44.6347237  66.6778088  53.2649517  44.3512249  67.2351456  52.5402212
  43.8733292  66.6310310  53.8431597  25.6423140  36.9927239  71.6619444
  24.9661350  36.3347149  71.5005827  25.2562785  37.8130960  71.3550282
  40.3061390  57.9547358  66.5916872  39.4291043  57.8162670  66.9492722
  40.5224085  57.1278286  66.1607742  32.1445179  40.2670431  75.8164215
  31.5776515  41.0330296  75.7260990  33.0322957  40.6147480  75.7316685
  98.6275134  19.7327173  12.0745965  99.2409882  20.4389704  12.2773095
  97.9282341  20.1579941  11.5782281  23.2735848  69.8451567  80.2959251
  23.0198359  70.0348711  81.1991787  24.2297077  69.8060322  80.3189278
  41.4408445 102.2084427  79.5486736  40.9516668 102.9783344  79.8388672
  42.2939396 102.2921467  79.9746466   1.6662532  57.2395897  53.3819389
   1.1501832  58.0300760  53.2237053   1.0919209  56.5214205  53.1162262
  53.7216377  69.2711544  58.4415627  52.9904890  68.7895679  58.0546093
  54.5023108  68.8188744  58.1218338  15.4953361 102.1040821  64.5304203
  16.0265255 101.5201855  63.9890003  14.5972538 101.7988396  64.4019413
  70.9303546  41.1612499   3.0148526  70.5660513  42.0167244   3.2421991
  71.8228188  41.1815155   3.3602926  22.9688978  62.0077372  87.2340298
  23.7191272  62.3888826  86.7778301  23.3277965  61.6927099  88.0635929
  48.8551283  61.4633703  58.6210871  48.5445690  60.7605076  58.0503273
  48.6916780  61.1417961  59.5077133  91.4342115  10.4614962   9.9193021
  90.6596408  10.5047739   9.3585893  91.0907218  10.5433405  10.8089944
  16.6675818  80.3518963  48.2425833  17.2777653  80.9806156  48.6281061
  17.1417761  79.9843884  47.4967241  42.3928595 100.1059532  60.4362822
  43.2719374  99.7835445  60.6350374  42.2238016 100.7688236  61.1058092
  28.8003445  60.4610062  81.6280270  28.2100320  60.3293467  80.8861160
  29.6582603  60.1881027  81.3028622  24.9641967  55.5763388  44.0007734
  24.3450642  55.9557772  43.3771276  24.6183515  54.7019243  44.1797209
  40.1007175  68.0667257  38.9341354  40.5402470  68.7402582  38.4151006
  40.7873106  67.4291468  39.1298962  69.8105288  58.8401508  18.7072217
  69.1290855  59.3643188  18.2863724  70.5340290  59.4520712  18.8426268
  35.6955647  81.3238716  57.4530077  36.1115837  80.8903694  56.7078686
  36.1575270  80.9810448  58.2180500  11.8560983   8.2902420  33.9336988
  12.2432185   7.4887550  34.2858239  12.5902511   8.7538994  33.5308763
  41.1520720  63.9357662  56.9402504  41.8106699  63.2715082  56.7371655
  41.6559649  64.6794415  57.2708082  48.1693745  86.0824776  53.8105345
  48.2759428  85.1429367  53.9593077  47.9987335  86.1584854  52.8717375
  23.0430627  96.7276382  80.5626774  22.7284670  96.1264038  81.2377834
  22.2468948  97.0601273  80.1481915  68.7335496  14.4048604  68.5723066
  68.9053826  14.9937543  67.8375244  67.9250197  13.9521417  68.3324051
  43.9185238  36.4230013  67.4973536  44.4882917  35.6985569  67.7557707
  44.5167351  37.1529698  67.3376131   5.1027262  62.7490282  84.0652847
   4.4323319  62.2490931  83.5995865   4.9937761  62.4990225  84.9828148
  87.7167305 103.0595970  82.9130745  87.3549589 102.2183037  82.6345444
  88.2322963 103.3584118  82.1639824  28.1594062  66.2678719  89.4217873
  27.5405240  66.9940996  89.3455791  28.8698792  66.6142893  89.9616432
  50.2225018  68.6898851  76.8426466  49.5851898  69.0302992  77.4704885
  50.1250792  67.7390480  76.8941355  45.8774757  92.4013424  84.4084454
  46.5507030  93.0767441  84.3257713  46.0700321  91.7836285  83.7030506
  23.8989830  41.6483259  54.6905756  23.3667445  42.1631336  54.0840006
  23.7880445  40.7436848  54.3980932   9.0920259  20.4199875   9.7172471
   9.8972179  19.9096954   9.6306440   9.3431808  21.3084352   9.4646283
  50.6389189  77.6046944  46.8902588  49.8849821  77.9503727  46.4124346
  50.8055830  78.2520199  47.5754023  46.1682606  62.1495295  59.0809107
  45.3079891  61.9286299  58.7240267  46.7898846  61.7685127  58.4607172
  48.4968615  69.3961334  74.8254871  47.5550365  69.2428970  74.9011087
  48.8328409  69.2648029  75.7121086  21.0168529  68.0851603  73.6666775
  21.4981365  67.7999926  72.8899670  20.3465128  67.4136591  73.7930155
  29.1863537  67.2545624  51.1199760  28.5413480  66.5940094  50.8672428
  28.7385321  67.7875614  51.7769384  19.2522681  59.1611528  69.2399597
  18.4945691  59.7134686  69.4324875  19.2535925  58.5049629  69.9368382
  43.4632158  51.1592245  60.8503246  43.4728527  51.4549732  59.9400091
  43.0509663  51.8770170  61.3310051  51.7743063  78.5806465  53.5691309
  52.1253109  78.6563921  54.4564247  51.2439108  77.7840710  53.5885668
  42.0715809  98.4455395  72.8869867  42.6090956  97.7005672  72.6180410
  42.7022123  99.0993404  73.1887865 108.8337359   8.7442863  21.4179822
 109.4515810   8.5225475  22.1146413 108.1974277   9.3233574  21.8375226
  48.1837749  29.3198752  80.7348156  48.5510540  29.9363565  80.1013374
  47.8623343  28.5923123  80.2023125  47.7344513  77.0904732  40.7861280
  48.4343576  77.3678446  41.3772535  47.2183418  77.8828144  40.6375933
  34.0477037  49.5711470  73.8092613  33.9077783  50.5044699  73.9691448
  33.9477038  49.4727182  72.8624010  41.9815302  78.2870579  42.5710487
  42.8584957  78.5380411  42.2809219  41.5758896  79.1091919  42.8463364
  51.7732923  97.9230193   7.6632806  51.4186160  98.7448529   7.3241159
  51.8999498  98.0845527   8.5982057  22.9914045  90.8044052  69.5236349
  23.7626743  90.2409363  69.4613647  22.2789693  90.2758408  69.1640615
  35.8807182  38.9396358  71.9689751  35.7291651  39.4993186  71.2073851
  35.7423115  38.0500603  71.6438103  15.1156570  38.7415684   7.2184774
  14.5855285  39.1584194   6.5391942  15.5808497  38.0401791   6.7625257
  95.5585011  31.4338946  67.6566076  96.0733756  31.4979577  66.8522215
  96.2103196  31.4148378  68.3573198  36.2248087  96.7942047  66.1449385
  35.8518720  96.4393330  65.3379583  36.2693048  97.7382660  65.9933233
  35.9588099  45.5297804  50.9563971  36.5036941  46.2159252  51.3418055
  35.3741384  45.2617598  51.6653061  38.1714487 103.0783939  62.4097967
  38.4496784 103.8938141  61.9927645  37.5590587 102.6874638  61.7865896
  34.6841478  51.6582108  55.1123619  34.0483642  51.9561386  54.4617844
  34.2216778  50.9815741  55.6068468   9.4461977  44.6849298  87.4848366
   9.4711131  43.8303709  87.9153538   9.8881215  44.5442533  86.6474915
  21.6779566  95.1938343  82.2059536  21.9129229  94.3599415  82.6129436
  20.8804321  95.0030613  81.7121983  43.1644516   1.8761548  83.9811230
  43.4074502   0.9724053  83.7800980  43.3300649   1.9655999  84.9196339
   3.2300283  14.7644556   0.9714338   3.7876082  14.3029440   1.5978071
   2.7515818  14.0695465   0.5193158  36.1014152  93.5015678  51.7018986
  36.4392686  92.6078892  51.7604494  36.1036158  93.6975479  50.7649803
  23.9128804  58.3716536  54.6070004  24.5368195  58.9761782  55.0088501
  24.3438125  58.0822277  53.8027859   3.7663198  62.8940821  59.1361904
   3.9806846  63.8138437  59.2921352   2.8503257  62.9053736  58.8585949
  92.3175959   4.4927033  65.9402466  91.4063649   4.6582040  66.1821270
  92.2631936   4.0299710  65.1040983  80.9921900  19.1528738   3.8420888
  81.3962421  18.3922375   3.4244653  80.4891733  18.7874830   4.5698854
   8.1014730  13.4669006   2.2763654   8.8639928  13.9318741   2.6207372
   8.3939029  13.1178558   1.4344140  17.3261952  74.8711872  82.8376007
  17.3761499  74.2616081  82.1012974  16.9878030  75.6809950  82.4555779
  60.7295661  11.2975606  53.2170200  61.2433390  10.4904660  53.2464743
  61.1936717  11.8542394  52.5917625  27.4816799  72.5227976  54.7894955
  28.1314230  71.8509388  54.5829105  26.7674780  72.0440054  55.2100992
  24.9899340  52.6909637  79.3663025  25.3748775  53.1412888  80.1181412
  24.0605950  52.6150799  79.5826483 111.4122417  72.8155851  86.5352726
 111.4554097  72.0069027  86.0249805 110.4842350  72.9156542  86.7474556
  15.0012839 102.9871559  69.5019817  14.6761394 103.7447548  69.9883461
  15.0906479 103.3006573  68.6020041   3.7667957  59.3166399  29.1628861
   3.5090235  58.3950472  29.1416955   3.8307047  59.5261049  30.0946975
  22.7848579   8.2398451   5.2413770  22.4800778   9.0237034   4.7843190
  23.4732915   7.8865135   4.6779462  62.0214033  78.1430674  58.0747509
  62.9102087  78.2571077  58.4112883  61.8381834  77.2110653  58.1932306
  48.3942270  68.2339334  58.9040327  49.0209675  67.5144196  58.8283253
  48.2889605  68.3616734  59.8468113  92.1161465   4.1779241  87.0627022
  92.3846583   4.7723969  86.3621807  91.5471558   4.7075089  87.6212883
  52.1039534  68.6805248  60.7788658  52.7428722  69.0714836  60.1829052
  52.5226927  68.7204742  61.6386890  73.6522131 105.0664882  31.3020917
  73.7786226 104.1180591  31.2749692  72.8934150 105.2231482  30.7400247
   2.4046427  29.8461628  40.5694056   2.4881291  29.1252160  39.9453068
   1.4663556  30.0338387  40.5944347  33.9921021  60.3465986  69.8782682
  34.3254042  59.9347210  70.6754494  34.1967988  59.7220278  69.1823959
  15.7969224  58.0767822  77.6542759  16.0014486  57.5150728  78.4018612
  16.2699258  58.8902998  77.8294516  20.3303289  49.8493195  72.5563240
  20.3440285  50.2321529  73.4335232  21.2526870  49.7114515  72.3407364
  41.2083626  68.9766455  66.7070007  40.4857159  68.3804655  66.9034243
  40.9070158  69.4765186  65.9483528  18.3008611  62.2248173  47.2788239
  18.1567895  61.8983459  48.1670189  19.2153192  62.5075960  47.2729731
  26.3759422  67.9326200  67.0260572  26.4517617  68.4016037  67.8570414
  26.0274553  67.0741367  67.2664690  54.9713278  79.6292782  73.7866068
  54.5781040  79.8418760  72.9402018  55.3214359  80.4617310  74.1039133
  54.9336819 101.8863944   7.3463937  54.8724668 101.0978106   6.8073007
  54.8342197 102.6087550   6.7262861  18.6107123  67.1092129  89.4399548
  18.6252534  68.0256081  89.1638374  17.6970613  66.8427229  89.3377018
  62.7646351  79.3895435  61.5556240  62.4287224  78.9339828  60.7837009
  63.6492729  79.6590471  61.3086081  66.6755915  98.0555630  52.7523899
  67.5387621  97.7743340  52.4489498  66.7959404  98.2337761  53.6851215
   0.7529808  38.0398167   8.3635637   0.6897737  38.4094513   9.2442533
   1.6816641  38.1071270   8.1416436  27.3489571  53.4264374  75.4298067
  27.9562664  52.7239752  75.1975298  26.4815617  53.0300617  75.3476715
  47.1685505  43.8746595  57.7414989  47.5933361  43.1820726  58.2475710
  46.3157034  43.5099220  57.5051785  35.4106474  66.4131546  58.9115143
  35.6531024  66.7216825  59.7845888  34.4535255  66.4253378  58.9104128
  86.0195896  30.9104336   3.3855459  86.6138241  31.0441387   2.6471444
  86.5965542  30.8195579   4.1438886  95.4059081  21.7072019  58.5269737
  95.9452491  22.2825250  57.9844379  95.0250392  22.2873887  59.1861725
  31.9987798  75.2137804  71.2959385  32.9442191  75.2344608  71.1477900
  31.8851185  74.6157169  72.0346069   3.6391434  94.3378639  75.2024841
   2.8322971  94.8027611  75.4240799   4.2358643  95.0234509  74.9022770
  82.9030609  64.1365147  56.7191458  83.0374527  63.3239841  57.2069645
  82.8561401  63.8612413  55.8035851  45.8599758  73.8018942  82.0276546
  45.0350285  73.6168528  82.4764919  45.7465982  74.6832418  81.6718388
  74.8201180  90.5238628  25.4604411  73.9431095  90.5684280  25.0795150
  74.7788000  91.0987282  26.2246728   8.1946040   8.6440981  14.7542116
   8.7189866   7.8598822  14.9162504   7.5419665   8.6447323  15.4544183
  80.7811260  95.4766273  56.5162611  81.1950493  94.9801636  57.2222567
  81.3100433  96.2707615  56.4398718  83.2623391   0.4928502  85.4569626
  82.6840739  -0.0475398  85.9953117  84.0360741   0.6329163  86.0028076
  78.9169936   0.5639943  78.7417507  78.6261658  -0.0616828  78.0782938
  79.8196988   0.7690534  78.4982157  66.8606472  76.4145994  62.1912432
  66.1406851  75.9654570  61.7483377  67.5448990  76.4846373  61.5255642
  57.5842667  74.9076223  46.3995457  58.0139875  74.4329071  47.1110296
  58.3040476  75.2232027  45.8531427  65.2550745  93.0114555  78.5417223
  66.0652113  92.6890755  78.1467867  65.0135803  93.7688732  78.0085802
  29.4776320  98.9359570  81.7927456  28.8581038  98.8025951  82.5101280
  29.9457598  98.1039715  81.7227745   2.3137614  99.1128520   2.7687665
   2.4837872  98.2602719   3.1693193   2.0035311  98.9057378   1.8872377
  65.1065016  91.5204239  88.4859467  65.9311438  91.6004658  88.9653111
  64.6333838  92.3279285  88.6867428  69.6001863  66.7204571  50.0778437
  69.8655462  66.1852646  49.3299198  70.1150656  66.3810539  50.8099174
  46.2554836  73.5908127  60.9391832  46.5372515  73.8605356  60.0650597
  46.1584044  72.6405859  60.8769655  99.1606522  94.0239239  35.2582002
  98.2929802  93.9202404  34.8675251  99.6049976  93.1954765  35.0780058
  40.6508303 104.0604401  76.2145138  40.6747007 105.0058746  76.0668230
  41.5105391 103.7515831  75.9286213  64.7959328  89.7419357  55.6521988
  65.7477331  89.7210026  55.7515144  64.6167660  90.5865002  55.2388859
   7.7782823  17.3912228   0.0984021   7.0219613  17.1691120   0.6414338
   8.5255576  17.0141876   0.5627843  92.9874039  98.9085960  72.3731279
  92.6170158  98.0504417  72.5795650  93.9046669  98.8437939  72.6389360
   2.9715391   4.1798409  52.5997448   2.0404955   4.3855962  52.6837015
   3.3574625   4.9679383  52.2173786  37.1639109  95.0982475  60.4189825
  36.9173861  94.4993973  59.7141171  37.4270749  95.9014797  59.9697685
  37.3464727 100.2343941  75.5978537  37.8627110  99.4631481  75.8321857
  37.9942822 100.9287453  75.4776478  33.5937548  63.2370472  46.8198204
  33.4011245  63.1900072  47.7562523  33.7796760  64.1622686  46.6597176
  80.1608372  99.7979736  72.9717064  80.6144238  99.6984100  72.1346998
  80.1341343 100.7434464  73.1186676 104.5813708   3.9255151  70.7727385
 105.3644852   4.4590768  70.6375504 103.8845734   4.5605287  70.9384537
  28.0289984  62.5995350  60.5341530  27.5966048  62.1596193  61.2660933
  27.6389003  63.4734440  60.5157232  28.2067108  58.9482164  45.6373835
  28.4311318  59.8407221  45.3741264  27.2637010  58.8839054  45.4863071
  89.0226078  53.6397886  43.8006258  89.5240211  53.3276939  44.5538902
  89.2733002  53.0537033  43.0865622  23.9618611  68.1268549  57.5771666
  23.7102079  68.0437899  58.4969521  24.9107146  68.2511282  57.5987387
 104.3714719   6.0007104  84.2704487 105.1491313   5.5355653  84.5788670
 103.9694648   5.4033193  83.6397839  76.8079329  88.0441952  52.0990229
  77.2160482  88.4503078  52.8637171  77.1216631  88.5613251  51.3571453
 101.9711928  33.7353143  61.5895939 101.2914948  34.4083032  61.6261196
 102.4571519  33.8410672  62.4074507 104.4794902  54.6985329  12.6752206
 104.1441259  54.4729889  13.5429117 105.1251325  54.0183056  12.4837323
  39.4082451  97.1864223  60.3361273  39.8936176  97.0273209  59.5266008
  39.8088193  96.5971661  60.9753084  84.3599415  64.6341896  77.4713945
  83.4232330  64.4559956  77.3873758  84.5173931  65.3712988  76.8813848
  52.1185160  91.6230488  84.7274971  51.9124222  92.0790672  85.5434608
  53.0675936  91.7094612  84.6379471  60.4698706  79.0284967  66.1129284
  60.6718731  78.6007643  65.2807808  59.7511339  79.6261168  65.9067726
  49.8522615  70.2801371  47.4458647  50.6797266  70.7613182  47.4444675
  50.0602484  69.4472504  47.8692722  72.8892328  33.3054912   9.0687391
  73.7169552  33.7631500   8.9215871  72.7918530  32.7354324   8.3059903
  35.4902577  60.0433969  63.7729597  35.1961303  59.1401768  63.6549997
  35.9526443  60.2526426  62.9613876   5.4746538  91.0136700  76.7559910
   6.3350165  91.1786461  77.1417236   5.3884912  91.6761494  76.0704756
  42.1186972  75.9991503  83.0631447  41.5671778  76.2970352  83.7865543
  42.2669411  76.7842293  82.5359726  36.0867906  74.7406244  53.1834269
  36.5073514  74.5620394  54.0245342  35.4781318  75.4561806  53.3671188
  61.5974092  87.6616478  64.6488619  62.1249962  87.8475666  63.8721275
  61.9110060  88.2831955  65.3058004  71.3829803  81.6786575  68.6707115
  70.4441595  81.6067982  68.8430023  71.7567778  80.8804131  69.0439701
  21.5735316  64.3868637  52.6738358  21.6230869  63.8878250  51.8585205
  21.6785884  65.2989578  52.4031401  69.6824837  80.1314163  33.8091636
  70.3115463  79.4537210  33.5616994  68.9212036  79.6466351  34.1280222
  42.8761911  81.9690418  27.9039979  42.0964289  82.3389530  28.3179736
  42.5476503  81.5423203  27.1126723  48.4542942  64.0077448  57.6809120
  48.7128687  63.1371212  57.9832172  47.9361725  64.3672323  58.4010172
  74.9421840   4.0911874  53.1420231  75.8854966   4.2515859  53.1678200
  74.5527367   4.8980531  53.4789658  24.6736264  79.2082596  47.5133753
  23.7917519  79.5773935  47.5610065  24.7112870  78.5836840  48.2377529
  51.0315704  96.7028904  64.1381454  50.7994795  97.5903320  64.4116545
  51.8826723  96.7988491  63.7107706   7.5336076   0.6137836   0.1681253
   6.9383241  -0.1355707   0.1865598   7.5377227   0.9386099   1.0685178
  31.7430758  78.2199764  73.5333157  32.3898745  77.5261307  73.4050226
  32.1785235  78.8501883  74.1072893  68.9006329  86.4944172  69.4407654
  69.5493317  85.7908058  69.4593000  68.7024593  86.6130829  68.5118532
  69.7196627  75.8266163  60.1457310  69.5773220  74.9348927  59.8282528
  70.6574488  75.8672762  60.3331947  59.9547529  97.4371433  42.7289534
  59.9179459  98.2497120  43.2335472  59.4722414  97.6320362  41.9255638
  45.0413561  76.5367889  50.0106239  45.0850821  77.1499062  50.7443857
  44.1083765  76.4742851  49.8059988  72.8077841  69.0485859  25.1549816
  73.6979485  69.2780399  24.8881674  72.7712202  68.0956268  25.0727201
  69.2056847  99.5176506  67.2993898  69.2157316  98.5936642  67.0496178
  68.8451147  99.9682808  66.5357494  18.8381827  81.1733150  70.1961184
  18.0005467  81.0455894  69.7508287  19.4548118  80.6282043  69.7073889
  50.7202196  83.4028053  69.1829872  51.3338852  83.1387234  68.4974861
  51.1178207  83.0877876  69.9947214  40.6866360  82.2570992  21.9749832
  40.8993769  81.7725468  21.1773705  39.8828101  81.8485546  22.2962093
  34.6976495  75.9169865  66.9120550  33.9482212  76.4497185  66.6460037
  35.3232956  76.0078430  66.1933422  56.1962652  77.1984386  28.9184499
  55.7544899  77.2868061  28.0739021  55.9941435  78.0118656  29.3807459
  11.9653606  74.5027637  83.9158249  11.7866600  75.2602816  83.3586311
  11.2640548  73.8842392  83.7112999  50.3680706  67.2601461  68.8158131
  49.8679543  67.0629597  69.6077919  49.9785328  66.7033005  68.1417084
  39.2997885  91.3919163  47.8948736  39.1827464  91.8987083  48.6984253
  39.5136738  90.5093193  48.1973553  37.8744292  68.8418007  73.5012150
  38.1546521  69.6542740  73.9226294  38.6807680  68.3373642  73.3935499
  54.2246723  73.8895035  59.6855593  53.5200930  73.3501434  59.3265438
  53.9088106  74.1515875  60.5502987  62.5363541  84.9038506  73.9183712
  62.7409172  84.0075874  73.6517286  63.1943035  85.1125145  74.5815372
  20.8721305  11.0128773   1.4009210  20.6857301  11.9502581   1.3479539
  21.5391303  10.8630741   0.7309171  59.8679590  87.0406532  28.9888525
  60.8102655  86.9154453  28.8765264  59.4984674  86.1611176  28.9105844
  18.6997151  80.9827709  80.4804039  19.0310180  80.3069973  79.8889589
  18.0967891  81.4966393  79.9431467  37.8914404 103.3510017  89.7389793
  38.5684776 102.9358006  89.2046928  37.1718407 103.5143375  89.1292858
  47.3998356  58.7017536  59.3434954  47.7110624  58.9752102  60.2063942
  47.6155329  57.7704287  59.2951536  38.7034512  78.3065319  86.9992447
  39.0905786  78.9788580  86.4385891  39.1377401  77.4953794  86.7353249
  56.8656397  57.7056789  90.4028320  57.3504829  57.3444605  89.6607494
  55.9757376  57.8264284  90.0715733  26.7260266  40.4309357  23.8871595
  27.0817567  41.2927521  24.1038820  27.1174527  40.2162731  23.0404397
  81.6600704  83.0096722  88.7698078  82.3938656  83.2530212  89.3342209
  81.6257954  83.7019730  88.1096745 100.7541947   0.2081498  48.8542557
 101.2154107   0.6604108  49.5606375 101.4309935  -0.3114978  48.4205008
  45.4280329  56.5552187  52.5668907  45.7991505  56.3186359  51.7168713
  46.1637735  56.4906836  53.1757832  73.9144564 101.4974785  63.3366156
  73.4118891 101.9752407  63.9964676  73.8589382 102.0429039  62.5519753
  47.0997953  68.6555386  81.9845486  47.3128176  68.2476377  81.1452198
  46.4375973  69.3126631  81.7702770  20.3319001  89.6186829  84.1094208
  19.5010567  89.2209625  84.3697166  20.4077673  89.4251251  83.1750679
  60.5557442  91.1293793  65.3584957  59.8640251  90.8179092  64.7747660
  60.2139235  90.9743309  66.2390375 106.8006310  36.9876850   4.2105886
 107.3644004  36.6786278   4.9197217 106.7712149  36.2574470   3.5924264
  42.1116114  91.9208241  48.0467415  42.5466347  91.0696220  48.0961752
  41.2895727  91.7976093  48.5214043  55.8666754  82.8597641  45.5734587
  56.1622429  83.7232876  45.8618832  56.6656399  82.4156666  45.2894354
  27.9111339  14.4201553   5.6552907  28.3067037  13.7234009   5.1315614
  28.1139947  15.2240026   5.1768419  37.0413852  60.2545691  61.5267754
  37.4590659  60.4484987  60.6876326  37.6733279  59.7021151  61.9868565
  67.7209377  59.9933147  48.1663275  67.1753359  60.5225372  48.7481117
  68.3882093  59.6170712  48.7402868  37.3029160  98.0006218  36.1099839
  37.2591949  98.0015659  37.0661831  37.5666499  98.8919353  35.8814049
 103.2008748  10.9071263  73.4640408 102.6225571  10.7630166  72.7150345
 102.9096274  11.7401990  73.8347197  52.8636789  76.6781044  43.6451721
  52.8779745  77.6339054  43.6949348  53.2066441  76.3890839  44.4907904
 101.7067723  15.0184258  67.7341413 102.5976710  14.7992810  67.4611712
 101.2879472  14.1714105  67.8870821  73.3629923   7.1809110  29.5462680
  73.5731916   6.3762769  29.0723324  74.2143826   7.5658807  29.7540259
  42.7687120  80.0497723  85.9010601  43.2026052  80.3137875  85.0897217
  43.1665516  79.2077684  86.1223984  18.5517308  10.5716142  77.5727177
  18.6577030   9.6389970  77.7604294  19.3273922  10.9824284  77.9545593
  17.9586184  64.7725534  80.4879379  18.4649968  64.4795132  79.7303486
  17.0942569  64.9796915  80.1326847  22.1491909  67.0533562  81.5832615
  22.3968172  67.9721498  81.6868401  22.9705310  66.6052532  81.3811779
  56.1467648  79.4167328  51.8133545  55.2637672  79.2292976  51.4948988
  56.7037487  79.3304014  51.0397005  93.9586353  86.0213280  54.7577572
  94.3112278  85.9925842  55.6471872  94.5661640  85.4910851  54.2420197
  30.2841139  72.5794506  64.6001720  30.9840059  73.1908083  64.8295736
  29.5063877  73.1296682  64.5072603  55.1203156  69.0210962  67.5297976
  55.0983095  69.7473907  68.1528902  54.4613504  68.4072399  67.8541183
  66.0036545   4.5812138  51.5243673  66.4036779   4.7693261  50.6753540
  66.0044603   5.4223927  51.9811535  61.9023657  62.4418068  88.2486820
  62.4529552  62.0978498  88.9520836  62.2647142  62.0566845  87.4507999
  21.6089153  95.0822067  57.5043058  21.5461540  95.2823162  56.5703583
  20.7166600  95.1915646  57.8331709 103.0951366  43.0077255  15.4150697
 102.3199162  42.4465359  15.4330274 103.8322124  42.4000061  15.4752370
  10.5298483  78.9591885  57.5501823   9.8299181  78.3566999  57.8018475
  10.2200472  79.3604612  56.7382479  19.3418968  66.1355543  86.8838596
  18.5340929  65.8661842  86.4466858  19.0497792  66.5254402  87.7078056
   5.1847597   3.0572614  57.0163107   4.8552462   2.2186479  57.3393774
   4.4038960   3.6040219  56.9295120  53.2809353  72.1991920  40.4628801
  52.6415730  71.9057417  41.1119843  53.9152908  72.7102280  40.9655428
  50.9802485  88.0752468  67.4760723  51.7884827  87.9362297  66.9824409
  50.7346392  88.9801407  67.2835398  24.0467739 101.9350433  76.2050533
  23.3011913 101.7352676  75.6389904  23.6870909 101.9123745  77.0918131
  19.4776727  34.2957199   7.4830362  20.1186563  33.7782467   7.9704686
  18.7468577  34.4063938   8.0912229  34.3979144  63.3583307  59.6211576
  34.9990225  62.8059912  59.1213322  34.6866655  63.2660389  60.5290890
  20.6161118  89.8743248  62.3422194  20.3119063  88.9717484  62.4373245
  20.9289885  89.9277210  61.4391756  57.3152542  77.0964146  76.6562557
  56.5657282  77.6669121  76.8264818  57.3698854  76.5354729  77.4299431
  38.7927008  93.4559059  83.6753941  38.5850048  93.0709839  84.5268154
  39.1265750  92.7239895  83.1566811  73.6376762  84.5768833  65.1684475
  73.1803560  84.4656086  64.3349552  73.1431627  84.0388489  65.7866716
  44.5903254  79.8751116  31.1807895  45.0774527  79.4696474  30.4634762
  43.7086344  79.5096111  31.1082411  69.3115759  63.6694145  55.9098625
  70.1672316  63.4810925  56.2953758  69.4912577  63.7960815  54.9782467
  41.9823027  59.2806435  52.0167732  41.0877085  59.4550753  51.7243624
  42.3211002  58.6457825  51.3855839  87.6093674  77.7554083  51.8430614
  88.2557297  78.0584240  52.4807310  86.8342304  78.2899714  52.0152235
  35.2552438  67.7720737  90.2249718  35.3484058  67.1857262  89.4741440
  36.1374378  68.1122494  90.3741264  31.9388223  77.0436907  50.5168056
  31.8391585  76.6397715  51.3788652  32.4888945  77.8111076  50.6740284
  79.9468851  75.0036478  19.7362506  79.4743729  74.1791582  19.6214199
  79.2785025  75.6800222  19.6266472  93.4707260  74.1082954  43.5404015
  94.4117355  74.2799187  43.5762548  93.1994152  74.4389343  42.6840734
  29.6041870  76.5469980  73.1404209  30.2388000  77.1757174  73.4842348
  29.9892974  75.6910133  73.3280754  76.6000795  89.4731712  79.8848009
  77.2582245  89.4031715  79.1932964  77.0797300  89.2862129  80.6917763
  18.2631780  17.8482616   5.9123346  19.0391208  17.3686541   6.2023660
  17.9576160  18.3056391   6.6957017  79.0135098  75.7029009  71.4975405
  78.3206511  76.3360643  71.3097095  79.7491455  76.2354994  71.7998791
  49.2894554  82.5613308  80.4756927  50.0449419  83.1031799  80.2479458
  49.0612030  82.8304672  81.3654709  73.7510400   9.0285024  58.1359959
  74.3022685   8.2776650  57.9154778  73.8809662   9.1531190  59.0761137
  33.0105877  71.4772654  69.2075014  33.2703185  72.3549700  68.9274883
  32.1178389  71.5849113  69.5355940  59.1941881  80.2328491  77.9313231
  59.9191952  80.5071640  78.4928846  58.7399673  79.5598459  78.4382534
  38.9734316 101.1388874  77.8351688  38.6748123 101.8556690  77.2754478
  39.8360324 101.4180851  78.1420946  75.9902477  96.3701725  43.6978102
  76.4173269  97.0928288  43.2378101  76.6917229  95.9607983  44.2043447
  29.3471910  15.8408487  10.1715967  28.7318040  16.0176361   9.4600698
  28.8115312  15.4440058  10.8584806  65.4880667  92.1444035  74.6851206
  66.4367628  92.1458912  74.5578194  65.3056335  91.3097477  75.1167488
  23.4884025   8.1844175   0.8801004  23.6936809   8.6861074   1.6690275
  22.6753093   8.5711038   0.5551740  56.3946962  87.0777512  66.5565681
  56.8998003  86.4420319  67.0634794  55.8889818  87.5588512  67.2115612
  43.6754560 101.4523602  78.0873394  44.0424013 102.2866917  78.3796835
  42.7279282 101.5859699  78.1111288  70.5087376  87.1537399  50.5529118
  70.9859753  86.6478348  51.2105846  69.7292376  87.4675274  51.0113335
  74.1198063  70.7292986  42.2970819  74.1020632  69.9292707  41.7718506
  74.5982981  71.3591433  41.7580366  62.6450729 102.5664425  48.4227180
  62.4686432 103.5024834  48.3282328  63.5011435 102.5259018  48.8490152
  46.8964863  68.3988571  48.1207943  47.3465919  68.5930681  48.9429379
  47.5823259  68.0570078  47.5472069  69.7242212 103.8420582  55.2126789
  69.6220875 104.5422649  54.5680809  68.9215374 103.3263588  55.1353359
  32.7217293  89.1109753  49.9567270  32.1422696  89.8514080  50.1362181
  32.1334815  88.3599091  49.8786783  52.9952717  82.6884937  66.8852711
  52.6207447  82.8985310  66.0297918  53.0804777  81.7350960  66.8818760
  42.7819347  63.8537216  66.9489193  43.5740900  64.2370129  67.3254871
  42.7821255  64.1495562  66.0385799  87.9488087  89.2454529  57.3453236
  87.1884823  88.7442875  57.0504141  87.5808525  89.9387074  57.8932667
  76.0090780  91.1811352  57.1961927  76.2726164  91.3214874  56.2867546
  76.2613010  90.2766037  57.3817778  54.8094606  89.0201092  63.4284496
  54.9040413  88.1297970  63.7670231  55.1126766  88.9651966  62.5222111
  47.2543859  61.2821722  65.5339241  47.7795506  61.2556458  64.7340918
  46.3734579  61.5072393  65.2346849  46.5392065  71.8281221  87.8212166
  47.2046804  71.2450314  87.4560070  46.3068438  72.4095726  87.0972347
  50.4019642  75.2789879  69.0132475  50.0581169  74.7430182  68.2985878
  49.7095442  75.2697992  69.6740818  11.9423386   1.6576966  56.0255051
  11.1190792   1.3055524  56.3638353  12.5471588   1.6058072  56.7655897
  54.9477530  90.2621365  66.4605951  54.1272306  89.7696590  66.4394712
  54.7070265  91.1130238  66.8270350  43.3028793  62.0061255  58.2448816
  43.5290813  62.8521681  57.8585196  43.3696556  61.3857889  57.5189638
  30.2488399 100.0068092  56.4072514  30.4949856 100.9115314  56.2145853
  29.3953133  99.8964024  55.9882832  41.8095875  68.6101627  50.6909084
  42.7395678  68.4197283  50.5680275  41.4054680  67.7531004  50.8264303
  75.0368404  79.6551847  71.8951893  75.6681299  80.3407955  71.6769171
  75.1090145  79.5565891  72.8445578  83.4263520  98.5565404  11.3102838
  84.0905289  97.9125384  11.0645791  83.8910823  99.3933419  11.3062974
 103.0604844  10.6707009  69.1820335 102.4201875  10.6339654  69.8926020
 103.5637479   9.8613557  69.2710447  60.7967329  65.5575323  45.1012468
  60.1023197  65.3261900  45.7180977  60.4511213  66.3113832  44.6232414
  97.9382090   7.8736791  62.6175785  98.4146790   7.0441350  62.6502609
  97.9690270   8.1314477  61.6962576  74.8200798  88.2810116  64.2840910
  73.9408731  88.5008144  63.9760160  74.6856928  87.9395390  65.1681519
  34.5626259  71.4100170  51.6738272  34.8151922  70.8691740  52.4221087
  35.1970768  71.1875391  50.9924984  81.0857868  89.5594978  80.8557034
  80.6034088  89.9903011  81.5613556  80.6513786  88.7130451  80.7506180
  10.8157779   3.6098421  -0.2245215  11.6336108   4.0533865   0.0005456
  10.6362439   3.0432594   0.5258008 101.4700847 103.3544663  34.5690748
 101.6288428 103.1716231  33.6430093 100.7902245 102.7304534  34.8232957
  35.2933793   3.2421597  90.3460217  35.2320290   2.4632081  89.7931194
  34.6759828   3.0789956  91.0590649 103.5063347  68.6524475   1.9212743
 102.6919279  68.4727180   1.4515230 103.4618888  68.0963886   2.6991292
  18.8867856  18.5792148  13.5342714  19.6401788  18.9729441  13.0942651
  19.2647315  18.0916727  14.2661783  43.0179833  11.4769277  67.2839499
  43.3673553  12.3640164  67.3690891  42.9075270  11.1754426  68.1856918
 104.5179515  13.2654866  32.3092031 103.9954905  12.4675664  32.3904204
 104.1796546  13.6943063  31.5231371  43.9557552  79.1646671  76.3591671
  43.7982464  79.3245173  77.2896910  44.5167542  79.8894930  76.0832357
  53.2353449  92.2758293  61.1802578  52.9063320  91.4033222  61.3963985
  52.9573727  92.8250122  61.9133091  93.8819310  65.6422127   0.3268548
  94.4576749  66.4042461   0.3905889  93.8881025  65.2631843   1.2057992
  93.3614159  73.3945894  39.0178132  92.6743984  72.7997971  38.7170267
  94.0930271  72.8204346  39.2443371  70.4955435 104.0008926  80.4967022
  69.5569468 104.0003014  80.3088856  70.8152246 103.1799793  80.1223469
  27.8676605  73.7436914  64.5519018  27.4087477  74.1290331  63.8054800
  27.1693134  73.4574366  65.1406288  57.8198195  69.0376091  55.9836102
  58.1890821  68.5472965  56.7181015  58.1541586  69.9272871  56.0972977
  92.7352238  84.8039150  73.8384008  92.2847080  84.5955372  73.0199575
  92.1514511  84.4772339  74.5230341  95.6342220  96.0696316  52.5663757
  94.7777176  96.2498760  52.9538584  95.4840660  95.3186798  51.9921303
  71.7787647  97.0767307  68.8236904  71.5113449  96.3834572  69.4270849
  71.4386415  96.7984962  67.9733181  52.2432089 103.4390736  76.4897919
  52.6895714 102.8533745  77.1012974  51.4424515 102.9717636  76.2517977
  51.9761801  76.1820698  36.7223477  51.5611410  76.0943460  37.5804162
  52.0779943  77.1260595  36.6009164   2.5486899  59.1722191   0.6963178
   1.6846610  59.0009392   0.3216859   2.9068495  59.8789108   0.1591512
  68.9688730  94.9501610  71.2402344  68.1542063  95.4223537  71.0682344
  69.4372892  95.5011940  71.8672752  88.0539036  93.0767632  89.8722649
  87.2369576  93.5727310  89.9255753  88.2577896  93.0508423  88.9373875
  83.9875417   9.0232667  55.7560015  84.7115998   9.6047696  55.5240059
  83.3854966   9.0827092  55.0142193  87.7622561   8.7662133  80.9390450
  88.4963326   9.2634019  80.5782700  87.8529887   7.8935059  80.5564404
  73.1696033  87.1257019  76.1861086  73.4549952  87.6097012  75.4111767
  72.2468901  86.9318199  76.0210466  56.3336515  77.4217272  53.8778591
  56.0827351  78.3230448  53.6756372  56.7691612  77.1105623  53.0842972
  94.8390961  71.0734510  31.9719577  95.7774639  71.0787868  31.7830968
  94.4476509  70.6156254  31.2280464  41.8483400  78.4170389  50.3166723
  41.8533659  78.0789948  51.2121820  42.0521116  77.6564550  49.7724056
  62.6725578  81.7526436  58.7980366  62.2389507  82.5835037  58.9926672
  63.5832691  81.8910503  59.0581846   1.0412403   9.4908532  72.3720312
   1.4857002   9.2175206  73.1745100   0.3051039   8.8848790  72.2876453
  61.3415956  84.3846512  77.0460892  60.8650875  83.5544968  77.0497179
  62.2249508  84.1525173  76.7596817  50.5430079  69.9420786  64.8516035
  50.3227472  69.9185562  65.7828188  49.8318577  70.4411316  64.4498062
  65.1446916  44.1231239   2.9401895  64.5589543  43.4793079   3.3384916
  64.5748616  44.8587215   2.7156183  21.7719270  47.0983494  19.6371957
  22.0882989  46.3667095  19.1072484  21.7542697  46.7565620  20.5311223
  77.2904496   9.3573865  48.8176203  76.9364624   8.5806188  48.3845425
  78.2262759   9.3376645  48.6174440  83.9744854  85.1764965  58.8049078
  83.9984226  86.1287689  58.7108564  84.8613644  84.8916912  58.5845709
  58.9507818  72.9121351  67.3568296  58.6995125  73.8117456  67.1475554
  59.7862720  72.7860212  66.9070625  14.8265263   1.7194566  85.1048851
  14.7530743   1.4651212  84.1850185  14.0168663   2.1964940  85.2868652
  57.4920464  71.4583826  65.1143694  57.5404263  70.5846882  65.5023718
  58.1884050  71.9518185  65.5477715 108.0146079  12.5969609  69.6618938
 108.9134936  12.3037537  69.5126820 108.1040292  13.5037049  69.9552298
  35.6166073  29.1388806  49.0342569  34.7282597  28.7833795  49.0605927
  35.6005951  29.7705087  48.3152103  79.4370127  68.3971643  74.8418045
  78.6106586  68.1131172  75.2325535  79.5425081  69.3019390  75.1358891
  91.1344724  16.6481408  77.4521017  90.7809405  17.4934014  77.1750116
  90.7368808  16.0147485  76.8546295 101.1223273  16.2238797  60.1000357
 102.0243745  16.1882695  60.4182816 100.7252841  16.9467172  60.5859327
  37.2044660  59.8517788   4.4194814  37.0110990  58.9662922   4.1116735
  37.2016765  60.3871334   3.6259862  56.2759495  81.1480141  53.9158535
  56.9673252  80.7814693  54.4671011  56.3315868  80.6509972  53.0996943
  84.7681236  95.2306366  70.2258301  84.5812035  94.8903751  69.3508911
  84.2811012  96.0533810  70.2719402  49.4035511  11.1717614  67.9703140
  49.3022804  11.7124757  67.1869850  50.3170888  11.2934693  68.2289028
 110.5489635  69.7052097  88.5642910 110.5133057  70.3936768  87.9002285
 111.2772846  69.9574089  89.1318893  47.1705675  67.6417446  65.6063747
  47.0166254  67.2716331  64.7371483  47.9606676  67.2003937  65.9181213
  29.0549661  32.6163757  19.4609281  28.4571744  31.8841637  19.6117421
  29.5407439  32.3707092  18.6735841  62.9424858  99.2330074  90.6307983
  63.6729193  99.3778133  91.2322426  63.3364677  99.2803669  89.7597313
   2.2320935   5.8624562  42.1286821   2.9052445   5.2624139  41.8076801
   2.7222058   6.5734109  42.5416756  97.9331112  73.1041479  76.2943220
  96.9815159  73.2048225  76.3180494  98.1688023  73.2698965  75.3815222
  92.8877692  13.4483537  81.7227745  93.6340241  13.7509450  81.2053013
  92.1211152  13.7053880  81.2105179  20.1567265  32.8671845  62.5244522
  20.6721398  32.0878228  62.3166704  19.5204159  32.9304418  61.8121672
 100.6938462  11.8970021  49.7083378 101.4622168  12.2341641  49.2477369
 100.1114135  12.6524743  49.7874880  19.7006465  43.4750832   3.1357976
  19.1435576  44.2312706   3.3204004  20.0300456  43.2052887   3.9930841
  98.3881526  12.7513703  89.8436356  98.3126693  13.1343469  90.7176304
  99.2962651  12.4535283  89.7902679  43.4724092  60.0453472  56.1988974
  44.0419054  60.6488180  55.7216883  43.0356836  59.5370913  55.5153894
  49.3325631  12.3457822  76.5682840  49.4264321  11.4199838  76.7925739
  48.7988787  12.3468026  75.7736683  58.3463621  76.1683178  39.8699355
  57.5978947  76.7424440  39.7074342  58.2153034  75.4298162  39.2752314
  65.0881481  80.8671665  75.1764011  65.8405924  81.2959385  75.5840969
  64.3514156  81.0810184  75.7488775  90.6219482  37.2880507  65.8121347
  89.8045349  37.1191168  66.2806797  90.6972027  36.5623856  65.1924753
  86.7967033  83.9733315  76.4791203  86.3126183  84.1172886  75.6659985
  86.1907196  83.4835434  77.0351219  56.4886284  71.6866398  54.6574259
  57.2083759  71.3108397  55.1643515  55.7051373  71.4875460  55.1700020
  68.3249855  78.4240437  46.7676497  69.2210197  78.4674120  46.4337826
  68.1579208  77.4888086  46.8844891  57.7147007  88.9665413  55.0748396
  57.0843649  89.4820499  54.5716858  57.6094151  88.0733299  54.7472429
  98.9671135  99.3901634  54.7858667  98.1859016  99.1167736  54.3050289
  98.6848736 100.1561737  55.2856684  73.3476591  92.1441269  71.9022608
  73.1560612  91.4577389  71.2631989  73.9227676  91.7228699  72.5410271
 108.0051570   4.9385365  48.9179754 107.2761540   4.8332414  49.5292854
 108.0776744   5.8846864  48.7923908  83.3678055 100.2303505  64.0155697
  83.8481998 101.0178566  63.7600851  84.0479183  99.5755577  64.1734219
  69.3999863 101.9585419  78.5399008  69.1708755 101.8551826  79.4635105
  70.3545237 102.0298386  78.5364437  67.1855402  98.5583401  76.8422556
  66.8213415  98.0253696  77.5490332  67.0164585  99.4611740  77.1115732
   3.0228850   7.8647717  25.8354092   2.3292347   7.3492726  25.4238939
   3.7962052   7.6994714  25.2960730 107.4484067   5.6302556  69.9936676
 107.8142600   6.3127145  70.5563688 107.8473334   5.7862672  69.1376543
  98.1323624  75.0683069  45.3158474  99.0115261  75.4232121  45.1841211
  97.9254055  75.2734137  46.2276220  96.2907796   0.3311166  29.5442700
  96.0315566   0.9653195  28.8758206  95.5877118  -0.3184405  29.5436168
  70.7387018  92.1442223  78.1611776  70.8489275  91.3222313  78.6390924
  70.7509184  91.8885231  77.2388458  65.8845901  75.4297256  76.5371227
  65.8988285  74.6831560  75.9382391  65.5033398  75.0826073  77.3435879
  52.5537300  93.3109856  55.9582138  52.8534508  92.7811718  56.6969204
  53.0727625  93.0020237  55.2156687  84.4323254  65.0373268  52.5862265
  84.0673447  65.7442617  52.0539951  84.8564053  64.4564342  51.9545937
  77.5003433  76.5146446  77.4391603  77.8303051  75.8271790  76.8605804
  76.5486145  76.4677095  77.3484135  51.5569067 104.0504646  64.5178366
  51.7235899 104.0211010  65.4599571  52.4186611 103.9321041  64.1183376
  85.8571053  98.3152294  74.5457506  85.3917789  99.1268921  74.7480154
  85.3566456  97.9243279  73.8295412  81.5327267   6.6340836  70.8029556
  82.4244027   6.4471826  70.5093288  81.5995936   7.4780568  71.2495804
  57.6355934  82.8085709  79.0817928  58.3233356  82.2689915  79.4717789
  56.8245745  82.4804115  79.4701147  21.5664149  56.3851154  15.6904432
  21.4212419  57.2344005  15.2734491  22.1189118  55.9062755  15.0726339
  99.4671302   7.0198831  55.8555937  99.1188483   6.9955739  54.9643373
  98.7502770   7.3717698  56.3833570  44.6327400 100.2701664  81.3951683
  45.2528620 100.9985542  81.3615608  44.8617935  99.7973156  82.1952724
  99.9050045  78.0235100  77.5128794  99.4175911  77.2171450  77.3442364
  99.8529720  78.5111856  76.6908693  35.7925798  40.6852043   1.8274709
  36.5349580  40.4965580   1.2534353  35.1845695  41.1798084   1.2779924
  73.6649136   9.7470578  61.0562611  72.9135780   9.6624669  61.6432619
  74.3666391   9.2656335  61.4944983  96.3291487  33.1895817  12.2580739
  96.8055567  33.5038269  11.4896222  96.0971198  33.9847649  12.7377435
  36.5938640  78.4793663  84.9882221  37.4009800  78.3209991  85.4778290
  36.1949635  77.6139688  84.8976421  40.6868076  87.8043175  81.0471058
  40.7670021  88.2608891  81.8845654  41.5495300  87.4156284  80.9026337
  95.6651878  67.9532480  53.7677908  96.3495445  67.4507380  53.3257961
  96.0437107  68.1771994  54.6179676  83.9762688  95.2756882  34.4101620
  83.7789536  95.0178909  35.3106308  83.1405258  95.5853939  34.0610957
  70.6444311  83.4901142  88.4963703  70.1002121  82.7099514  88.6031818
  70.3741932  84.0699673  89.2083836  78.7332249  95.1082706  74.9495649
  79.3769455  95.7907104  74.7594643  79.1307449  94.3042469  74.6152687
  88.3083820  89.7592545  72.3154211  89.0606880  89.6587372  72.8986597
  88.3797169  90.6546402  71.9846296  26.7182347  10.5640229  32.2500157
  25.8626457  10.2331933  32.5234246  26.6323181  11.5163049  32.2949076
  92.9709964   2.2092828  78.9889526  92.8564505   1.9748982  78.0679893
  93.7420754   1.7153462  79.2676878  69.5908689  67.4726486  75.4898977
  69.3984747  67.1817923  74.5984840  68.8758516  68.0711746  75.7061148
  79.2488484   8.8810452  52.1876955  78.7566333   9.5885667  51.7713118
  78.5828738   8.3523854  52.6272726 110.5120997   3.8534841  87.0941257
 110.7294373   4.5994958  86.5351391 109.7254233   3.4786137  86.6980934
 109.3204217   1.0851869  76.0046768 108.7586789   1.7447385  75.5976582
 109.2889743   0.3403195  75.4043245   6.5813209  26.7953432   2.4119970
   5.8929635  26.1788404   2.6616403   6.4121247  26.9822157   1.4885923
  42.8315783  96.2400532  65.2162504  43.2995033  96.5682983  65.9840631
  41.9945097  95.9288979  65.5608130  59.2322731 100.2479076  51.8578863
  59.1233540 100.7405949  51.0444832  59.8103809  99.5221424  51.6227245
  10.4578115  56.4716137  19.0007802  10.7083226  57.3329819  18.6668416
  11.2493897  56.1393822  19.4241639  66.4356995  78.7173748  77.3026133
  66.9615126  78.3800554  76.5773726  65.5460167  78.4201717  77.1119261
  62.1127033  90.9233284  81.8151855  62.9080105  90.9537983  82.3469639
  62.1870041  91.6769791  81.2297630 107.8818850  26.4086636  67.5859118
 108.4933762  25.7406529  67.2759533 107.0753913  25.9275922  67.7713013
  65.3988247  22.9117307  46.4362812  65.0781421  22.0202264  46.5727377
  66.3325553  22.8644380  46.6415644  47.7739954 101.1898899  66.9619513
  48.2638407 101.2365532  67.7829933  48.3440018 101.6112614  66.3186979
  72.3671103  94.2532158  74.7551060  72.8587723  93.8263512  75.4567385
  72.8561068  95.0559235  74.5740604  20.5491735  20.0243032   5.0321218
  20.7440949  20.9402073   4.8337480  20.4348422  20.0041140   5.9822580
  61.9917679  66.2891960  52.8085279  61.8482113  65.3657198  53.0154419
  62.1832418  66.2975693  51.8707132  15.4456569  60.5523765   2.1330091
  16.3348104  60.4206932   2.4620935  15.3393794  61.5032185   2.1039888
  63.2239771  82.4553680  73.3312464  62.5456381  81.8554783  73.0210590
  63.9302969  81.8834877  73.6317253  46.2123251  88.9161396  47.6372480
  46.2273788  87.9618263  47.7099895  46.0478401  89.0830421  46.7091751
  86.5431690  84.4587421  63.6127663  86.4608192  85.3236675  64.0144444
  85.8459568  83.9405823  64.0148211  40.3433752  74.4104958  69.4185400
  39.4199991  74.4058847  69.1663694  40.6271029  73.5033512  69.3053532
  55.6129933  32.1519268   0.0005647  55.4234887  33.0511082   0.2685090
  56.4875699  31.9776333   0.3483793  10.1387454  74.5678318   8.7078687
  10.0202514  74.4334782   9.6481534  11.0524655  74.3332184   8.5456773
  47.9856015  62.8605640   0.5291578  47.8113366  63.7108124   0.9328195
  48.8654233  62.6297176   0.8272573 101.4474830  60.1793182  16.1582681
 101.7302093  59.3847931  16.6110631 102.0157728  60.8673847  16.5044614
  85.2139430  21.8886861  62.3840284  85.5236964  22.6719293  61.9292641
  84.4378142  22.1805581  62.8622198   0.1588722   2.0495328  77.6066732
   0.7738110   1.5212544  78.1155968  -0.2122167   1.4384183  76.9702291
  43.9140368  79.9383354  79.0845585  44.6809149  79.6897125  79.6006155
  43.5593224  80.7040501  79.5363188  75.4932718  15.4589280  60.4872942
  75.7577090  14.6438321  60.9138155  76.2752681  16.0100755  60.5182076
   4.7659780   9.0956009  20.3917142   4.5534659   9.0284050  21.3226053
   4.0499211   8.6400068  19.9490758  57.2002554  75.5892038  69.6742582
  57.4219990  75.4815435  68.7493420  57.5262022  76.4607286  69.8988295
   2.6390887  30.4329765   0.0691053   3.3800555  30.3304756   0.6663438
   2.0254375  30.9943760   0.5429002  41.6614723  71.2533426  83.3226871
  41.7604494  71.1911011  84.2727184  41.1062479  72.0216131  83.1895447
  45.8264542  80.8667469  75.1191187  46.0741186  81.7876339  75.0362253
  46.6466045  80.4151344  75.3181839  34.1430640  84.6502876  43.0189943
  35.0794601  84.5572186  42.8436947  33.9276934  85.5300236  42.7092981
  99.4331741  96.1520386  45.9790468  99.6249104  96.8300056  46.6269970
  99.2924976  96.6330719  45.1635408   7.2059342   0.1537236  68.6573362
   7.0265480  -0.5198375  69.3133640   7.2886177   0.9631547  69.1615438
   6.3689519  51.5814579   0.8660051   5.7331658  51.2628258   1.5066930
   6.8042232  50.7909000   0.5469533  36.2524343  69.0742016  70.2705431
  37.0810819  68.8322592  70.6841087  36.0887957  68.3765459  69.6359301
  74.5866489  78.6725283  31.1941934  74.0124226  78.0795527  30.7095528
  75.4263449  78.2146311  31.2325811  31.7300130  62.2065151   1.2599679
  32.4977065  61.9845283   1.7868444  31.0596753  61.5826691   1.5387174
  35.7343865  15.8593548   7.2091123  35.8879996  16.4869821   6.5029069
  36.4666081  15.9922445   7.8111287  40.8383083  81.2362480  79.6084547
  40.8418894  80.3493118  79.2485094  40.6549358  81.7992210  78.8563442
  62.2260046  88.3565617  68.4726620  62.0944166  89.0831470  69.0817547
  62.7892876  88.7171078  67.7878618  79.0841103  68.1491709  51.8695688
  79.4563293  67.8252888  51.0493326  79.8197889  68.5657358  52.3184347
  55.6121731  60.2809763  50.5429888  54.8564529  60.3691292  51.1238050
  56.3214684  59.9887991  51.1154985  89.1973972  53.5655260  59.5251703
  89.8411465  53.6219645  60.2313089  89.6769905  53.8347816  58.7417603
  23.4242296  82.8984642  86.6793251  22.6531482  82.5070953  87.0898056
  24.1554976  82.3590469  86.9801807  56.9792604  82.1452332  76.2023544
  56.4767790  81.9594193  76.9955826  57.4237633  82.9722500  76.3886404
  20.6400295  10.6483849  74.0662003  20.5913063  10.2656182  73.1902218
  20.1247021  11.4527043  74.0051270 100.5298285  29.8527345  61.8569279
 100.8572392  29.6492585  62.7330732  99.6410804  29.4974717  61.8448734
  51.7718983  76.6942120  32.8391433  51.7043543  75.9856892  33.4791946
  52.6383781  77.0718002  32.9903722  77.3243856  91.2002182  71.3008976
  78.0580902  91.6139030  70.8461809  76.6274500  91.1620903  70.6458712
  21.8057247   1.0368928  41.6766405  21.9468495   1.5895566  42.4453306
  22.6546761   0.6235036  41.5197372  83.7136173  85.0403786  72.1019411
  84.0827274  84.8170567  71.2474728  83.5120678  85.9740162  72.0391703
  62.6043129  98.9223671  51.1286116  63.2395029  98.2079887  51.1778927
  62.6775885  99.2465115  50.2309513  12.8437568  23.0967939   1.2225457
  13.5791350  22.5465954   1.4922448  12.5234796  23.4846104   2.0369455
  91.7207532   1.8653687  22.4589276  92.1470265   1.5568360  21.6593480
  91.9197755   2.8011140  22.4906754  87.0021825   1.0048589  27.4251676
  86.3493399   0.4588612  27.8632474  86.5290694   1.8037805  27.1925116
   8.6212493  38.0517853  11.2574502   8.4298469  38.6130417  10.5060598
   9.5768882  38.0409229  11.3110277  51.4129400  88.0490303  70.7307386
  51.3634729  89.0026093  70.6638527  50.9936762  87.7307796  69.9312639
  86.1276054 102.3574257  74.6292353  85.8710766 103.0930519  75.1853657
  86.2391186 101.6257668  75.2362442  39.4325305  75.2860344  12.1357557
  39.4049026  76.1808193  12.4746343  39.1698886  75.3688896  11.2190267
  81.8746905  23.9820775  78.9457512  81.1729340  23.4236154  78.6112356
  82.4637418  23.3800134  79.4004774  49.7248745  77.4562120  25.1776338
  48.7862778  77.2702885  25.2040672  50.0263500  77.0517111  24.3641710
  67.4446917  99.6303272  79.7007847  68.1243658  99.5612621  79.0303373
  67.8647995 100.1019287  80.4200459   0.5266262  29.6350563   2.7524396
  -0.0709175  29.0576923   2.2772237   1.0400249  29.0458477   3.3051606
  63.5577393  81.4549446  49.1827679  63.0373669  81.8105412  49.9031830
  64.4654942  81.6116142  49.4428968  60.2303796   7.3099145  76.6481829
  60.6437783   8.1729039  76.6723824  60.4837923   6.8996724  77.4750566
  60.2664089  88.2871914  78.2421064  59.8989344  89.1595936  78.3838749
  59.5804167  87.6877117  78.5358238  46.2649441  70.0880814  64.4187403
  46.6572714  69.2809057  64.7515774  45.4536152  70.1834774  64.9176168
  64.0259361  88.5712433  82.3180676  63.9358807  89.3953037  82.7966595
  63.3232975  88.5935497  81.6684151  70.5930376  73.7589502  45.6510353
  70.4340601  73.1654119  44.9170923  70.5546665  73.1977797  46.4255333
  45.8538103  86.9003201  84.1891193  45.1377583  86.4916325  84.6754074
  46.5363503  87.0451260  84.8444080  56.6753101  84.0993309  49.3655682
  56.2665558  83.3015728  49.0298128  56.1018324  84.8056889  49.0682364
  41.4132215  54.6348846  13.6763498  41.3612271  54.6164978  12.7207395
  42.3088313  54.9170483  13.8620969  55.5487156  91.3568878  74.2340708
  55.1754379  92.2218990  74.0647745  55.8537579  91.0559654  73.3781385
  98.5640144  79.5847464  42.3256350  97.6092529  79.6064043  42.2608471
  98.8677502  80.0403976  41.5405464   2.8924266  95.1203537  53.5457802
   3.8406936  95.0239182  53.6337137   2.5991241  94.2839622  53.1843233
  96.6699891   7.2056970  89.5085430  97.3081498   7.7935895  89.9127293
  95.8295874   7.6494321  89.6228027  12.2232815  11.2802419  74.0490389
  12.8023335  11.1798295  74.8045826  12.1784397  12.2255715  73.9055967
  46.0236931  66.9020748  83.9558029  45.1673698  67.3080063  83.8210392
  46.6402674  67.4956799  83.5271931  67.8568316  93.0286026  73.1279755
  67.9268742  93.9201069  72.7865887  68.7225246  92.6473427  72.9815245
 102.4215984  93.6862183  66.7202950 102.8191185  94.0867519  67.4934626
 101.7167377  93.1404495  67.0689058  53.1217098  67.7968168  68.9887238
  53.4369516  67.3752356  69.7881746  52.2009134  67.5418901  68.9306068
 108.1891637  15.8450707  64.6847105 108.1193595  14.9693784  65.0648642
 107.2844271  16.1507901  64.6197510  42.5076151  76.7070913  63.5190582
  42.7145290  77.4286509  64.1129971  41.5560913  76.7427254  63.4212494
  66.4406681  88.9725780  47.7098036  67.2285128  89.0315723  47.1693802
  65.8611441  88.3848953  47.2250271  50.0671434  98.3890152  76.1203861
  49.3516493  98.8675594  76.5390682  50.2749491  97.6840782  76.7336655
  79.3202400  71.2194872  78.4414101  79.1912317  70.2811384  78.5795832
  80.1712513  71.4052534  78.8382769  93.0554295  96.1327648  53.2758045
  92.1486950  95.8266449  53.2568645  92.9916859  97.0786476  53.1436014
  36.4699483  97.9981995  52.5095320  37.1097660  97.3021126  52.6589489
  35.6593037  97.6650429  52.8943682  48.2418489 100.4932022  77.6743221
  48.8264942 101.2326050  77.5078773  47.3785353 100.8045197  77.4022865
  77.8931956   0.4021558  66.3484573  78.6660199   0.9011659  66.6129732
  78.0915217   0.1065740  65.4599047  84.2143726  55.7502651  48.5281229
  83.8165951  55.6412411  47.6643419  83.4715843  55.7903957  49.1305256
  67.1264744  82.0597935  72.6620579  67.1000576  83.0032730  72.8213549
  67.2861528  81.6757107  73.5241604  81.2663078 100.3354931  65.5718136
  81.9921589 100.4551411  64.9593973  80.5892658  99.8954868  65.0577593
  26.9036078  81.6667652  67.4974442  27.2355866  81.6355038  68.3946848
  26.2941599  82.4048615  67.4931383  76.1347966  15.8184251  31.2108350
  76.1151819  16.6082105  31.7512798  76.5354090  16.1007222  30.3886151
  87.8109264  68.6031055  83.8854885  87.2779751  68.1813669  84.5595360
  87.6309586  69.5376492  83.9877987  60.4272413  95.2563286  60.0659466
  60.9309244  95.9696102  59.6738052  59.5486975  95.3533077  59.6985340
  42.5802755  78.7509346  65.3714895  41.8746233  79.3968916  65.4036188
  42.9418230  78.7468958  66.2577724  99.8778820  99.8876572  40.8090878
 100.3091526  99.0336323  40.7792807 100.1320076 100.2548885  41.6557264
  36.1731791  64.8339605  47.8026724  36.9764376  65.3526974  47.7588654
  35.5916858  65.2380466  47.1586132   7.8744503   1.4671811  76.6413355
   7.6752373   2.2881040  77.0914793   8.0416294   0.8418282  77.3464680
  31.3994023   8.3141717  36.2416601  31.0297199   8.0322656  35.4049444
  31.2059590   9.2505845  36.2856388  63.9824629  92.9424477  72.3727846
  64.4699717  92.5155449  73.0772877  64.3344402  93.8320827  72.3428774
  15.2604195  21.3968381  45.7734632  14.6484181  21.9260415  45.2619696
  14.7442528  20.6432256  46.0595798  33.8800141  22.5844487  53.1951380
  33.3814236  22.3855599  52.4026251  33.2674881  23.0695733  53.7480354
   4.7354599   1.3158902  67.9046249   5.2043911   2.1384438  67.7641058
   5.2877375   0.6518277  67.4920177  50.7070160  85.2742004  34.1602945
  51.4250660  85.7634068  34.5619297  51.1307287  84.7255230  33.5002565
  71.0828762  10.7196721  69.4346237  72.0130162  10.8329209  69.2390537
  71.0061006  10.9321507  70.3647804  60.6238651  96.2818623  79.1213751
  60.7184410  95.7920265  78.3044624  61.4465475  96.1319447  79.5871592
  51.1701155  69.9175024  41.2518024  50.7655859  69.0509319  41.2112617
  50.5536509  70.4911327  40.7966614  78.3732271 103.6556625  87.7039146
  77.9424381 103.9582825  86.9044971  77.8277636 102.9312611  88.0104160
  97.2596745  24.4521150  61.6288042  98.1201558  24.5587262  62.0343065
  97.2157149  23.5234937  61.4008522  39.5590186  71.6254044  50.9283161
  40.3868103  71.4640284  51.3810301  39.2143273  72.4201632  51.3354731
  90.2659893  80.9953213  63.5949278  90.4593372  81.3717175  64.4535160
  89.9564838  80.1098728  63.7857723 101.3938432  11.0440358  77.6016474
 102.2578196  10.6814965  77.7974558 101.1709981  10.6821069  76.7439890
  95.2371936  23.8839635  79.4219208  95.4530721  24.7775754  79.1553116
  94.3185096  23.7759122  79.1758060  10.0410935  53.6477384  57.0601034
   9.1974159  54.0651616  56.8863487   9.8165222  52.8274163  57.4992752
 103.9246421  55.4200086  57.3417139 104.4360356  56.0439214  57.8569221
 104.2505269  54.5617303  57.6126194  50.9795761  92.5302601  42.0107460
  51.8975496  92.6801968  41.7847490  50.9967089  91.7673874  42.5886440
  46.9211770  58.6019218   7.3191854  46.7464639  58.4779346   6.3862726
  47.7945329  58.9925278   7.3494550   4.0621043  56.9362057   6.8661424
   3.3761359  57.5253094   6.5520688   3.7517787  56.6422928   7.7226087
  79.6433310   6.5715226  68.7708187  80.2647118   6.6547212  69.4941425
  79.5201163   5.6278428  68.6682606  18.9014293  69.0136516  12.7608892
  19.7772075  69.0930832  13.1389543  19.0562917  68.8317287  11.8339845
  37.1989298  83.6028671  77.1614456  37.3281050  83.7488174  78.0985928
  37.1002078  82.6544285  77.0781183  68.3939791  90.0229168  86.2906265
  68.5346508  89.9654579  85.3455639  68.5044575  90.9519005  86.4931774
  82.2441101  97.9150581  57.6128197  81.8912601  98.1690979  56.7600584
  83.1906605  97.8718758  57.4771500   9.0330030  60.2857864  15.4556581
   9.8639728  60.6805218  15.1912614   8.8721849  60.6315983  16.3336011
   6.4377972  28.5277852  38.7722039   6.1531826  28.9149007  37.9443383
   6.4762303  27.5876721  38.5963154  77.8390265  74.8995686   7.9146254
  78.2488108  75.2394342   7.1191370  77.6481009  75.6784487   8.4372401
  14.8750774  96.3824749  79.5825672  14.8068515  96.7034626  80.4817581
  14.6650878  95.4506302  79.6443176  89.5352173  85.7757473  61.6669893
  88.7057590  85.3187847  61.5276623  89.7841644  86.0905266  60.7979822
  87.6110935  92.7167034  79.2469501  87.9517746  91.8759441  79.5524073
  88.2977581  93.3468819  79.4650841  58.2094431  99.6170521  75.6175566
  58.7061787  98.8255596  75.8249712  58.6898994 100.3219986  76.0516691
  51.8196298  61.5747250  15.7202455  52.5604249  61.7083252  16.3115236
  52.2038556  61.1699284  14.9426004  30.2455045  50.7016647   7.6285573
  30.5916692  51.3593567   8.2317563  29.6278668  50.1947678   8.1556341
  31.3074517  95.9878922  71.4862967  30.7492304  96.4058590  70.8306122
  32.1772504  95.9745216  71.0869169  18.7454411  22.2278890  69.9905539
  19.5689198  22.7085122  70.0748634  18.9610096  21.3345632  70.2583885
  49.5618820  86.0303307  85.0517845  50.2666807  85.4097080  84.8665428
  49.7644234  86.7919159  84.5084667  75.0764036  96.1244774  51.4164400
  75.5586338  96.7999458  51.8933249  75.6376314  95.3505516  51.4643908
 103.9079766   2.8271970  43.7448215 103.7185149   1.9683465  43.3670568
 103.0566315   3.1539353  44.0358400  41.2249280   2.0348728  42.2789785
  41.4929105   1.1649979  42.5751802  40.7005883   1.8700445  41.4953157
 100.3468804  18.4103402  72.6187754 101.2622123  18.6212071  72.4345589
  99.8470740  19.0538415  72.1164560  42.5990964 100.9352672   7.3145982
  42.2773219 100.4397190   6.5615197  43.4674836 101.2378109   7.0488950
  43.0957409  15.9547242  69.2929411  42.4382492  15.5065259  69.8249722
  43.5261055  16.5562161  69.9005890  68.5228157 104.2824173  63.4251928
  68.5618877 104.7460461  62.5886774  68.8561773 103.4067440  63.2295036
  27.9662801  59.3958748   2.8315946  28.1809283  58.7420833   3.4969636
  27.1189929  59.1158951   2.4852582  11.4948555  17.4258241  47.2299671
  11.6940972  16.7364510  46.5964794  11.4982220  16.9806680  48.0773497
 104.2034817 100.7802582  85.6270504 105.1191139 101.0260868  85.4951000
 104.2151260  99.8238277  85.6634712  91.7091179  91.3635254  60.0616026
  90.9934521  90.7280540  60.0767183  91.3096046  92.1662712  59.7266197
  14.0988632  11.3326367  43.3750868  14.0603062  11.9826611  42.6735020
  13.2207867  11.3390836  43.7560987  97.1446090   3.5922727  80.6068039
  96.6365819   3.1828603  81.3071728  97.5400739   2.8579720  80.1370716
  49.1383553  90.9143734  45.1786804  48.5947132  90.8420086  44.3941736
  48.5211658  91.1258411  45.8791018  51.9416142  71.7464590  86.7740917
  51.9919395  71.6001225  85.8294868  51.3480854  71.0654783  87.0906734
  66.5318681  48.1640900  21.2538549  66.9994832  47.3958958  21.5816232
  67.2223855  48.7530697  20.9496614  95.1252747  78.7388325  52.2861528
  95.5936909  78.8319635  51.4566040  95.8162594  78.6591434  52.9437447
   1.2745329  26.1041936  63.4441376   0.6279608  25.4185018  63.2768011
   1.6687962  26.2754830  62.5888920  47.7454948  78.0769587  78.4343243
  48.2188034  77.3149920  78.7684107  47.0349073  78.2113934  79.0614033
  96.0960579  82.4933624  51.2790346  95.4897499  81.9233418  51.7519951
  96.8026638  81.9115734  50.9989309  33.4917737  53.3171642   3.7034055
  33.5450460  53.0519665   4.6215936  33.5911561  52.5015343   3.2123777
  51.6014577  29.0588463   0.4424402  51.5166951  28.3130253  -0.1515273
  52.1126844  29.7006786  -0.0504378  33.7160012  19.9919804  25.2991891
  32.7822300  19.7815045  25.3001475  33.8448044  20.5061730  24.5021605
  93.2457452  11.5965184  54.3646955  93.0932813  12.0250615  53.5224724
  94.0426211  11.0832223  54.2314672  47.7314806  91.4323902  88.5315800
  47.3596382  90.8917046  87.8347015  48.1875515  90.8111095  89.0992451
  70.4158115 102.2911167  72.0117092  70.4534864 101.3358498  72.0593405
  70.3337240 102.4812794  71.0771847  99.7578559  68.0325020   3.5421487
  99.5591101  68.9639557   3.6376401 100.7095036  67.9803169   3.6308976
  82.9406452 101.0832977  78.2438326  82.5072670 100.2477455  78.0698633
  83.2040882 101.0297680  79.1625071 101.2648396   5.7450112  73.0619860
 101.9183879   5.9321221  72.3881149 100.5888514   6.4099797  72.9312325
  98.4900145  21.4344129  82.3408890  98.2085519  21.5226563  81.4302731
  97.9678731  22.0803651  82.8166389  93.9677958  10.9088048  81.5376949
  93.4112410  10.3725060  80.9730148  93.4354548  11.6789731  81.7369175
   8.4241291  19.4791802  42.6228571   8.2731339  20.1833352  41.9922972
   8.4328457  19.9174603  43.4737778  90.5786705  93.9933968  33.3043361
  91.1131382  93.7708855  34.0666103  89.7135067  93.6370468  33.5061646
  83.9309411   4.8778161  69.5927143  84.2182784   5.7666406  69.3837786
  83.8482814   4.8707684  70.5463123  88.8811641   5.8000287  37.6474643
  88.8485293   5.1260003  36.9686031  88.2704024   5.4943093  38.3180904
  19.7472383  80.3243435   2.6087018  20.5090810  80.7744682   2.9736921
  20.1166774  79.6747673   2.0105478  26.4154145  21.6690740  84.5919037
  26.1528488  20.8169660  84.9400425  25.6656929  21.9561681  84.0706253
  17.3449799  15.6637963  69.5640707  17.2884461  14.9037370  68.9849901
  16.7851254  16.3214597  69.1514349  90.3827381  89.2798901  69.9736786
  90.2882767  90.2032375  70.2076387  89.6377182  89.1007328  69.4000244
  71.7776728  88.9361000  29.5787215  72.6523733  89.3238831  29.5512056
  71.6793108  88.5064793  28.7290263 111.1099295   6.9053372  47.2978210
 111.0620503   6.1077508  47.8248787 111.1401610   6.5933236  46.3934088
  22.1680538  90.9049511   5.3644913  22.9582588  91.2173939   5.8051682
  22.1265403  89.9731064   5.5793697  69.0142107  90.0794220  40.6655550
  69.6406889  89.4378376  40.3307056  69.0783262  90.0025368  41.6175032
  35.6822063  53.4084499   8.5377332  35.7982446  54.1586578   7.9546758
  36.5702725  53.1767452   8.8095495  36.9563290  32.9672440  36.1275530
  37.1194931  33.5838899  35.4138589  36.3594910  33.4321221  36.7139912
  84.8996882  19.1088971  80.7985020  85.1632027  19.7178086  81.4884377
  85.2087407  19.5157632  79.9890709 104.0343242  34.8315152  59.9160576
 103.5237889  34.9187001  60.7210302 104.1609959  33.8882646  59.8137569
  99.5577578  14.4687947  75.2935648  99.3238501  15.3914746  75.1926661
 100.4859166  14.4303807  75.0627661 108.2240586  47.6760491  30.3998399
 107.5613885  48.2079419  29.9591756 107.7301650  46.9586858  30.7969403
  87.7291679 103.5872078  88.3365822  88.4269810 104.2218208  88.4995174
  87.6170731 103.5932636  87.3859787  41.0374447  20.6756982  33.6124420
  40.4447266  21.1742124  34.1749334  40.9793278  21.1080655  32.7604342
  86.0757542  63.3716822  55.7106829  85.8924198  64.3064737  55.6169891
  86.1679554  63.0544662  54.8122931  84.2165761   9.7436437  88.6357880
  85.0101952  10.0908479  89.0430355  83.5352139  10.3773030  88.8604069
  70.8532953  95.9836102  35.3999877  70.3881836  95.9167671  36.2339163
  71.0519791  95.0776768  35.1632714  91.6345882  90.5266380   8.3489591
  90.9964371  89.8247242   8.2212025  92.4849510  90.0965500   8.2587719
  16.1063095   1.8212136  62.3595905  16.5900322   1.7465981  61.5369892
  15.9896942   0.9171781  62.6517344   5.1458164  12.0912560  39.5468831
   4.9790140  12.8930673  39.0514064   6.0296532  12.2051248  39.8963189
   2.8241631   4.8291978  56.3238811   2.8131243   5.4345235  55.5824661
   3.2613894   5.3149899  57.0232153  16.4900772 103.7333202  56.3597441
  15.9618179 103.2105637  56.9629908  16.9482700 103.0878258  55.8215714
 104.2186436  50.2344406   0.4437085 104.8011956  49.4980705   0.6297704
 103.3377227  49.8773373   0.5563661  97.1225452 104.7173309  82.1010494
  96.2432861 104.9993610  81.8488407  97.0658684 103.7626076  82.1400547
  91.0813908  32.3928079  59.9467421  91.7520146  33.0695924  60.0387096
  90.2865701  32.8731545  59.7148705  48.1983662  93.2336330  72.5708771
  47.5081587  92.8295422  73.0967617  47.8027010  94.0370750  72.2329950
  79.5762968  92.4925804  70.9606266  79.8037672  93.1086159  71.6570377
  80.4036331  92.3251629  70.5092764  84.0235953   2.6812562  72.3320103
  83.8315492   3.6126813  72.4406242  83.5498814   2.4299058  71.5391397
  23.8738490  33.3470619   9.7617837  24.4486857  33.4880340   9.0095159
  24.1234923  32.4854839  10.0958463 107.0224380  96.4727688  60.5561590
 107.4446487  95.9744549  61.2559080 106.1849022  96.0301971  60.4186916
  87.8499127  39.2712200  16.3202974  87.2263337  38.6771572  15.9025976
  87.8093053  39.0462101  17.2497960  15.0693418  50.8676422   1.8839189
  14.9221564  49.9897945   2.2359868  14.8516942  51.4554394   2.6073476
  33.6863233  55.8160580  12.1672365  34.6275998  55.8333099  12.3402330
  33.5924340  55.2374161  11.4105340  25.7111737  11.3910397  76.9082737
  26.1947819  12.0664891  76.4327621  25.9528538  10.5729207  76.4740992
 108.0317931  24.3632516  87.2801113 108.2047229  25.2048215  87.7021122
 108.4392409  23.7175950  87.8574657  63.1920624 100.7761765  58.4600735
  63.7464523 101.5377235  58.6301470  62.6451826 100.6986618  59.2418289
  14.9788376   5.8674058  53.4659863  15.3787991   5.5880460  52.6424456
  15.5183884   6.6025266  53.7570524  77.3730755 100.1762676  44.9998760
  77.1917915 101.0968590  45.1893044  76.7367268  99.9408531  44.3246937
  21.1693188  25.7139596  74.9063969  20.4834744  25.4405030  74.2972326
  20.6945988  26.0729226  75.6560802 107.2750192  13.9883336  86.2755013
 108.2073359  13.9529904  86.4894390 107.1986441  14.7146329  85.6567192
  58.9843893  90.9875202  67.4610186  59.0264225  91.4726830  68.2850838
  58.7660646  90.0925159  67.7208757  93.5592747  71.2791348  48.2262754
  93.3254051  70.5995560  47.5940561  94.5163155  71.2719631  48.2425880
  85.9582807  84.5258606   1.8911668  86.6104604  83.8681209   1.6497728
  85.1231957  84.1472423   1.6163751  14.6654798  70.4105747   2.2702047
  14.6589328  69.4537151   2.2950097  14.5830298  70.6266487   1.3413640
  45.2812433 104.6570587  69.2591524  45.5347347 103.7414742  69.1421843
  44.7448492 104.8569584  68.4919834  21.1830136  35.2314671  78.6172438
  20.4888817  35.4614552  79.2349195  21.9315621  35.0081262  79.1704416
  64.9199533 102.1703815  63.2884645  64.1967535 101.5661049  63.1209517
  65.3099728 102.3216724  62.4275160  52.8805017  80.2876949  64.2362928
  53.8343143  80.3504372  64.1859341  52.5645828  80.9117985  63.5828972
  37.8293944  51.1760223   0.8552953  37.7173091  51.6207016   0.0150987
  38.7430144  51.3367069   1.0913202  11.1272193  69.0726173   4.2899820
  10.4625321  68.4970081   3.9116975  10.6464244  69.8614967   4.5404550
  70.6203175 104.1917419  65.0924253  70.4374743 104.4005394  66.0085058
  69.9814177 104.7048473  64.5976925  71.9478416  93.2026005  86.2815762
  72.2696018  92.3577881  85.9669399  72.0402908  93.7888718  85.5305958
 100.6901603  44.6334561  67.8383303 100.3458981  43.8809403  68.3194065
 100.1726298  45.3752049  68.1517029  77.8917365  21.3831624  74.7610378
  77.2541385  21.2552747  74.0586519  78.0338673  20.5064782  75.1180458
  63.1004286  81.6738701  77.0608664  63.1027079  80.7203197  77.1443510
  62.5458288  81.9759464  77.7801704   7.3899166  42.4125481  71.7893124
   7.5716297  43.2020378  72.2991276   6.4587776  42.2436190  71.9330931
   4.3705889  12.8190812  68.4841394   4.9364516  12.0518693  68.3979559
   3.6490723  12.6539239  67.8772068  56.5277004  98.6782169  68.1205130
  57.0545006  98.1114864  68.6840057  55.8771992  98.0926991  67.7329063
  90.1948261 104.3468571  63.5452700  89.3546009 103.8888931  63.5222721
  90.5438232 104.1633606  64.4174862  58.5165024  97.9050064  84.4968700
  57.7770996  97.3054314  84.3967342  58.6035728  98.0220127  85.4428864
  80.2426438  22.3376950  57.7575111  79.5985942  21.7268285  57.3993444
  80.2094798  23.0925282  57.1698427  12.7140042  44.6417054  68.1797218
  12.1564480  45.1254853  67.5703573  13.5923287  44.7081765  67.8050756
  98.6903720   9.3138703  80.9054470  99.5360141   8.8685330  80.8525753
  98.6016040   9.5505055  81.8286800  56.8720102  86.7154884  89.2552185
  56.2103558  87.3797035  89.4482517  56.7044544  86.4676666  88.3459663
  10.1006080  52.3261440  12.9754373  10.0080873  51.4346493  13.3114454
  10.1588632  52.2194088  12.0259878  83.5731983  97.5400066  84.6879387
  83.8774872  97.1440125  83.8713455  82.6667213  97.2448730  84.7740364
  37.0410014  81.5176189  14.9660417  36.2747956  80.9443558  14.9890157
  36.9039441  82.0698822  14.1963407  20.9136106  76.3938129   3.2732412
  20.5380631  76.2529838   2.4041196  20.1885081  76.7383850   3.7945100
   2.9684349  21.1416348  82.0907497   3.4727617  21.9551572  82.0832062
   3.5886856  20.4781159  82.3928452  78.7777281  74.3650579  68.4459734
  78.7856722  74.9797726  69.1796589  79.6061039  73.8914108  68.5213614
 101.4042048  20.4198560  62.4737835 101.1212687  19.7472962  63.0933380
 102.3322730  20.2362164  62.3282146  11.8374439   7.4680814  56.9759178
  12.7699848   7.6279363  56.8308258  11.4692494   7.3835763  56.0964155
   1.8515297  27.0760068  89.4038773   2.6801964  26.6975316  89.1101170
   1.2022253  26.3942727  89.2310429  64.6120834  87.0210648  60.1427221
  64.6071243  86.9061089  59.1924620  64.8897982  87.9277992  60.2728462
  82.0218086  97.2386265  81.6501236  81.2054253  96.9922924  82.0849514
  81.9430542  96.8741322  80.7685471   5.0182487  43.4957493   0.3819581
   4.2161609  43.9199341   0.0770780   5.6671620  43.6978710  -0.2920512
  75.2326488  96.9644260  81.9083405  76.0678148  97.1422577  82.3408985
  75.4588556  96.3875771  81.1787415 109.1894154  23.4830579  84.5638657
 108.5445313  23.3383950  85.2562714 109.8685269  22.8289136  84.7285843
  70.1584196  83.6995697  75.0709295  70.8458710  83.6819267  74.4050932
  69.5502520  84.3744564  74.7694588   7.8155514  41.4536294  87.7771759
   7.6685997  41.0769948  86.9095421   7.0703789  42.0387372  87.9136276
  72.4721575 103.0505753  82.4143028  73.2814503 103.2594013  81.9477558
  71.7856884 103.4881592  81.9107914  21.9462105   8.5779675  58.1338453
  21.9465634   7.6440724  58.3437920  21.4145752   8.6449441  57.3406744
  60.1026344  89.9584389  52.1850872  61.0013294  89.9935532  51.8574524
  60.1951933  89.7653389  53.1180286  96.7134862   4.3556699  24.4357371
  96.9959168   3.4567555  24.6042848  95.7737069   4.2841157  24.2686391
  84.7355556 104.3005085  64.8566914  83.8049126 104.5124245  64.7843456
  85.1850700 105.1105976  64.6159983  48.5515594  90.2223492  85.6054974
  48.9738894  90.6347656  84.8519897  47.6431465  90.0960922  85.3314877
  99.8236661   4.8496446  43.3832884  99.9850802   5.7917890  43.4337044
 100.6960492   4.4560155  43.3986521   3.0070158  17.9502400  40.9061384
   2.3004242  17.3083791  40.9766483   2.5597855  18.7834844  40.7580805
  18.3333016  48.7295807   1.9329187  18.9774800  48.8618648   2.6284524
  17.4880363  48.8708961   2.3592874  15.5087563  18.1388387  57.2604513
  14.5574375  18.1713494  57.1596575  15.8250328  17.7763184  56.4329338
 110.4201608  18.9543446  62.3529625 110.7984643  18.6622342  63.1822920
 110.3460936  19.9042329  62.4448776  71.7701864  83.5297012  66.7395926
  71.3967896  82.9992867  66.0356951  71.5856171  83.0335331  67.5370789
  96.6371016   4.5092687  78.0353689  96.8149190   4.2977914  78.9518261
  97.3403745   5.1093205  77.7872229  21.0628983  10.1518544  87.1317863
  21.8650337  10.4421815  86.6975975  20.3566548  10.5304440  86.6082191
  16.7080494   0.9550580  56.6231346  17.3864838   1.6279801  56.6791296
  16.9067188   0.4812726  55.8154917   4.6543495  92.6339245  61.0823631
   4.2707340  92.7647305  61.9495201   5.5893604  92.7965355  61.2070799
 103.3214145   1.9594773  47.0312119 102.6992469   1.6514501  47.6901960
 103.3189254   2.9119500  47.1261740  81.5370369  64.4965410  73.0599689
  80.9240627  64.6053839  72.3328876  82.3948479  64.6877670  72.6807213
 106.1730056  17.6566609  86.9484711 105.8957772  18.4247216  87.4479294
 106.3109116  16.9781503  87.6094151   0.0653597  23.1297597  40.4942656
   0.9354397  23.5286435  40.4849815  -0.0079349  22.6951035  39.6445966
  12.1333405  27.6200398  67.4838829  12.0136448  28.3212670  66.8434238
  11.2574383  27.2530660  67.6037455  54.3182135  86.6507244  81.9940662
  54.4016075  85.6975746  82.0220280  54.7458601  86.9521809  82.7956104
 101.4249325  94.7519493  47.6078653 101.0277462  94.3557835  46.8322802
 101.7980289  94.0136623  48.0894995  19.0069100  13.6820516  58.6203432
  18.4985062  13.9077386  57.8413534  19.0886971  14.5063218  59.1000652
 104.3115811  21.5307435  80.0308895 104.0195517  22.4343213  80.1512718
 103.5491757  21.0787782  79.6693611 111.1446285  53.0917120  83.2565975
 110.8793926  52.1834898  83.1116390 110.5412960  53.4134245  83.9264679
   1.9898077  20.6929501  84.5199108   2.1044632  21.0794553  83.6517525
   2.8811928  20.5518063  84.8388767  19.7613999   1.6500291  51.7108870
  19.9075314   2.3712930  51.0987997  18.8714691   1.7878159  52.0353508
  20.1447102   5.8145722  62.7009630  21.1005684   5.7969388  62.7485228
  19.9073693   6.6993722  62.9785156  12.6136109  31.2321290  47.0844221
  12.3130127  31.5889462  47.9202175  12.9952713  30.3836831  47.3096037
  78.6630678  80.4616356  84.7187710  79.2112398  79.6991873  84.9042702
  78.5097218  80.8604717  85.5753040  74.3963289  97.5303841  49.0976381
  75.1311445  97.3662949  48.5065746  74.3133783  96.7237949  49.6063232
 101.6155052  90.3598785  75.8269691 100.8458424  89.8116779  75.9797382
 102.1454430  89.8608494  75.2053928  12.6368896  73.7058115  71.5146208
  13.3538906  73.6791992  70.8810234  12.6709548  72.8544331  71.9507647
  87.3476219 103.4350872  65.6125927  87.4900532 103.2334805  64.6877670
  86.5683365 102.9325199  65.8500290  97.2958279  77.5436687  62.8477430
  96.9340897  76.9523859  63.5078621  97.5454521  76.9699478  62.1233416
  14.4056221  19.8903378  89.8122692  13.5379120  19.6423158  89.4932270
  14.9818417  19.1886529  89.5092106 110.6064706  31.8349465  48.1626320
 109.9188380  31.1691197  48.1541109 111.2708525  31.5008458  47.5599718
  98.4864955  23.2863244  49.8863029  99.1398673  23.9090070  50.2050591
  97.6663594  23.7798890  49.8839855  15.1023003  12.8759393  40.6519318
  15.8091542  12.3927792  40.2239799  14.3080899  12.5860318  40.2031374
  80.2650738  89.6462059  62.0223999  79.8618364  90.5141163  62.0415974
  80.7819653  89.6044064  62.8269577  71.4988756  85.1679993  57.3654842
  71.3081598  84.4206715  57.9323769  72.4514771  85.1607895  57.2720528
  51.3938379 102.6010418  56.6050005  51.3596249 103.5575199  56.5905046
  50.5381584 102.3358536  56.9422245 107.8679276 101.5217781  43.5554218
 107.5534058 101.9313526  44.3613768 107.8465366 100.5827522  43.7398148
  73.5641866  23.0478581  52.0492792  73.9005403  22.8278169  51.1805582
  72.8458671  23.6576184  51.8806171  66.3997650  74.4248343  59.0691805
  67.2652006  74.0161419  59.0544128  65.9661436  74.0960312  58.2817221
   1.5234176  98.6346340  24.7656536   2.3466579  98.3075809  25.1283598
   0.8860294  98.5113144  25.4690456  45.4513169  43.3925236   2.8268262
  46.2225057  43.0205238   3.2547399  45.8006860  44.0779388   2.2572728
  95.3755188  95.8462238  41.4062357  94.9745846  95.0132561  41.6545343
  94.6817017  96.3181114  40.9456062  63.0736399  91.3075638  66.7975712
  62.9024744  91.8402386  67.5742292  62.2724009  91.3766098  66.2784481
  63.8460255  88.4172916  88.9703274  62.9194021  88.2081890  89.0881538
  63.8455296  89.2579842  88.5126495 105.6083398  12.7193173  53.3817101
 106.2592845  13.0201444  54.0157509 104.8357873  12.5168332  53.9093399
  88.0406284  83.2736683  80.3405476  87.4087811  82.5554848  80.3057384
  88.8719273  82.8739262  80.0848675  16.6250130  16.6122731  39.5043850
  15.8633038  16.0351857  39.5592070  16.9836994  16.4531621  38.6313105
  87.0732550  55.9489354  71.7258072  86.2358908  55.8372411  71.2757158
  86.8383412  56.2978658  72.5856209 109.6780114  34.4879636  37.7026892
 110.1905017  34.1958531  38.4565210 108.7772899  34.2447671  37.9166770
  77.4923801  63.1153536  48.8747311  76.6350079  63.2814503  49.2666006
  77.6566172  63.8811445  48.3244419  36.7220589   8.2305154  37.6630259
  35.8237835   8.0799779  37.3686194  36.6778561   9.0483483  38.1584287
 109.3322659  63.2443523  44.0912151 109.8393345  63.5743189  44.8329878
 108.4584522  63.0876732  44.4491720  92.5734334  30.1352223  51.2835455
  93.3044057  29.5778474  51.5504742  92.9885154  30.8991250  50.8830643
   5.7799622  15.5749234  24.6287131   5.7134958  14.7402200  25.0924945
   6.6668316  15.5788812  24.2686033 100.5763821  35.9816750  64.1847992
 101.3330941  36.4779958  63.8728905  99.8250203  36.4030942  63.7675571
 108.5386710   6.9162949  72.3791313 108.7508683   7.5842103  73.0311203
 109.2322068   6.2630090  72.4710321  33.9481593  61.3270176  13.2033273
  33.4984590  60.5420769  13.5161516  33.2531835  61.8676079  12.8278180
  27.1959163  67.7818382  20.0825712  26.9035102  67.7166260  20.9916803
  27.2332622  68.7225902  19.9098798  14.5021340  38.2224759  64.6915197
  15.4091355  38.4818753  64.8536873  13.9802357  38.8542375  65.1862240
  92.5507121   1.1823567  27.9663348  91.5960078   1.1133107  27.9647422
  92.7772813   1.3488683  28.8813066  67.6814842  93.3389378  69.3826151
  66.9879580  93.9725780  69.1989279  68.2151794  93.7571239  70.0582790
  51.9951820  65.6971598  83.8010025  51.7289209  65.2660942  84.6131134
  52.0410824  64.9894810  83.1581116  25.9240913  34.2531466  73.1072521
  25.4483628  33.9489627  73.8801575  25.2630591  34.7024870  72.5805998
   3.1039026  16.8193376  54.2909050   3.7015274  17.2365165  54.9114180
   3.2701632  15.8820653  54.3914461  37.5729985  78.2703463  59.5003939
  38.0082650  79.0638748  59.1888046  36.9288583  78.5840074  60.1351643
 104.1790847 102.0886520  74.7857475 103.8833932 101.9728187  73.8827658
 103.6855773 102.8444383  75.1042938  81.6542729  18.7348413  63.1970072
  82.4683627  18.3090043  62.9284000  81.9121154  19.3135369  63.9145470
  40.2177091  99.2478911  48.5514832  39.6308370  99.4068775  49.2907619
  41.0181756  98.9065716  48.9502144  17.2308934   7.2029221  53.6782837
  17.4510324   7.3080111  52.7526855  17.8013742   6.4966172  53.9814615
   1.3915913  29.7526050  31.9128442   0.8807616  30.4726553  32.2827268
   1.9634511  29.4727421  32.6276064   5.9711611  22.2003317  85.4036999
   5.6572253  21.4049649  84.9735069   6.9249862  22.1222496  85.3849316
  91.5164546  82.3133865  65.7797670  91.4904312  81.7703143  66.5675640
  90.6622509  82.7447668  65.7579088   2.0873716  18.0945051  66.6467762
   1.2800370  17.7194107  66.9985533   2.6778212  17.3469639  66.5530586
  26.9241905  12.8475904  46.9801760  27.8490639  12.8655124  46.7341614
  26.8542218  13.4801888  47.6951265  53.4332835  79.4802129  87.9613066
  53.9226030  78.6578047  87.9823793  52.7425407  79.3314516  87.3155702
   0.5002643  60.3602600  54.9740601  -0.1060816  60.8168507  55.5572462
   0.1782937  59.4591141  54.9517155  14.5444596  51.7655849  62.7886963
  14.2625690  52.6670933  62.9437828  13.7995338  51.2310505  63.0636311
  21.8701406  72.9391137  16.1249745  21.3456197  73.3800522  15.4566288
  22.1192451  73.6358706  16.7321861  29.2274332  32.2440290  51.6768789
  30.1576924  32.4562240  51.7531872  28.8267827  32.6421309  52.4496841
  80.1666698  96.3377992  72.2951126  80.7255522  96.5625886  71.5512371
  79.3020926  96.1940554  71.9103098  22.6902819  25.0244045  33.7802672
  23.0475163  24.7948956  34.6381378  23.4525561  25.0475621  33.2017922
  93.2157413  79.6230475  16.5333426  93.6233369  79.9827567  15.7454920
  93.3955292  78.6839501  16.4885879  30.4284954  26.9010115  15.7063639
  30.5286574  27.2692180  16.5842152  31.3226533  26.8336248  15.3714430
  45.7651091  24.1178870  26.3504982  45.8819246  25.0604653  26.4693952
  46.4060163  23.8797331  25.6806087   8.9520895  43.9005470  38.2509875
   9.3736488  44.2139149  39.0511870   9.0006155  44.6426105  37.6483130
   6.0624070  95.1364878  22.0891833   6.0607095  94.4363228  21.4364982
   5.3956218  94.8739770  22.7237821 108.0907587  87.7385942  53.8233662
 108.4992627  88.4246925  53.2955122 107.1668938  87.9856995  53.8639021
  24.6216083  10.9098148  23.3828449  24.9652052  10.1699817  23.8836646
  25.3322053  11.1461353  22.7866578  20.5602117  78.2706491  54.5778656
  20.8402772  77.5195972  55.1010418  19.8165126  77.9452554  54.0706539
  39.4841814  42.9845524  90.7999992  39.7483420  42.5341272  89.9977779
  38.8504982  42.3946762  91.2083149   6.2799601  60.1474653  23.2760545
   6.6647701  60.1712237  24.1521760   6.4102106  59.2460374  22.9816171
  68.4720516  19.2995059  79.6740294  69.2259789  19.2740428  79.0848112
  68.8174009  19.0074444  80.5176258  55.2620559  72.4410395   3.1610605
  55.5958347  71.6419987   2.7531930  54.6933679  72.8296808   2.4963876
  87.7465836  93.3180526  62.1327782  88.1659249  92.5701085  62.5581741
  88.2053736  94.0813569  62.4836493  16.9576831  88.7452105  62.4864912
  16.2958760  88.8654283  61.8054676  17.7861924  88.6972216  62.0095253
  41.5799475  16.2299049  72.5681496  42.3547888  16.4619994  72.0563030
  41.7544174  16.5833437  73.4404325  12.8444238  93.8506249  59.4907570
  13.2827611  93.0000285  59.4666815  12.2299619  93.7828210  60.2215576
  14.0946555  15.0803328  38.5959506  14.2203593  14.1680884  38.8571811
  14.2144346  15.0762057  37.6462841  16.3527894   5.4682833  63.1287193
  16.3772953   4.7111571  62.5435781  16.8864369   6.1292577  62.6876259
  81.2385515  85.2498427  46.9715548  81.6186014  85.5827144  46.1585379
  81.5692452  85.8392111  47.6494312  93.8209656  71.0858527  59.4595957
  94.6959165  71.4737454  59.4747448  93.9427606  70.2366701  59.0349960
  37.4303365  38.1133485  43.9658546  36.5811539  37.7770734  43.6794233
  37.8431320  38.4352779  43.1644869  30.2523327   5.7394230  65.2884340
  30.5043578   6.5958405  64.9430895  31.0160065   5.4478085  65.7864285
  95.1172832  87.3412660  82.3847961  95.8285836  87.9674986  82.5193977
  94.3194584  87.8637270  82.4668884  88.5480157  56.5366546  43.2230997
  88.5334328  55.5812207  43.2793713  89.0541104  56.8138686  43.9868069
  37.1723795  29.6489048  65.0096703  37.6683068  28.9531994  65.4412699
  37.8409290  30.2271247  64.6423340  13.1339109   5.2555829  66.5260839
  13.1095648   5.4564363  65.5905104  13.5982585   4.4202769  66.5797186
  85.3667763  87.0608572  47.9953718  86.2883142  87.1397320  48.2419062
  84.9305419  86.7597393  48.7924004  76.1446410 104.5715176  59.6360302
  75.9352083 104.3754709  60.5492306  75.3744648 104.2828892  59.1463804
   5.0682302  85.1729754  77.6817131   5.3551002  85.8311251  77.0486450
   4.2161699  84.8828140  77.3560953  78.7887118 103.1121210  64.7230577
  78.6078337 102.4748207  65.4139709  79.5029590 103.6461290  65.0707912
  29.6100116   1.1116560  84.9899960  29.3619990   1.7067681  84.2824936
  28.8565230   0.5296218  85.0885963  29.6048594  19.5737040  46.4658022
  29.2350721  18.7748122  46.0899496  29.2783308  19.5885587  47.3654652
  28.6638784  20.4844594  58.9503670  28.7918591  20.8348823  58.0688572
  29.3598795  19.8354769  59.0535021  79.2315011  40.1395813   2.2355577
  78.4753852  39.5841900   2.0456621  78.8559680  41.0003857   2.4205419
 101.9914273  82.1741191  54.9353456 102.7510194  81.9836560  55.4857779
 101.9510463  83.1299940  54.9053144  33.1100345   3.0986053  41.3703871
  32.5938439   3.3609256  42.1326017  33.0005884   3.8175905  40.7480431
  57.0648766  16.8012309  63.4172440  56.5021610  17.5739324  63.4673929
  57.8904915  17.1289253  63.0605793  96.3041667 102.8471242  67.0884657
  97.0011333 102.2643438  66.7870760  96.5965346 103.7221324  66.8332911
  21.5349555  15.1356280  71.0351419  21.1694050  14.4365120  70.4930687
  21.1609387  15.9392536  70.6738520  88.3822862  91.1450699  63.7759256
  88.5149661  90.2422908  63.4867573  89.1400234  91.3329772  64.3297815
  85.7874695  97.8172687  34.0047550  86.6626552  97.8992287  33.6258554
  85.3992311  97.0690629  33.5512257  43.8826752  40.6900215  90.1365757
  44.2136192  40.1224375  90.8326817  44.0390921  41.5782833  90.4571342
  36.5162230  29.5690727  41.2776756  36.8140745  30.3324246  41.7724562
  35.7353878  29.2709994  41.7442369  14.1377032  18.9780259  61.7785263
  13.7608147  19.8363936  61.5851593  14.5513356  18.7078631  60.9586763
   3.7077931   7.4804765  69.9643040   3.4127095   8.3357340  69.6517515
   4.1724432   7.1002823  69.2187977  25.8706947  77.4279181  72.1840429
  26.1661859  77.2121349  71.2995338  25.0177140  77.8432504  72.0569563
  99.9036888  87.9494980  27.7820277  99.2449812  88.5386017  28.1498528
  99.8328928  88.0722419  26.8353748   4.9233194  63.8480512  31.6689420
   4.3068071  63.2737390  31.2147331   4.9933572  64.6181909  31.1048388
  19.4269240  31.8548536  29.3471694  20.1940060  31.3002133  29.2050815
  18.7643719  31.5043926  28.7518263  95.1594380  79.0914336  39.3642473
  95.8313063  79.5652691  39.8544574  95.2774719  78.1764093  39.6192575
  34.1310859  48.3924437  35.3844142  34.1936970  49.3246365  35.5925536
  33.6244750  48.3617353  34.5728540  52.1941471  27.0564961  35.1423383
  52.2852135  26.5546989  35.9523606  51.4464331  26.6583037  34.6966958
  93.0074731  80.7313005  72.0420551  92.9608480  81.6834465  71.9555902
  93.7013546  80.5828348  72.6844883  19.0974565  86.9078115  66.4025831
  19.5032497  87.6186195  65.9062815  19.8352618  86.4058355  66.7488432
   2.4815021   9.1549850  80.6348991   2.0173860   9.1062576  79.7991657
   3.3862966   8.9283031  80.4199696  66.6917423  67.2136799  47.2859526
  66.9378147  66.3075605  47.0998621  65.8395890  67.1468035  47.7167559
  20.6469917  14.8296070  47.5891018  20.7985616  15.0181127  46.6629648
  20.6434536  15.6888270  48.0109549  90.5834190  99.1015760  64.5905209
  89.9844865  99.3327085  65.3005123  90.1455728  99.4109479  63.7975454
   0.7507653 101.7613465  37.0999002   0.4465671 102.0419926  37.9629946
   1.0714717 100.8699754  37.2371483  13.2175870  84.2188541  39.2098260
  13.6768050  84.9366883  39.6457887  12.6490207  84.6504942  38.5721326
   4.3512657  24.2464590  47.2036982   3.8639659  25.0560927  47.0511675
   4.4886103  23.8812876  46.3296175  87.8928868  83.1686131  69.4363403
  87.8764585  83.4562412  70.3491545  88.3955351  82.3541394  69.4508696
  34.2089176  10.0471234  71.2182188  34.2885971   9.8149765  70.2930212
  33.7067914  10.8620477  71.2182951  81.2849996  77.0992890  71.9753170
  81.3047991  78.0559269  71.9491768  82.1803287  76.8472830  72.2013950
  13.6173387  81.5811292  51.6035271  13.3855386  82.4090162  52.0243597
  12.9867788  80.9506980  51.9516468 110.5826286 103.3134658  53.6597824
 110.0573663 103.9565676  53.1835985 110.0598744 102.5119868  53.6354446
  52.6192570  17.1231604  57.1862841  51.8210459  17.4551177  57.5972509
  53.2988119  17.2459400  57.8491306  10.5232377  98.5059086  44.6009064
  10.8880372  98.1113461  45.3930378   9.8854537  99.1430822  44.9225807
   6.0141414   4.9168578  80.3188515   6.2092799   4.6805099  79.4120455
   6.8698657   5.0930905  80.7098866  90.0665585  94.6916572  69.8432779
  89.5812503  95.4875324  69.6258163  90.9835891  94.9220768  69.6942997
  29.9824548  20.4507232  73.6274529  29.5637918  19.9147761  72.9538679
  29.3559194  20.4584694  74.3510723  14.6706975  37.8992844  46.2126350
  15.3587866  37.4769950  46.7268658  15.1394773  38.3533716  45.5124331
  37.6434083 100.5191061  28.0462265  38.4202762  99.9808392  28.1978154
  36.9538684  99.8900542  27.8339529  99.0308794  12.1856809  72.3408270
  99.1703435  12.7836287  73.0751562  98.8224991  11.3465381  72.7514935
   9.2674537  93.0922094  51.5095520  10.0028987  92.7215198  51.9973421
   9.6162267  93.2476262  50.6318092  80.7449802  47.9655313  33.4171033
  81.5293010  47.9097176  32.8712463  80.0177511  47.8728676  32.8016496
  59.8166208  53.3481161   9.7846624  60.3250866  53.1821687  10.5784818
  59.5370631  54.2600026   9.8655435  16.8812251   4.2023751  85.2928257
  17.3882592   4.4075695  84.5073128  16.8071723   3.2480586  85.2875996
   8.9108413  43.0144739  69.4420242   8.4033823  42.6799107  70.1814747
   8.2791519  43.0737782  68.7253094  61.7230940   2.0351712  27.3396277
  61.0927677   1.3705495  27.0617867  61.5179539   2.7996761  26.8014073
 105.7342248  52.5094675   0.5920907 105.3374247  52.9872722  -0.1362590
 105.1145606  51.8051849   0.7824346  17.9325338  80.0254170  45.8463717
  17.7209373  80.8933226  45.5025673  18.8771577  79.9403969  45.7172060
   6.6240817  46.4337158  24.4660640   5.6835854  46.5400457  24.6088672
   6.7341685  45.5012608  24.2799616  92.8547136  87.3498598  47.5881767
  92.9206446  86.4340476  47.3176718  93.6221961  87.7700809  47.2000790
  50.2806854  16.6831255  77.3024893  51.1955070  16.7136681  77.0224857
  50.3201103  16.4166677  78.2210064  14.8845573  90.1101152  75.3125238
  14.5305629  90.2419523  76.1920357  15.7977576  89.8620442  75.4565907
 101.1162587   7.1176612  59.9170017 101.9713535   6.6933250  59.9876070
 100.5283471   6.4236140  59.6188593  28.7734151  15.4213893  43.2934999
  29.3189931  14.8127651  43.7916517  29.3111038  15.6627393  42.5392675
  18.7680864  42.8299809   8.6792290  18.7352121  43.5099411   8.0063218
  18.7194359  42.0077944   8.1915033  70.6069410  82.6954404  72.4243450
  70.6097875  81.9675675  73.0459738  69.9037409  82.4834291  71.8105125
  29.7201251  40.6110863   2.3994943  30.3426223  40.1521460   1.8354913
  29.0163492  40.8810572   1.8095418  93.3024629  29.3704748  82.4331379
  93.1194063  28.4506369  82.2417641  94.2578014  29.4300985  82.4307156
   8.0019326  77.4426786  56.2342072   7.3454900  78.0746666  56.5272999
   7.5364394  76.8858400  55.6101227  15.5374503   4.6618855  70.5143118
  15.0053549   5.0457644  71.2112665  15.2354431   5.0952935  69.7160769
  23.3719583 102.6542886  60.7986355  23.1304832 102.3064942  61.6570997
  24.3245597 102.5670989  60.7642078   3.1612760  57.5040913  78.5447121
   2.8866664  58.1788063  79.1656685   4.0681008  57.7269506  78.3343887
  33.9372039  13.9845359  39.3752456  33.5136938  13.7999058  38.5369253
  33.9030194  13.1535101  39.8490167  95.5939177  89.0502218  37.9889226
  96.2599686  88.8280979  38.6395121  95.9358147  88.6991862  37.1666622
  47.3121023   5.4612988  54.4376326  47.4656057   5.9067428  53.6044168
  47.8602457   5.9320652  55.0654459  16.2494886  15.5997574  28.5757446
  17.1181726  15.2767706  28.8151169  15.7581246  14.8129869  28.3395553
  23.5336995  28.2106686  50.2762747  23.0758882  28.3927345  49.4556093
  22.8352571  28.0271864  50.9045601 101.5424184  61.8568507  77.9604053
 101.3431433  61.2705985  77.2304535 101.4622477  61.3057891  78.7389517
  25.3202462   9.4241434  64.2027712  26.1990833   9.6606493  63.9062214
  25.4207063   8.5479343  64.5747900  95.5785032  22.6667404  53.1454945
  94.7056683  22.3342419  53.3548641  95.4193410  23.5201335  52.7422285
   6.3206846  36.5372348  90.7003880   5.6355482  36.2472558  90.0981140
   6.5908110  35.7406712  91.1572742 110.7633213  97.0514045  26.7214274
 111.5325955  96.4818046  26.7186999 110.1717523  96.6519025  27.3591375
  72.5234758  99.0918544  63.3082390  72.8348072  99.9959928  63.2653618
  73.3171386  98.5615918  63.2364607 109.5699655  23.9866614  66.9817448
 110.1183271  23.2964206  66.6087818 109.6431198  23.8654089  67.9284096
   8.0335326 104.6231291  33.1204963   8.7211604 103.9740971  32.9716587
   7.5804277 104.6890743  32.2799134 105.3322986  82.7951757  70.9852457
 106.1819724  82.7995506  71.4260006 104.6929959  82.8178445  71.6972876
  95.3915640  22.2725749  33.2053661  96.0970362  22.0783329  32.5882673
  94.9841984  21.4238310  33.3783340  43.0465364  23.1339025  27.5014973
  43.5981560  23.9161706  27.4983191  43.1643677  22.7542043  26.6307640
  89.9276606 101.3289762  44.8227978  90.0190977 100.3769002  44.7850800
  90.8053962 101.6456190  45.0362206  24.3320775  23.9624882  75.5705833
  24.6803045  24.1726899  74.7041035  23.7239742  23.2397318  75.4154444
  13.3354104   2.7857712  47.2069216  13.7932682   2.2290340  47.8367138
  12.4123621   2.7130586  47.4496698   2.1107574  93.3217457  41.6505051
   1.8626805  92.3980824  41.6112995   2.8115602  93.3540968  42.3016977
  32.8148484  15.7896698  50.3570080  32.5765014  16.5760255  49.8660183
  32.0693111  15.2004230  50.2421331  19.5651579   0.5298575  34.7798252
  20.0097179  -0.0688870  34.1797400  19.3995237   0.0049260  35.5629253
  47.0847654   0.1583612  53.2251501  46.2621450   0.6360126  53.3317900
  47.7347565   0.8378106  53.0459976  34.0643620  13.6097157  51.9819593
  33.3156776  14.1945934  51.8652534  34.5800900  13.7184668  51.1829424
  62.5571827  72.8869120  54.0373850  63.0398909  72.2996799  53.4556770
  61.9850758  72.3080054  54.5411634  36.6939349  85.2503828  27.8495526
  36.5989490  85.8416918  27.1028519  37.2864814  85.7095197  28.4447956
  68.5638771  87.5201336  81.1691856  68.0127302  87.5209621  81.9517899
  68.0079482  87.1469942  80.4851151   7.4468213   5.7023001  38.3816576
   7.6475132   5.5782425  39.3093228   8.0214572   6.4163518  38.1056929
  16.2942278  12.5751245  52.6555300  17.2478890  12.6008308  52.7336502
  16.0490716  11.7150128  52.9966116  14.5811267  98.6047581  44.8100805
  14.7903009  97.9343835  45.4605246  14.2072387  99.3239990  45.3191280
 111.4269538  20.0091434  57.9567289 111.3793140  19.1320431  57.5763845
 110.5233917  20.3248358  57.9446650  43.9453745  35.2293253  30.4437232
  44.5184469  35.7671189  30.9901667  43.2384491  35.8201480  30.1840854
  97.9158231  33.3728933  61.9506979  98.2633980  33.3756399  62.8425598
  97.1667822  33.9679408  61.9837236  37.3458242  43.3346176  44.8655939
  37.5676346  43.1274462  45.7734013  36.8769169  42.5616169  44.5512152
  67.8791332   9.5524722  59.5805740  67.0322514   9.6518332  60.0154877
  67.9889297   8.6065757  59.4833374  42.8501225   1.2363272  48.2538986
  43.5440397   0.6304725  47.9938030  43.2927847   1.8886873  48.7967682
  29.7365546   5.5945283  69.6605301  30.5356932   5.9561288  69.2773199
  29.7837567   4.6571276  69.4726944  11.2043822  42.7158451  52.3570585
  10.3523493  42.4394894  52.0195627  11.5827370  41.9206810  52.7322865
  92.0999774   3.6296523  71.8792009  92.0501813   2.7103025  72.1410179
  91.2429389   3.8163033  71.4959574  22.7464223  15.7120323  83.2283020
  22.6627588  15.2454078  84.0598679  23.6337376  16.0707545  83.2431698
  37.9110289  43.9593887  75.2386284  37.0550466  43.7842894  74.8476505
  37.9990005  44.9119711  75.2057886  55.9295988  31.1515069  78.6266470
  55.1215649  30.6537986  78.7515354  55.9742546  31.7305636  79.3875265
  29.7553539   7.8573549  46.8400478  30.5129790   7.7684474  47.4182606
  29.3098950   8.6464179  47.1485567  38.5217333  36.8431330  71.8660975
  38.2743454  36.7843390  70.9432936  39.3095016  36.3041282  71.9376945
  11.7963505   3.3408767  69.3946362  11.2694299   2.7484840  69.9309731
  12.6440120   2.9031593  69.3164921 101.1750368  80.8621756  66.9107294
 101.5780977  80.6525866  67.7532530 100.3270510  81.2430063  67.1390295
  19.1493690  26.9011259  76.5812254  19.5253241  27.7762747  76.4863491
  18.9083934  26.8429089  77.5057650  91.8056802  87.9536704  41.1103535
  92.5843529  87.5537447  41.4976025  91.9549254  87.9032937  40.1662016
  20.0458717  22.1564078  72.9496050  20.3849459  21.7885613  72.1335506
  19.2555344  21.6479182  73.1313610   8.4494634  92.1461252  25.3770804
   9.1150232  91.7147080  25.9129333   8.9465995  92.7177123  24.7919512
  74.7599606  50.2388565  10.0389310  74.7333436  49.8347382   9.1716310
  75.2979879  49.6456228  10.5631753 103.9158276 103.6779535  35.4971290
 103.9075164 104.6140864  35.6966734 103.0389861 103.4974958  35.1582813
 102.8347543 100.3457967  38.7967634 103.1066612 100.5458612  39.6924615
 103.5284547 100.7122353  38.2483697  43.2441167  72.5280610  16.3739085
  42.5528578  72.1557418  16.9214261  43.2106427  73.4679428  16.5520489
  39.0672183  13.6873221  62.0812654  38.5341048  13.5476232  61.2986374
  38.5779977  13.2592440  62.7838659  32.3501344  86.9012645  73.6273909
  32.6433988  86.1244825  73.1511116  32.9873796  87.0035676  74.3342733
  18.5427630  37.9026079  76.3077927  17.7571893  38.4495115  76.3087130
  19.0901899  38.2685637  77.0025110  35.0660181  29.6045494  82.8779411
  34.8809648  28.9413953  82.2129440  34.2055869  29.8477364  83.2196236
  13.9224684   8.8621789  69.2911339  14.5924962   8.8006073  69.9719477
  14.0330255   9.7396231  68.9249372  38.7190986  33.5277963  74.2992830
  39.3069386  33.7072229  73.5654688  38.0123496  34.1659093  74.2015791
  33.5566755  76.9835869  58.2291937  33.9333005  76.8809930  57.3552036
  33.7354274  77.8947822  58.4615755  22.9836698  96.3553212  63.3954763
  23.9041658  96.4206949  63.1412268  22.8864141  96.9874815  64.1076183
  28.0816026  96.2204943  58.5310030  27.7359243  95.6527648  57.8422165
  27.7690358  97.0951739  58.2997608  35.3926516  13.7047040  36.5667295
  36.0814738  13.8242602  37.2205353  35.1552796  12.7799392  36.6352606
  37.0036149  36.9346118  59.0459728  37.1260405  37.2367644  59.9459410
  37.5159645  37.5455880  58.5164070  18.9476752  47.5180244  39.1720653
  18.6212909  48.4112930  39.2806125  19.2920411  47.2825098  40.0335646
  67.2418503  96.9979945  43.5621309  66.3701091  96.8687693  43.9357615
  67.5365213  97.8333167  43.9249516  71.5600395   0.9015574  38.7568951
  72.3282480   0.8552791  38.1877279  71.3636923   1.8363637  38.8186789
  15.5069244  27.9962182  49.7191715  16.2316036  28.4314656  50.1682043
  15.9221232  27.5200701  49.0000582 100.4139713 103.9169718  56.6182041
 100.2385000 103.0924425  57.0716286 100.6999973 104.5142327  57.3093605
  31.9861126  12.1448958  49.3140173  31.4674497  11.6945040  49.9806309
  31.7250800  13.0629003  49.3872452 104.8127941  81.0914746  62.9013634
 103.9158372  81.0109774  63.2257462 105.2357916  81.6934863  63.5136461
 106.2051978  32.8525829  35.1670265 106.8174072  33.1221318  35.8516979
 106.0942700  33.6330676  34.6240973  97.7341727  81.9291845  38.8749456
  97.9111913  82.5556079  38.1731701  96.8404058  82.1282331  39.1538596
   4.7232909  73.8518516  82.3136806   4.7799773  72.9403273  82.0270824
   3.8150735  74.1007939  82.1422195  21.3986731   9.2441404  27.0626593
  21.5760303   8.3041668  27.0976686  20.5690789   9.3488610  27.5285363
  24.1193795  14.4707513  33.5935593  24.4450998  13.6807299  34.0248442
  23.1837511  14.3090487  33.4723949   7.7359635  30.9808517  73.7806320
   7.3910117  31.6323733  74.3911743   8.6852759  31.0981822  73.8162756
  66.8731645 103.6032568  84.7916222  66.4146558 102.8068892  85.0595760
  67.3733339 103.8634424  85.5651665  17.0959516  97.1757254  50.3153276
  17.9104991  97.5634250  49.9952698  17.3788734  96.4742926  50.9019947
  98.2415727  82.1637217  23.0907607  98.1305364  82.9794375  23.5791373
  97.7881483  81.5055719  23.6175203  10.7575936  86.3461689  49.9756527
   9.9410577  86.2363437  49.4883680  10.5178209  86.1752704  50.8864403
  22.9529929   5.5879408  58.5542870  23.6498499   5.4009891  59.1833115
  23.3946967   6.0382479  57.8343201  11.6970396  52.7872896  43.1641722
  11.1334491  52.2141743  43.6839199  12.1748900  52.1928644  42.5857687
 110.6849358  21.8532872  28.5930848 110.7089107  21.8654561  29.5499063
 111.4085085  22.4211550  28.3281279  78.7034420  99.8198817  34.6437025
  79.2096905  99.5755396  35.4184556  78.1189594 100.5138973  34.9485874
  31.4873362  16.0953772  76.9191742  30.6521010  16.5092874  77.1366453
  31.2590957  15.4120469  76.2889385  31.4489937  26.9753790  50.7959843
  30.9859538  27.7536440  50.4859352  31.5508080  27.1163678  51.7372561
  39.2068000 101.5118227  43.4696198  40.1217408 101.3057688  43.2781744
  38.9183660 100.8060393  44.0483284  14.2215908  19.8282576  54.8980427
  13.7934101  20.4082084  55.5277634  13.6216676  19.0878487  54.8079491
  98.2488850  86.3874761  71.8074512  98.5076646  85.4865876  71.6133785
  97.3216561  86.3261512  72.0370579  21.4910507  28.2996154  74.0289259
  21.6654277  27.3682094  74.1642380  22.1615624  28.7463665  74.5457029
  95.0938376   1.7003931  33.5493517  95.8364376   1.6044012  32.9530621
  94.7879358   2.5964135  33.4086275  23.2608867  48.2243443  82.5600529
  22.9547334  47.3226357  82.6571560  24.2119575  48.1654501  82.6507568
  29.7307253  24.0833330  37.7532554  30.6124115  24.1044521  38.1252956
  29.6041822  23.1721830  37.4886370  86.8743118   4.8419210  40.0064898
  86.6472515   5.6204921  39.4980597  86.9343718   5.1544863  40.9092236
  19.1292477  23.5688972  50.1058054  18.2191741  23.6275458  50.3965998
  19.2295301  22.6627898  49.8140097  37.7254987   5.6491238  58.9810371
  37.5677299   5.0937247  58.2175779  36.9456339   6.2008828  59.0410948
 100.2944716   1.4431006  84.2946243 100.3296550   2.2887258  84.7417355
  99.3607577   1.2837461  84.1567326  48.8149834  19.5723963  25.7866383
  47.8957319  19.3192124  25.8709526  48.8970184  19.8793638  24.8837137
  29.8580885  71.0943794  73.9712858  29.2113233  71.3547850  73.3154583
  30.2928543  70.3319216  73.5893583  43.2589054  12.6078284  30.2450275
  44.0780973  12.5374126  29.7549272  42.9159021  13.4714592  30.0154090
   7.0715804 100.7055471  39.5024467   7.6887984 101.3854042  39.2321348
   7.1422811 100.0342864  38.8237405  40.0205898  39.2516017  77.4095011
  39.2709804  39.0901804  77.9824448  39.7880554  40.0461102  76.9289684
  70.5213623  87.0244268   8.1236001  70.6892042  86.6905931   7.2423383
  71.2867002  86.7551569   8.6315175  12.4561822  46.0230827  39.4677114
  12.2113836  46.9309521  39.6468353  12.0497775  45.8275557  38.6234140
  26.0644388  38.4976292  83.4610462  26.9332600  38.7634063  83.7622833
  25.5994153  38.2495546  84.2600727  20.9778380  16.2775981  34.0335584
  20.4173064  15.5420196  34.2804646  21.8095660  16.1033523  34.4741225
  55.2368689  30.3693748  51.8553257  55.9937143  29.8439407  52.1148205
  55.4831791  30.7425022  51.0089588  27.0316195  26.7898726  39.9365735
  26.1641908  26.4626503  40.1747370  27.1184587  26.5830207  39.0060353
 101.1467556 102.0816747  69.4644690 101.0944418 102.4005105  68.5634470
 101.0943059 101.1292282  69.3849277  41.4014435  21.9608164  42.7554846
  41.2913609  21.5493393  41.8982840  41.7865324  22.8157592  42.5630903
  14.3950915   8.2079786  72.7580833  13.5904729   8.5027337  73.1846285
  14.1752648   7.3477858  72.4003410  38.4072995  12.5235605  38.5210681
  39.0374160  12.7155411  37.8265715  38.9443111  12.2317290  39.2577386
   0.5290896  37.0029378  46.0869455   0.4877993  36.2559891  46.6841030
   0.6538375  36.6117191  45.2222967  94.7220305  92.6684943  52.9684973
  94.3785242  92.6388196  53.8614416  95.6420711  92.9107407  53.0737305
  42.9038429   3.5329288  39.9430728  43.6295843   3.0644953  40.3555107
  42.6256704   2.9613101  39.2274594  28.1216669  41.9665384  37.2548485
  27.6245594  42.7437305  36.9997263  28.7179184  42.2766542  37.9364204
  26.3753390  44.4923401  54.9325705  26.5739560  43.6499691  55.3414726
  25.6916904  44.2928457  54.2929935  26.7768025  43.2134962  77.7252960
  27.0992517  43.2382917  78.6262083  26.5262485  44.1176414  77.5356150
  66.2437296  18.7963367  59.8583651  66.8400288  18.9589000  60.5892754
  66.0000706  19.6689248  59.5494127  25.1287270  24.7314715  54.0147877
  24.2032981  24.4917560  54.0632820  25.3927445  24.8531127  54.9267817
  63.1160307  20.4960513  68.9081097  62.3030329  20.0996542  68.5948515
  63.5691881  19.7858667  69.3625546  81.1472230  62.6510862   0.5028173
  80.7303386  61.9426970   0.9933492  81.7594867  63.0448178   1.1243841
  98.9162632  31.4284539  36.3416767  98.7910124  31.0988116  37.2315550
  99.5676490  32.1238160  36.4333153  42.5305033  11.2096083  47.9689598
  41.7277527  10.6993687  48.0761099  42.9459286  10.8415723  47.1890879
  40.4120159  19.3129444  78.1795645  41.1563826  19.1837251  78.7673140
  39.8052764  18.6070395  78.4027195  45.8270693  10.1609349  55.9935808
  45.5896807   9.2342800  55.9590721  45.8889675  10.4266512  55.0760889
  46.4909315  40.1811266  80.9151268  46.2521982  40.6825972  81.6947079
  47.4174547  39.9743748  81.0377693  17.4721181  10.2070367  68.9935589
  16.9522953   9.7725970  68.3173323  17.7008522  11.0546672  68.6121988
  95.3709348  27.0007277  66.7120028  96.2716778  27.3242402  66.7272663
  95.1769658  26.7890477  67.6251316  39.1158152   1.9392039  26.2668753
  38.3616662   2.5286326  26.2749577  39.3924022   1.9166911  25.3507829
  36.8175554  27.3058367  45.8970881  36.0698509  27.0514894  46.4378977
  37.2722483  27.9705524  46.4144278  31.7146730  28.1307030  58.2013512
  31.6845274  27.2185683  57.9126740  31.5225744  28.0918765  59.1382694
  21.2557912  23.9987516  80.7354736  21.2445331  23.0455995  80.8226871
  21.0142970  24.1586614  79.8231459  56.2970066  13.7088120  58.6603069
  55.6357527  13.5911500  57.9783010  56.9535637  13.0371702  58.4757566
  32.1164513  24.8691869  32.1850562  33.0308652  25.1038265  32.3432374
  31.7469907  24.7427821  33.0589843  45.1404667   8.3383894  30.2649093
  45.6964827   8.3443552  31.0440397  44.3818140   8.8690358  30.5079985
  20.8389997  40.7817602  52.3451710  20.2019024  40.9106684  53.0478239
  20.9140229  39.8311973  52.2613049  62.5082636  38.2375336  53.4982729
  62.8609133  37.6406670  54.1582870  62.9997826  39.0494466  53.6225271
  32.4084878  17.3197687  23.9796376  32.3829770  18.0709815  23.3869648
  32.3718095  16.5574956  23.4018612  30.6376910  14.4714141  49.4525766
  29.9495029  14.9687469  49.0106583  30.1721478  13.7672877  49.9039173
  23.1031680  15.5921626  35.9080887  23.5574937  14.8500180  36.3068891
  23.7857175  16.0608029  35.4277420  44.5138788  49.6526623  55.3449631
  43.8871479  50.3567743  55.1786327  44.1672754  49.2002106  56.1139822
  50.6681108   4.1332939  63.1601954  50.7512140   4.8130968  63.8289213
  50.4100513   4.6060121  62.3688841  24.8255897  49.4221258  69.9712181
  24.6382093  50.3608036  69.9695253  25.7794619  49.3681908  69.9125004
  23.7408233  66.4528704  75.2599716  24.4137740  65.8394623  74.9648476
  24.1943884  67.0275068  75.8766603   8.6118734  50.5232286  71.2336445
   7.6647812  50.4532766  71.3534546   8.8210738  49.8533344  70.5827093
   2.8423575   7.9247546  63.4507275   2.2838375   7.3870981  62.8892899
   2.9088369   8.7618542  62.9912949  39.3758559   1.9737580  55.3477192
  39.0423369   2.3750605  56.1501837  38.6107659   1.9096717  54.7760868
  36.7506123  16.4167607  42.1741962  36.8070245  17.1766448  42.7535295
  35.9179807  16.5269268  41.7150402   3.4308740   2.3680416  64.4634056
   3.1685340   3.2839888  64.3714809   4.3870941   2.3950164  64.4972754
  41.9431257  20.4471254  25.7961249  42.5918865  20.2276468  26.4648318
  42.4089670  21.0238242  25.1906133  59.8909521   8.7856126  18.2185674
  59.6584272   7.8730053  18.3897722  60.6022453   8.9706373  18.8318050
  26.2183094  26.8354702  56.2263155  26.9820642  27.3135519  56.5493441
  25.9324884  27.3310614  55.4588985  47.1695995  13.5429335  74.8240232
  47.6564646  14.3668818  74.8065996  46.3835001  13.7399602  75.3333950
  61.8645620  31.7315626  35.2035284  62.1476555  32.5353718  35.6393981
  61.7971802  31.0877299  35.9086323  69.4863610  61.2224744   0.7744428
  70.3599267  61.4133380   0.4328557  69.1159253  60.5988745   0.1498433
  43.6865902  31.2187028  45.0791597  44.1295290  30.9102583  44.2886496
  44.3790627  31.2673092  45.7382154  44.8786063 102.3297626  57.1970940
  44.0494628 102.2347257  56.7283630  45.3284927 103.0438999  56.7456007
  13.9236283  22.2721910  57.6437569  13.8877547  22.0586658  58.5761452
  14.1437078  23.2034349  57.6196051  61.3509464  34.2570615  74.5053720
  61.5674353  33.6407852  73.8056803  60.5584383  33.8978100  74.9042463
  38.4744048  25.4602599  44.1395903  37.8758049  25.6414127  43.4149599
  38.2723641  26.1320615  44.7908163  46.7462969  26.7841053  31.8242908
  47.6750469  27.0022893  31.7465043  46.7030001  26.1826897  32.5676990
  73.0884600  12.3156059  60.0995874  73.5070467  11.4981925  60.3695011
  72.6422119  12.0973814  59.2813778   4.5950913  45.9171963  52.5055504
   5.0593400  45.2476454  53.0079556   5.2349824  46.2197781  51.8611813
  52.7395439  10.1429832  53.0962515  52.3993206  10.7618856  52.4501514
  52.0569992  10.0962245  53.7657118  35.3957081  45.6677914  45.4686165
  35.6572080  45.8725643  46.3663483  35.6409001  44.7500086  45.3511667
  75.4616240  87.0832089  36.2222171  75.0778121  87.3764256  35.3958130
  74.7573577  87.1842114  36.8625593  34.8585820  59.0714264  59.1727877
  35.0787139  59.9275255  58.8055468  35.6738877  58.5724401  59.1225576
  56.6448927  19.8394513  50.7879162  56.1002684  20.2249908  51.4741945
  56.5019560  18.8965607  50.8701229  47.1270800  14.5573008  71.1179066
  46.3724852  14.3176866  71.6558695  47.5182676  13.7202978  70.8676481
  98.0824713  94.8942623  56.5698004  98.6742119  94.2954150  56.1143255
  97.9472688  95.6131056  55.9523726  28.5488153  28.2064223  56.6463709
  28.0946326  28.8537431  57.1857452  28.6886621  28.6482453  55.8088350
  20.4389620  40.7019711  41.0706806  21.3069177  41.0969162  41.1537504
  20.0326252  41.1681414  40.3400612  64.9733734   4.6368614  56.9172382
  64.0768099   4.8839557  56.6906261  64.8971272   3.7461486  57.2593594
  47.5189877  43.4721375  30.8588290  48.2074118  43.3868790  30.1992583
  47.9267693  43.9695072  31.5677500  17.1466720  30.4077148  36.0890532
  17.6119614  31.2378716  36.1918950  17.7476358  29.8568630  35.5874157
  45.3457546  46.6283941  60.5820179  45.6763506  45.7656479  60.8322239
  44.5445490  46.7357779  61.0946274  52.5440407  13.5239446  64.6776009
  52.7585840  13.9699328  63.8582706  53.3498907  13.5677922  65.1922989
  27.7670097  44.8271513  46.9100857  28.4561872  45.4773283  46.7739248
  27.9988027  44.4017267  47.7356243  57.9549170  20.8713293  43.8446331
  58.6414576  21.1318374  44.4586611  57.1554708  20.8577514  44.3708754
  25.0451922  21.8886161  28.8848233  25.3502822  21.5499711  29.7265315
  24.2929816  21.3393450  28.6641097  60.1291037  20.7120156  62.8433418
  59.9095488  20.9992218  61.9570351  59.5701122  21.2414694  63.4120560
  11.2257075  24.3789768  23.3734679  11.1596453  23.4663224  23.0925226
  11.7975378  24.3526292  24.1406345  47.9202795  12.5009143  59.4697857
  47.1064091  12.0118332  59.3487644  48.3738041  12.0402908  60.1757431
  99.5113298  53.5230112  65.2406788  99.8146554  52.6514244  64.9865818
 100.1305398  54.1228199  64.8246956  96.1223893  90.6097177  17.5640127
  95.3419165  90.2249102  17.9627725  96.7950444  90.5435733  18.2417985
 110.6090497  51.0950613  51.7852449 109.7418968  50.6911564  51.7515564
 111.1866824  50.3968334  52.0935392  33.4110928   4.2150986  77.9627609
  34.2256236   4.7165152  77.9260063  32.8710914   4.5838436  77.2637177
  24.4904089  31.6769242  86.3248825  23.9600849  32.3588657  86.7371273
  23.8548040  31.0250235  86.0294724  44.8258305   1.5533146  89.1524124
  44.4586802   1.9505343  89.9421215  45.7091665   1.2865697  89.4069481
  60.9559278  98.9674262   2.4518129  60.9331350  99.9135427   2.5952359
  60.0390606  98.7217216   2.3284551  45.7709265   6.2708127  34.0947223
  46.0416889   5.6654084  34.7849441  46.5917206   6.5754050  33.7077451
   6.6148609  23.2699728  67.0809078   6.7017972  24.0861130  66.5883732
   7.4696696  23.1471658  67.4937630  26.5329909   6.8069422  50.2752495
  25.7879806   7.3601794  50.0404787  26.2799716   5.9297478  49.9876022
  96.0173038 103.3491351  49.4081831  96.8996242 103.4061009  49.0414429
  95.6725005 102.5206492  49.0750837  38.8319969  39.8784161  45.9453392
  39.7046423  39.5839572  45.6845379  38.2337260  39.3638134  45.4035950
  32.6652169  29.6502542  88.6283112  32.9151130  30.1690793  87.8637123
  32.5160551  30.2968526  89.3181610  10.2196634  56.0728312  45.8841801
  10.8781874  55.9404135  45.2022409   9.4434118  56.3743639  45.4122257
  36.6178989   7.1206552  55.2911615  36.7368174   7.6280570  56.0940504
  36.9406271   6.2465346  55.5102348  25.3087568  13.5109329  67.9077148
  24.8393464  13.6542940  68.7295008  25.0366282  12.6376569  67.6256371
   5.4750586  26.3608408  40.9090137   6.3742787  26.3406157  41.2364674
   5.1912183  27.2649407  41.0441732  37.7536154  22.9802752  69.1821957
  38.6583257  22.6863384  69.0757465  37.2393751  22.1730328  69.1944218
  45.0279570  41.0487795  36.1674738  45.6695557  40.3429461  36.2473369
  44.2129469  40.6059933  35.9309816  10.8011961   3.5988587  58.9207125
   9.9049544   3.5177055  59.2468977  11.0294354   4.5158696  59.0731239
  18.5919089  97.7597031  60.6750345  19.2420812  97.2227160  61.1279678
  17.7785678  97.2596911  60.7435894  47.5635290  29.9842548  83.4743309
  47.1203804  29.8670816  82.6340199  48.4491014  30.2629685  83.2412720
  58.0654387  81.5248803  14.2277356  58.3359961  81.6824249  15.1322862
  58.8164716  81.0883931  13.8256666 109.0749384  44.6441078  53.6952972
 108.7550422  43.9378119  53.1340075 108.3059060  44.9212503  54.1933060
  33.8360381  40.0846481  82.4600601  34.4060516  39.5235634  81.9342232
  33.1235671  40.3246784  81.8676090  35.3278828  24.4596505  70.1663589
  34.9556613  23.8426399  70.7964230  35.2321768  25.3155446  70.5841112
  82.8537128 101.5281323  74.9725676  83.3900169 101.0161257  75.5779266
  83.0535338 101.1650560  74.1097355  58.5974598  36.8664026  86.1900425
  57.9271746  37.3243499  86.6972256  59.3360424  36.7793989  86.7926788
  17.5255048   6.7112464  44.2624140  18.0006623   7.5301182  44.4035006
  17.8785086   6.3678586  43.4416199  37.3984766  18.0300033  58.6451435
  36.9020820  18.6763608  59.1471863  38.0071139  18.5501945  58.1205559
  41.1900568  35.9785533  69.6901512  41.7037535  35.1803660  69.8136282
  41.5953255  36.6173291  70.2766228  26.4460516  44.6623611  60.0111485
  26.3465500  44.3057966  60.8938694  25.5567384  44.8968935  59.7459221
   1.2721407  24.8732638  52.8405905   0.5995344  24.2006898  52.9477215
   1.5699935  25.0581408  53.7312841  12.3843789  46.0800171  74.0600443
  12.2575116  45.9539080  75.0003815  11.6589546  45.6049871  73.6546564
  25.0774074  16.3012648  76.3916063  25.8489156  16.0587382  75.8795643
  24.4076657  15.6696665  76.1293745  49.5661688  60.6611204  21.4746022
  50.3187752  60.0955677  21.6476989  48.9196444  60.0824308  21.0704255
  59.5524788  25.6164312  69.4981098  58.8476419  26.2603855  69.4291067
  60.2812195  26.0063052  69.0152407  53.5780334  15.7094836  79.7725153
  54.3947554  16.0897434  79.4490862  52.8935862  16.1432850  79.2630243
  24.1237640  16.8109381  51.1435270  24.2200518  17.6057959  51.6680861
  23.8225985  16.1485600  51.7654514  19.6991456  48.0546904  81.9005013
  19.6854019  47.3620987  81.2399292  18.9467323  47.8658199  82.4612522
  54.8149204  16.9998312   1.2520438  55.0359917  16.3876510   0.5501937
  55.3741932  16.7378676   1.9833562  48.9388418  28.8592696  58.7643576
  48.4256172  28.2486129  59.2934418  49.4738245  28.2984281  58.2026815
  11.4615345   4.1201612  72.8761482  10.5894804   3.8024271  73.1102419
  11.5087390   4.9954560  73.2606792  39.1789436  49.3105698  53.4371662
  40.1243544  49.4235373  53.3388615  38.9885402  49.6391916  54.3157959
  11.5328419   1.3231114  83.1188774  10.8855188   0.6789177  82.8321362
  11.6905177   1.8647632  82.3455906  51.1805534  34.6262741  28.0993009
  51.5262175  34.2690921  28.9173293  51.9257784  35.0752425  27.7001762
  23.6794424  31.6886878  41.3566589  23.3589935  32.4454951  41.8473625
  24.2815208  31.2506557  41.9582081  44.9635315  10.9169865  76.3539410
  45.1795816  10.3889668  77.1225452  44.6923876  11.7620826  76.7124462
  50.2085114  45.2277088  63.9493036  50.6434011  44.5102978  64.4101954
  50.2917480  45.9768057  64.5393515  30.0709200  31.6569781  58.0521965
  30.7143879  31.9990373  58.6728239  30.5882454  31.3959026  57.2903252
  45.2850151  23.9543033  60.0242329  45.9604645  24.4405174  60.4970932
  45.7559395  23.2308698  59.6105814  13.8547492   6.1227870  63.9661217
  14.1154790   6.8769193  64.4948339  14.6606898   5.8456421  63.5303640
 105.4416909  29.5839095  30.8000350 105.5226149  30.5369902  30.8363771
 105.1226076  29.4041753  29.9156618  24.9413443  18.5192215  36.7764664
  24.6738005  18.1470025  35.9361649  25.1189423  19.4400764  36.5848517
 111.1555131   9.1764718  65.0880480 111.1729747   9.4948143  64.1855049
 110.3013247   8.7536383  65.1763964  31.0879397  22.2205949  30.7171488
  30.4173946  22.7599812  31.1362720  31.9042850  22.4770617  31.1461449
  32.8931332  11.5898955  62.0674896  33.4633255  12.3384595  61.8920898
  32.2544026  11.6031432  61.3546944  32.8114939  52.7229357  53.5992193
  32.9318357  53.4263754  54.2371178  32.9419041  53.1448364  52.7499676
  60.3259659  27.3975921  89.9873543  59.4185114  27.1773076  90.1976776
  60.7546473  27.4852300  90.8386993   1.2757520  19.9950683  40.7318449
   0.4639567  19.5608711  40.9939384   1.2752341  20.8185744  41.2197733
  34.9778008  38.0254865  61.5402746  34.8774934  37.3515511  62.2125721
  35.9237695  38.0985451  61.4136410  41.4089918  37.7934766  41.8632507
  41.9214106  38.1519461  41.1385727  41.7279482  36.8963289  41.9613647
  91.7873339 100.9573583  15.6308767  92.0916848 100.2606753  16.2124559
  91.0712724 101.3739280  16.1104223  61.3248205  23.6147904  64.0229940
  61.7760038  24.4555402  63.9467955  61.9824505  22.9663849  63.7713528
  96.4091587  32.4929953  53.3346224  95.7425022  32.8637385  53.9128494
  96.6434669  31.6594529  53.7427187  81.6923618  21.0086370  51.5934277
  82.0607281  20.1287270  51.5141106  81.8340588  21.4059615  50.7341909
  38.0101418  24.6443677  66.6650629  37.5782657  24.0582466  67.2864962
  38.7804055  24.1574049  66.3721609  21.4436483   8.0368108  52.1228981
  21.4585423   7.6550609  51.2452459  21.1773515   7.3156971  52.6932621
  25.0159049  51.8476486  74.8377848  24.5243859  51.2560511  75.4075670
  24.3438649  52.3529673  74.3803501  11.8213105  43.8189363  56.9538212
  12.3898888  43.4150648  57.6094389  11.3839555  43.0811024  56.5289068
  48.3324194  40.1925755  51.1468554  48.8725376  40.6912184  50.5337811
  47.4853230  40.6381893  51.1369514  53.0863302  92.2586040   9.0205880
  53.1855910  91.5544132   8.3798810  52.3020391  92.7296809   8.7391492
  45.0586008  92.4321965   1.5899202  44.6315025  92.4089698   0.7335969
  44.6700154  93.1876496   2.0309659  25.7591462   2.3329748  75.2707577
  25.7723951   1.4096659  75.0186539  26.0919666   2.3410125  76.1681986
  38.2427716  38.3084488  56.7608690  37.7434015  37.5577736  56.4393997
  38.1804252  38.9560175  56.0587311  91.6974454  87.6140956   3.9158555
  92.4544244  87.6696090   3.3326360  91.1362176  88.3424405   3.6498376
  71.5318154  47.6078465  82.5474635  71.3968610  48.5369476  82.7339861
  71.4255094  47.1755349  83.3948348  37.1259522  49.0622187  42.8582287
  37.8822684  48.4793711  42.7911329  37.0196009  49.4190741  41.9764280
  29.4211650  39.0328526  61.1786652  29.8017263  39.2567706  60.3293943
  29.7321796  38.1446934  61.3538122  18.1050587  37.1129251  40.6694031
  17.2442830  37.1359730  41.0874510  18.7235308  37.2507334  41.3868523
  83.7563992  -0.0195859  71.8864822  84.2949581   0.7705229  71.9302416
  83.8640404  -0.3333957  70.9886169  58.6371231  30.0003767  79.5497513
  58.4975338  29.7689295  80.4679966  57.9511690  29.5289969  79.0769911
  15.6832516  13.6377525  50.1179647  16.1164606  13.2179940  50.8611774
  15.6881571  14.5703864  50.3333759  63.8171673  44.5477009  90.3479195
  63.8075066  45.1149130  91.1188984  63.8743496  43.6609125  90.7036877
  21.4546132  30.2001882  60.7741880  22.3846626  30.0557852  60.9485149
  21.2566566  29.6227741  60.0368690  44.8934221  34.6082330  60.7814503
  45.5498219  34.3220592  61.4166498  45.0800514  34.0939927  59.9959850
  39.6225142  27.6144743  81.5971184  38.8472986  27.5484586  81.0395241
  40.2710867  28.0618978  81.0536194 108.9319328 101.8774650  50.5942822
 109.3816689 101.0376752  50.6876755 109.5149544 102.5094641  51.0148716
 109.9382857  99.4585881  51.6236877 109.8546461  98.6778275  51.0762835
 109.1060451  99.5119605  52.0935392  37.0936513  51.3026714  51.7542744
  37.1657515  51.3329840  52.7082729  37.3778725  52.1696949  51.4649296
   9.7080131  82.6847616  66.4968824   9.5387740  81.7633644  66.3003635
   9.3566795  82.8100983  67.3784065  42.4190235  40.2889395  47.0989990
  43.0920649  39.7427678  47.5051308  42.2712564  39.8892522  46.2418842
  85.9021378  12.0943034  51.4095831  85.0419235  11.6865778  51.5097380
  86.4276409  11.7218184  52.1176291 104.3847670   8.7645692  74.5898056
 104.0041270   9.5674211  74.2337513 104.1596969   8.7848085  75.5199480
  37.7385545   0.6344613  33.5549998  37.2201943   1.4256664  33.7017345
  38.6232758   0.9563775  33.3821726  23.4792256  15.7219112  64.6846771
  23.9893365  16.5318608  64.6831226  23.1059742  15.6756198  65.5648899
  57.8834915  38.3921170  65.9131002  57.5588417  37.5465083  66.2225866
  57.5682735  38.4542513  65.0114298  51.3346863   9.4086444  47.6088524
  50.8646297   9.6863830  46.8226337  50.9765768   9.9558133  48.3078480
 107.2869281 102.6319412  16.2988710 108.0217651 102.6953634  15.6887686
 107.2287015 103.5014245  16.6949010  53.3157317  61.4875428  18.2351037
  52.3617296  61.5599052  18.2646676  53.6234205  62.1045414  18.8990899
   4.2679814  30.9342790  58.8682318   5.0652790  30.6701303  59.3273354
   4.5373923  31.0271692  57.9544353  27.7290082  26.6587734  60.1449919
  27.8517580  25.7188177  60.0121355  26.8231249  26.8215370  59.8820877
  33.1396937   5.6608862  43.4319448  32.2481275   5.4722309  43.1391144
  33.6246490   5.8360511  42.6254940  30.5643773  40.5326223  43.6350584
  30.2998424  40.7054472  44.5385981  30.2735782  41.3040257  43.1486368
  46.2382650  66.6805029  63.2742405  45.8094263  66.6552925  62.4188471
  46.9289303  66.0203838  63.2154560  21.1923075  63.8998127  37.7130508
  21.3604045  64.5575047  37.0382071  21.5592861  64.2775631  38.5123372
  41.2326288  31.3338280  57.1457291  40.6758642  31.7465925  57.8059340
  41.7878246  30.7327867  57.6424551  18.7284362  22.1851373  42.2419786
  18.2563806  22.4830246  41.4643812  19.6213651  22.5069189  42.1180105
  20.1260853   2.1124241  83.2838726  19.4567251   2.1892697  82.6039600
  20.3611350   3.0167037  83.4918690  40.9445524  24.9184251  47.6560068
  40.2576542  24.7054172  48.2876921  41.1355877  25.8431983  47.8126431
  56.6040230  24.5813370  66.0426712  56.6875029  24.8231125  66.9650650
  56.6914797  25.4087067  65.5693388  40.0174332  43.5690451  24.7290945
  40.8770514  43.8020897  25.0797796  39.5504904  43.1883669  25.4729223
   5.5372053   6.9066107  43.3727932   4.7542232   7.4525696  43.4442043
   5.2213895   6.0821283  43.0030346  54.1585827  23.4127927  38.8020611
  54.7199535  23.5810399  38.0452323  53.3419371  23.0841041  38.4261799
  59.1100264  29.2822456  72.5643301  59.7012663  30.0098372  72.7574205
  59.6829271  28.5880756  72.2385311  29.2185903  15.5540121  73.4086943
  28.9544821  15.0874209  72.6157427  29.9339795  16.1230469  73.1247091
  21.6386294  37.4983883  60.0908232  20.8918285  37.5555944  59.4947958
  21.3172722  36.9797063  60.8283377  47.8642654  43.2014513  53.1288862
  48.7470293  42.9763699  52.8351307  47.2881079  42.8378105  52.4565458
 103.9754560  44.4761038  46.8006277 104.9235436  44.4484186  46.6718054
 103.6275407  44.7662401  45.9574127  31.9171977  15.6505156  53.0096722
  32.4939990  15.5404389  53.7655926  32.3236775  16.3499999  52.4980783
  38.0674672  40.4791164  81.1920738  37.3910880  39.9019504  80.8376503
  37.7219605  40.7611275  82.0390320  39.8258662  19.9893999  60.7218742
  40.7336998  20.2417016  60.5533171  39.3082929  20.7264090  60.3975773
 107.2130506  23.8107991  42.1846247 108.0728256  23.4405041  42.3843765
 107.3526987  24.3253279  41.3896465  12.0577490  33.3529377  86.5304184
  12.3464370  32.6758146  87.1422958  11.3387930  33.7939668  86.9829941
  39.2545700  27.8253150  52.8902388  39.0894389  28.5914731  52.3407269
  40.1341581  27.9667497  53.2403231  26.2870455  16.8421459  63.5621071
  26.1749434  16.1574411  62.9026794  26.9533539  16.4960825  64.1558266
  41.5799713  28.4144258  50.1649666  40.7896090  28.5545158  50.6864357
  41.2683487  28.3871913  49.2603254  20.3283548  41.7426586  58.2932758
  20.1690555  42.4061394  57.6219749  21.1249900  41.2969637  58.0052471
  49.3936253  19.2861652  36.9041014  50.1139069  19.9162912  36.8849611
  49.7766113  18.4744453  36.5714383  43.3726692  58.3293819  54.0806389
  42.7190638  58.7356567  53.5114574  44.0138292  57.9524279  53.4780979
  40.1852369  25.0081110  82.0742035  40.4661846  24.8721600  82.9790878
  40.1444530  25.9594321  81.9764328  44.0265226  34.8838639  47.1947479
  43.2197809  35.1378536  46.7465401  44.5652771  34.4858265  46.5109777
  36.8398499  41.3486147  36.7233467  36.8825293  41.6237211  37.6391673
  36.5001369  42.1136284  36.2590384  42.5116825  19.3545663  65.9061766
  42.5863028  18.4136641  66.0654402  42.7876377  19.4661224  64.9964333
  50.3748465  71.2071562  73.5769510  50.9073353  70.9637642  72.8196859
  49.7871399  70.4626751  73.7057209  35.1105595  49.3960381  50.4472637
  35.2043462  50.0204754  49.7278833  35.9566259  49.4169807  50.8944416
  55.2254868  56.6029072  42.9036713  55.6760788  55.7655811  43.0135679
  54.6977711  56.4889860  42.1132469  45.5292797  41.8227243  67.1004391
  45.7951403  40.9343719  66.8629980  44.5760059  41.8186426  67.0138836
  41.0942984  25.0861859  44.2617655  40.1766968  25.3564906  44.2275429
  41.4876986  25.6570578  44.9217415  27.3676157  23.3442807  24.8234415
  28.0542946  22.7217245  24.5844293  26.6839695  22.8055596  25.2217364
  59.2522240  41.7846537  64.2997074  59.1576385  41.9049120  65.2445984
  59.6933985  40.9400702  64.2087317  48.3950281  32.7458119  53.3877230
  47.4460077  32.6718736  53.2871199  48.7447882  32.5352788  52.5219440
  45.3491688  57.9295063  45.5402088  45.3571463  56.9756413  45.4607201
  46.2209129  58.2010841  45.2529097  23.1024575  39.8732901  45.2081060
  22.2031403  40.0794935  45.4629421  23.0862808  39.8737001  44.2510462
  45.3934860  33.4578180  51.2805223  45.7949448  34.3015456  51.4883471
  45.2397776  33.0493855  52.1324539  83.8403945  68.3930270  15.4030057
  84.0252833  68.1777481  14.4888326  84.4731383  69.0775196  15.6205674
  60.1140356  35.9382749  67.6868343  59.3797493  35.8503628  67.0791149
  59.7396040  36.3716149  68.4538078  45.7627153  59.6392155  51.0093355
  46.3177681  59.3508720  51.7339134  45.1846552  60.2962112  51.3971901
  46.4104271   7.6037389  25.7107186  46.6064501   8.5397542  25.7517266
  46.7348242   7.2545010  26.5407968  36.1050749  55.4699183  50.8366013
  36.2816095  56.1748791  51.4595747  36.9245172  54.9770260  50.7941437
 110.0401071  95.7141665  58.9626360 109.7422246  96.6237030  58.9781523
 110.9102086  95.7402793  59.3607283  37.3421192  35.0819993  45.1704931
  37.9305458  35.8000755  44.9373627  37.2438550  34.5804834  44.3611383
  25.1832676  63.0234861  67.1907663  24.9574995  63.9535379  67.2068977
  25.3748322  62.8076601  68.1034327  19.6664584  43.9034748  41.0353279
  19.8426569  43.5410833  40.1670790  19.4590139  44.8237514  40.8731699
  92.0315032 104.0601663  16.6524812  91.5297942 103.5564069  17.2933694
  91.4920525 104.8315696  16.4788076  43.0349445  39.6668601  35.3663731
  42.5115585  38.8918543  35.5705047  42.6555490  40.0052738  34.5553446
  15.5106521  28.3322406  71.4657784  15.7940292  28.3213139  70.5515480
  14.9756515  29.1223717  71.5412712   0.7763283  50.3941536  55.5255604
   0.3386708  49.8169041  54.8998880   1.6469291  50.0118542  55.6357098
  58.4372282  24.7984314  51.0048628  59.0060711  24.6350813  51.7571688
  58.9326000  25.4081202  50.4579401  35.5039477  14.8052192  61.5616322
  34.8948002  15.1879406  62.1930552  36.1797953  15.4730737  61.4457464
  47.9454136  28.0726910  52.6519632  47.1596813  28.5137987  52.9748917
  48.0259895  28.3618760  51.7430544  60.3586654  80.3604583   1.5106698
  60.3808718  79.8485521   0.7021543  60.5140571  79.7194461   2.2043439
  33.3329296  49.4139290  84.4415951  33.8019347  49.3643379  85.2745438
  33.9775133  49.1442680  83.7873554  49.6066189  29.5495939  40.8984756
  49.3099689  29.1812825  41.7306900  48.8561058  29.4522643  40.3123951
  61.4928722  34.6116519  58.8156986  60.8044004  35.2588487  58.9685965
  61.8718529  34.4561815  59.6808195  48.4709120  49.1446066  27.7345276
  47.8036642  49.7886705  27.9715848  48.6334085  49.2994833  26.8040228
  24.4073772  65.1787376  43.0043316  24.1306734  65.7924747  42.3238945
  25.1337528  64.6957397  42.6102209  37.2743487   4.5709395  56.0217667
  36.7450762   4.2805257  55.2789593  37.1604753   3.8850838  56.6796923
  36.2989807  77.2633791  72.6501989  37.0683265  77.4360847  73.1928873
  36.5401053  77.5879908  71.7826033  61.4665651  32.9333854  50.2309322
  60.5826378  32.6098204  50.4047489  61.3437557  33.8548303  50.0027037
  38.7351441  39.0575886  41.7642403  38.1999874  39.1279888  40.9737444
  39.4036055  38.4088516  41.5439463  34.0433407  38.0097985  47.0701122
  34.5926404  38.7936997  47.0704174  33.1965256  38.3105946  47.3997450
  34.2979884  35.2248669  42.3066092  35.2494097  35.3298664  42.3046303
  34.1039968  34.8151064  43.1496382  34.6449399  78.9085722  68.5238743
  33.8936782  78.3306026  68.6572552  35.1438951  78.4942150  67.8198957
  57.5105238  19.0191948  21.7483425  57.1294212  19.7569418  22.2244954
  58.3213472  19.3669379  21.3770390   3.2363594  36.8671846  59.1707468
   3.2647774  36.9374442  60.1249409   2.4511541  36.3497663  58.9919662
  27.8726578  12.0860493  80.6087303  28.6397815  12.6379693  80.7608318
  27.2638679  12.6487136  80.1301765  51.6064930  42.5333261  64.7308969
  52.1197224  41.7525434  64.9387360  50.6959105  42.2444773  64.7912645
  49.4818449  48.3205938  58.1014013  49.0600014  49.1515875  58.3198929
  48.8659573  47.6527739  58.4029531   0.7782132  24.4422317  30.0573611
   0.9796946  24.9778938  29.2900920  -0.1173824  24.6860623  30.2912116
  96.1919650  34.2050123  83.5540867  95.3295144  34.2188430  83.1390953
  96.1993869  33.3950448  84.0641117  53.7331772  29.3148470  82.1395397
  53.8367939  29.8124790  81.3284588  52.7898169  29.3148875  82.3017120
  37.1032929  33.7067437  68.5391855  36.3090897  33.2444215  68.8070107
  37.7685690  33.0216789  68.4734106   8.6224014  52.4293804  64.2049885
   7.9517895  51.9816589  64.7207975   8.1819421  52.6582861  63.3865595
   6.4286602  34.1773129  35.3238964   6.4303488  35.0112081  34.8539495
   7.1898192  33.7082243  34.9821019   6.7955095  36.8042803  16.0384154
   6.3366908  37.5783610  15.7120478   6.1502534  36.0999036  15.9773529
  42.8425694   9.3429935  61.2277269  42.8300667   9.8478866  62.0408440
  42.3763323   9.8922777  60.5975389  71.6839027  78.0351591  42.9259682
  72.6254416  77.9429960  43.0717134  71.6012144  78.8189650  42.3827887
  26.3501740  46.5482712  69.0951538  25.9010673  45.7090235  69.1961193
  26.3307929  46.9370222  69.9696398  48.0711937   7.8775263  73.7255144
  47.4733210   7.2764122  74.1698551  47.5252151   8.3231622  73.0777884
  36.2938905  20.8614302  76.0954189  36.8227386  20.1117849  76.3685226
  35.4680181  20.4773808  75.8010197  32.1177316  51.6775417  67.0168734
  31.3137102  52.1795607  67.1501350  32.7657795  52.3295641  66.7501688
  14.4550741  10.6394267  67.0736456  15.2660668  11.0068429  66.7221832
  13.8312101  11.3648164  67.0447159  12.2971284  32.3657775  29.1170359
  11.3532114  32.2185826  29.1769242  12.5212204  32.8173280  29.9307418
  31.4634156  30.4528952  54.6956873  31.8606114  30.2458668  55.5416203
  32.0603418  31.0878587  54.2997932  71.9733572  35.9494305  79.3463373
  72.3426151  36.3483548  80.1342106  71.2226772  35.4463196  79.6619177
  12.6663733  44.0138435  31.7324662  12.5233591  44.9462605  31.5700507
  13.1546474  43.9861822  32.5553012  49.4223309  12.5188231  79.4026566
  49.1902018  11.6125333  79.6051121  49.4411993  12.5533068  78.4462643
  27.1940327  52.0125961  54.4354582  26.5342021  52.0810461  55.1255083
  27.0744777  51.1335087  54.0761042  29.4580197  26.2054610  80.5890465
  29.5276356  27.0360970  80.1184845  30.2813983  25.7545376  80.4020977
  20.1943612  56.9899654  58.3750200  20.9787321  57.3131895  58.8183308
  19.6071291  56.7314720  59.0853500  41.0901451  32.1430898  66.8253326
  41.6115618  31.3669562  66.6204643  40.8564568  32.0380402  67.7476025
  26.8130183  58.6176157  54.7824383  27.0495820  59.4977474  55.0750732
  26.6849399  58.7055922  53.8379335 105.3911605  27.3416400  57.9931211
 105.7741954  27.1343255  57.1407461 105.9523990  26.8907642  58.6239576
  48.4263277  40.8232212  71.0412693  48.9078236  40.0266790  70.8178711
  48.5356617  40.9115887  71.9880915  47.5768709  27.8500009  60.9632969
  47.8000546  27.0249701  61.3942766  47.9814529  28.5231614  61.5104723
  26.1965223 100.7557404  70.8642864  26.6544242 100.9983477  71.6690826
  26.1333938 101.5724811  70.3691244  64.6893406  22.3831725  60.8203602
  65.4968405  21.9371319  60.5649710  64.6289873  23.1294012  60.2239275
  33.5737467  28.2838678  45.5317020  32.9418063  27.9065728  46.1436939
  33.8327956  29.1122627  45.9352922  52.7596998  26.0153103  63.2454824
  53.5041475  26.6168332  63.2596397  52.3962307  26.1047411  62.3645020
   9.9435139  48.7427664  48.4542322  10.1786530  48.3741379  49.3057346
  10.6103122  48.4066725  47.8553534  67.2634649  18.3304167  70.3715563
  67.7050877  17.4915910  70.5041265  67.7993965  18.7829459  69.7202253
  76.1420584  14.5894194  27.4965858  76.3984013  13.8108361  27.0022893
  75.2194118  14.4462502  27.7074242  20.0574040  31.0736704  41.5778160
  20.4926443  31.5095282  40.8451319  19.6748102  30.2846289  41.1940622
  36.9103694  55.0595379  55.1472044  36.8374205  55.8965683  55.6057787
  36.0532641  54.6487761  55.2606773  46.6864681  47.0924568  46.4603138
  46.9948912  47.4160051  47.3067331  46.1333847  46.3421106  46.6778183
  23.7066126  58.8937521  34.7840762  22.8027558  59.1979027  34.8663235
  23.8389587  58.3276463  35.5444956  43.1289482  44.2075491  63.0460072
  43.7230968  43.4583282  63.0025816  43.1394482  44.5731449  62.1614408
  54.3293524  29.8892140  68.3835554  54.1729259  29.0252256  68.0023956
  53.4869576  30.1397848  68.7627840  69.1281986  10.3185844  28.7184167
  68.7118387   9.8311526  29.4292521  70.0412416  10.4075241  28.9916778
  34.1226625  44.3478346  38.7226653  33.6511302  43.5280514  38.5748839
  33.4551477  44.9532843  39.0452957  51.7408133  26.7957354  69.2027283
  51.0603285  27.1970272  68.6622334  52.3685169  26.4409184  68.5731840
  29.2713666  21.3174629  50.9042025  28.5665607  21.8050337  50.4778767
  29.5985699  21.9111538  51.5799999  58.8953733  40.0371981  54.1625023
  58.2813025  40.6565809  53.7681532  59.3940687  39.6904540  53.4226990
  15.0889635  67.7551889  55.9009933  15.1530731  67.4835491  56.8165970
  14.2374122  67.4265575  55.6127310  42.5333071  18.8340187  35.3340268
  42.3894024  19.5032597  34.6649671  43.2253742  19.1944909  35.8884025
  28.3779168  36.3102317  65.3257895  28.2739568  37.0177364  64.6895027
  27.6453018  36.4231801  65.9313917  54.5857096  20.3409743  59.3446970
  53.8820410  20.5828524  58.7425470  54.6698713  21.0940123  59.9295712
  35.0804782  36.1317277  63.7934446  35.7402444  35.8910894  64.4438553
  34.2646599  36.1913109  64.2905569  26.8038511  41.7598104  41.4055777
  26.9104528  41.3892365  42.2816706  26.9302058  41.0175467  40.8145475
  30.6509995  23.3124590  57.3619318  30.6342840  23.0862832  58.2918739
  30.5643439  24.2655897  57.3456573  51.7540026  19.1148043  28.6956692
  51.1199427  19.6101236  29.2141891  52.5347614  19.6683252  28.6794972
  32.0358300  58.3835745  45.0327063  32.7885175  57.8023958  45.1419210
  31.9264293  58.7972689  45.8889294  68.7287140   9.6617979  46.7070913
  68.1256580   9.0252095  46.3232756  68.4332323  10.5065680  46.3675547
  46.3135004  60.1320362  57.0560265  46.8043709  59.6711636  57.7363777
  45.8557558  59.4391680  56.5799618  36.5929914  84.6264935   6.7061728
  37.1225691  85.4054165   6.5356982  36.5132356  84.5950413   7.6595253
  42.1756601  57.2913408  49.9881506  42.3584461  56.4503956  50.4072285
  42.6324749  57.2447157  49.1482830  43.5059357  41.3428450  62.5209713
  43.4981394  40.8744669  63.3557129  42.6348495  41.1924458  62.1537924
  38.6562228  22.1688390  59.7948408  38.5542250  22.2519350  58.8467264
  38.8951945  23.0481434  60.0880051  71.1332178  10.0524223  57.1259880
  70.9112978  10.7075524  57.7876425  71.6498566   9.3999326  57.5988245
  35.5508089  52.5969553  60.4826212  35.5746150  52.6695776  59.5284748
  35.0007153  53.3277130  60.7647943  50.1698303  53.6605883  54.0973330
  49.6788883  54.2508364  54.6690083  51.0356855  53.6013126  54.5010805
  32.1102524  74.2457485  55.1987600  31.9082999  73.3186483  55.0725317
  33.0077648  74.2522335  55.5314159  56.4945221  54.4096231  41.0720968
  55.9362936  55.0753117  40.6702662  56.1189890  53.5771894  40.7852936
  48.7634087  91.4781570  70.4967546  48.7534332  91.9706345  69.6760273
  48.7200451  92.1483707  71.1787844  48.3815002  54.9336052  52.2745705
  48.2738829  55.5648661  52.9860210  49.0013504  54.2897701  52.6173544
  32.1440220  55.3830957  42.5317335  31.6920257  54.8649406  43.1976557
  32.8305483  55.8450508  43.0128908  71.8939114  56.2512255  58.9807749
  72.6594925  56.2578011  58.4062529  71.1460686  56.2571478  58.3833408
  45.5371809  62.1093941  49.5044041  45.7144022  61.1784887  49.3693590
  46.3981056  62.4965715  49.6629572  22.8765631  54.0587854  48.4635973
  23.3722401  53.4581470  49.0201664  23.0837202  54.9284363  48.8056898
  55.9520674  61.9398642  45.5513144  55.5889559  62.5883961  44.9481678
  56.8632317  62.2076750  45.6708431  49.8928642  75.6489420  80.0014973
  49.0649652  75.8561707  80.4349422  49.9853754  74.7015619  80.1022148
  39.4772983  58.1560469  24.3674016  39.0170789  58.8605738  23.9112449
  40.2103424  57.9370308  23.7921548  99.1727992  58.2769060  30.0607038
  98.7417945  58.6812544  29.3077302  99.1323598  58.9436054  30.7463479
  65.8150434  59.4294930  44.2653656  66.1833620  58.5691261  44.0645123
  64.8902798  59.3550682  44.0297699  65.5217218  92.2895813  54.9375248
  66.3009024  92.4654579  55.4649448  65.8511782  92.2112560  54.0422297
  19.2938936  78.7888193  68.1601143  18.6550510  79.4993687  68.1032801
  18.7846696  78.0314112  68.4486628  44.8767662  62.4280977  64.5750284
  44.9529648  62.6521683  63.6475468  44.3985081  63.1623077  64.9603033
  64.3508530  61.1085129  47.5973082  63.5731316  61.6181326  47.3700094
  64.2958593  60.3284883  47.0452499  66.1065817  55.2945185  41.2666178
  66.9182348  55.0943613  40.8003664  65.8611059  54.4694281  41.6851950
  66.3425779  65.5972433  53.6901140  66.7496777  65.6478262  52.8252745
  65.6274986  64.9701929  53.5819244  95.7996464  97.5267220  32.1048665
  96.2341213  96.6816807  31.9892669  96.3801098  98.0168056  32.6872015
  74.8255730  85.1942348  59.9872065  74.3086290  84.4210911  60.2135849
  74.8660040  85.7011700  60.7981348  59.1554403  74.2557240  51.1275911
  59.8042059  74.3483305  51.8252707  58.4005928  73.8507032  51.5546751
  78.8758373  90.6898975  73.7212229  78.4983063  90.7769299  72.8459358
  79.3074846  89.8355961  73.7120295  70.5944490  52.5028086  65.7560110
  71.3799572  52.8278208  66.1959887  70.1973820  51.9026423  66.3871765
  68.9395761  68.2360125  60.1028824  69.3286753  68.7904596  59.4265509
  68.4597349  67.5657511  59.6163368  57.7409124  49.4462061  41.7799234
  57.3680639  50.0663710  42.4065113  56.9922256  48.9324427  41.4770269
  95.9227996  19.2222890  59.8501682  95.7275681  19.8852548  59.1879034
  96.2129645  18.4605988  59.3483067  22.9994178  94.5424843  28.6041999
  22.4998188  95.3562355  28.5375667  22.4195552  93.8747597  28.2379532
  73.9548635  83.5774231  48.5532951  74.5204687  83.8417339  47.8277206
  74.1634035  84.1929436  49.2560577  79.1889191  39.7617221  38.5849810
  78.4125948  40.2502728  38.8585925  79.0076685  39.5118809  37.6789117
  70.0248194  75.8167601  47.7710342  69.3466949  75.6342745  47.1205902
  69.5718002  75.7582331  48.6122131  91.9548893  72.4906969  45.4737377
  92.5212574  71.7407799  45.6556320  92.4878883  73.0657768  44.9247122
  79.3619871  73.6154699  17.1540475  80.1000309  74.1916895  17.3527837
  79.7041273  73.0044413  16.5015030  20.3113747  72.5363207  87.3277473
  19.8299289  71.8614197  86.8492603  19.6312439  73.0685139  87.7405643
  71.8385553  64.1977501  51.6507101  72.0981741  65.0509310  51.3029909
  72.6118135  63.8851547  52.1203756  96.7178822  75.7955456  15.5798554
  97.4479008  75.7772398  14.9610019  97.1345997  75.8334398  16.4407551
  93.1466007  65.0001621  60.5969715  92.5397110  65.2809715  61.2818575
  93.5928726  65.8032417  60.3284073  70.0189590  90.1566505  51.9775629
  70.7176781  90.6381035  51.5345955  69.3987370  90.8323956  52.2512722
  64.6086264  99.5093250  40.9286594  64.6203232 100.1270390  41.6597748
  64.5214415 100.0604057  40.1508808  77.9009867  95.5986977  57.3375177
  78.7651825  95.5475712  56.9291306  77.8995132  94.8929310  57.9841471
  85.0961208  77.6542711  64.7990751  84.1867924  77.4061108  64.9657011
  85.6124973  76.9545746  65.1990938  65.6218052  63.7091589  45.7267141
  65.8991432  62.7942991  45.6782532  66.2557888  64.1208410  46.3139200
  32.3921180  73.0426693  57.9616976  33.1759787  73.3063173  57.4797392
  32.4737239  73.4798908  58.8092899  63.1787586  55.4919767  50.3514671
  62.4013710  55.5046606  49.7931385  63.0040407  56.1539793  51.0203934
  77.8117466  87.8825760  68.4466934  78.5742950  88.3984756  68.7085962
  77.3736572  87.6676750  69.2701769  66.7185688  58.9938211  51.5240812
  67.3727322  58.9418364  52.2209311  66.8775511  59.8416042  51.1090899
  62.7147388  56.6139555  43.7743568  62.1177244  55.8955479  43.9833927
  62.6111794  57.2301388  44.4994926  76.8889952  81.2935352  59.0832520
  77.5350952  80.6055450  59.2427969  76.9523907  81.8639469  59.8493099
  64.5591640  57.4286032  42.0722866  65.1415682  56.6715908  42.1352434
  63.8350821  57.2235775  42.6638126  61.9092941  68.3654785  54.6466780
  61.7847776  67.8416824  55.4381084  61.9214249  67.7252626  53.9351940
  71.5543985  84.6447945  52.0654202  71.9937658  83.8793945  51.6948080
  70.6359529  84.3840027  52.1337843  76.5997744  56.7014074  37.1827340
  76.5554953  55.7734013  36.9523573  77.5365496  56.8945599  37.2197819
  88.3544445  59.7917891  66.8937683  88.8798046  60.5780077  66.7451620
  87.5697231  59.9240017  66.3618231  99.2719273   9.4807729  46.1756372
  98.3171992   9.4796189  46.2443829  99.4620566  10.1232251  45.4920101
   2.9372259   1.5540418  40.7611084   3.8417097   1.6329297  40.4579306
   2.8894564   2.1295079  41.5245152  88.6685753  57.2308016  40.6527281
  88.8544369  57.3866892  41.5786839  88.0598736  56.4920855  40.6516790
  20.6764313  21.2294492  51.9218254  20.7032200  20.3841885  51.4734316
  21.1392304  21.8269547  51.3344240  47.9900455  58.7017059  45.5152416
  48.2150888  59.4735670  46.0346746  48.7977886  58.4813929  45.0512981
  86.3853645  58.8738871  77.1032906  85.8422661  58.4525394  77.7694321
  86.0372543  59.7631359  77.0377827  78.3890533  79.7259569  31.7966390
  77.8893280  80.4223728  31.3705969  79.1663313  80.1654625  32.1414709
  74.4153166  73.1167507  50.2843189  74.8928928  72.9557848  49.4705343
  73.5303211  73.3466530  50.0011969  70.9156494  16.4440259  69.9297142
  69.9705820  16.5916165  69.9656868  71.0076384  15.5747994  69.5395565
   1.6343161  11.8181905  38.9525414   2.1729704  11.6892537  38.1718636
   1.6962811  12.7559766  39.1340804  69.3621254  81.1461163  29.3606639
  68.4536743  80.8770180  29.4968033  69.5046759  81.8416309  30.0026703
  25.0575161  91.6000748  34.4879127  24.9908853  90.6635571  34.6742511
  25.2324247  91.6454029  33.5479212  40.6726694  96.3026142  78.1324530
  39.9990058  95.8013630  78.5919762  40.1935720  97.0135021  77.7066231
  62.3630857  57.9297352  46.1354733  62.1694231  56.9997549  46.2531900
  61.8228292  58.3716774  46.7904854  77.5517178  65.0961304  55.0980186
  77.9023123  65.1689148  55.9857178  78.2301521  65.4771852  54.5405626
  95.7759953  81.7217541  58.9876986  94.9376965  81.2634277  59.0462065
  95.8483982  82.1953297  59.8163795  43.2167101  70.5834484  42.8473568
  44.0474272  71.0459232  42.9580784  42.6965284  71.1568594  42.2844744
  56.0412121  73.9595556  41.3485670  56.6234112  73.9148140  42.1070385
  55.3289032  74.5351505  41.6270208  98.3781438   2.3205289  44.0073109
  97.5768332   2.0812138  43.5416269  98.0750089   2.6391324  44.8575068
   3.1293012  41.4993942   6.5608712   3.8176108  42.1247566   6.3341638
   2.8017093  41.1875332   5.7172700 102.7965450  59.4026661  52.4789381
 103.1958199  58.5682631  52.7250767 102.8933430  59.4430876  51.5275049
  75.2479935  85.5548286  53.2257128  75.0457048  84.8154068  52.6525116
  75.6236172  86.2142944  52.6424122  14.6884342   8.5446652  65.3752804
  15.4823109   9.0527734  65.2084970  14.3435570   8.9010533  66.1939907
  38.2768106  67.3686314  81.3202763  37.8029919  67.3097324  82.1498871
  38.9774871  67.9986095  81.4888287  70.6975698  76.8967390  54.2238617
  69.9171305  76.3783979  54.4199896  70.4630470  77.7888632  54.4794846
  39.3586946  71.0301399  47.3753452  40.1456213  71.2634993  47.8678131
  38.6372161  71.2061834  47.9792547  41.4302874  78.8661909  78.6232662
  41.4278316  78.4544563  79.4873857  42.3414278  78.8123703  78.3348989
  10.6833264  28.3277329  63.7906790  10.7112881  27.5126275  64.2917347
  10.5985447  28.0461415  62.8797722  38.3341885  73.8523722  61.6872120
  37.6618266  73.2007837  61.4882326  38.5949826  74.1960478  60.8327484
 107.2338200  85.0700283  45.5377054 106.8315792  84.2021847  45.5735350
 106.4944839  85.6740189  45.4683590  11.9881626   2.5601777  88.5342979
  11.8257519   2.4090203  87.6031685  11.6106983   1.7962369  88.9703655
  58.7389469  71.4531565  56.2704086  58.5239697  72.1622229  56.8764114
  59.6953535  71.4146852  56.2763929  68.6672258  78.1462240  64.0581131
  68.5159254  77.7347898  63.2071972  69.5965099  78.3756018  64.0513992
   5.3915020   4.3622788  30.4540062   5.6378313   4.9782571  31.1440277
   5.6291958   3.5034665  30.8035469  59.4548607  51.8240786  41.6518831
  59.0560055  52.4236917  42.2824478  58.9760733  51.0031366  41.7660952
  64.0254211  64.1582155  52.8532982  64.2326927  64.6425819  52.0541334
  63.1071568  63.9083004  52.7505398 103.3972740  75.9533453  64.4289923
 103.1862068  76.3923597  63.6050081 104.2991734  75.6531572  64.3162680
  92.3429680  78.3304453  53.0295372  91.9007111  77.7850676  53.6800814
  93.2492352  78.0224276  53.0349970  17.7669574  33.6073387   9.8981496
  17.2733213  32.8266609   9.6469613  18.0400182  33.4382141  10.7998582
  59.8788595  90.5477333  79.6248531  59.2111874  91.1959743  79.4007349
  59.6427822  90.2552700  80.5051708  60.5959558  86.3562965  75.1451969
  61.1598063  85.8435345  74.5660734  60.5732203  85.8566475  75.9613276
  54.0708113  85.0014973  68.0013227  53.9748573  85.3833580  67.1288490
  53.8181400  84.0849018  67.8907156  86.4829445  84.3998718  58.4760427
  86.6324234  85.3442860  58.4316301  87.0692635  84.0969276  59.1693544
  57.7308083  73.7648249  63.4688711  57.9572153  72.8642702  63.7011909
  56.7737770  73.7808752  63.4769535  67.3363400  87.8230000  38.0433893
  66.7138052  87.2246361  37.6302981  66.9255352  88.0594254  38.8749981
  44.3371868  89.1718769  84.4120407  44.8709059  88.4506512  84.0785694
  43.7548065  89.3945980  83.6857796  75.8450556  95.1801968  38.8131571
  76.5881348  95.7048225  39.1112137  75.1436138  95.3855610  39.4312501
  50.7157469  82.2697830  49.4886971  51.4041138  82.8116322  49.1029835
  50.8700085  82.3221397  50.4319334  11.5772334  62.6701498  38.0324507
  11.1560337  63.4525871  37.6766324  10.8838741  62.2257328  38.5202813
  61.3770323   7.5305184  66.1232948  61.1775236   6.7053899  66.5655613
  62.2032790   7.3651894  65.6691885  73.4697676  74.5195532  56.2899733
  72.5682449  74.2042923  56.2259960  73.6431360  74.9235487  55.4397011
  38.9214660   6.6748894   1.9076749  39.0341188   7.0547617   1.0363313
  38.2440997   7.2127426   2.3176977  55.3768873  76.9505548  73.5021591
  54.5009899  76.6153002  73.6935568  55.3497171  77.8654003  73.7824392
  78.3400726  60.2557087  53.2549047  78.4732008  60.7292604  52.4337721
  77.4160624  60.3931618  53.4635735  84.3214607  64.9873877  66.8774176
  83.6371517  65.6042242  67.1371460  84.7976112  64.8030424  67.6870632
  47.9970837  83.5785389  42.5252342  48.4926891  82.7962875  42.7674866
  48.5777473  84.3073177  42.7442122  61.1726332  84.1273975  48.9477253
  60.8910179  84.9542809  49.3391228  61.1755943  83.5063744  49.6761131
  57.6358366  67.9625654  48.9185429  56.9821024  68.5992384  49.2075253
  57.2187614  67.1119881  49.0556574  61.9718294   9.9797257  67.2706985
  61.3203339  10.5802068  66.9084692  61.7024832   9.1164502  66.9569588
  76.8964672  60.8834648  57.1938086  75.9500837  60.9052086  57.0519924
  77.2564220  61.4249420  56.4913368  55.1286125  78.6436319  57.0056581
  55.4922390  78.0522919  56.3466263  55.0476360  78.1046104  57.7925062
  59.8122215  69.0312338  15.0813341  59.2818308  68.5432386  15.7112384
  59.5848942  68.6521673  14.2322958  67.0151997  61.3390827  45.8396959
  67.2828674  60.8999729  46.6470146  67.0192337  60.6473207  45.1781225
  69.1636038  58.0460405  52.7352285  69.8595238  57.7580976  53.3260059
  68.4848547  57.3765039  52.8203726  56.3815451  85.3073311  37.5108981
  56.6807795  84.4065475  37.6344991  56.8100691  85.8002186  38.2106590
  62.2436380  58.1995058  52.0100260  62.6017570  59.0296030  51.6955090
  62.9238653  57.8473520  52.5840569  61.1123800  63.0194521  48.4063911
  60.3223324  62.4920988  48.5245419  61.5342188  63.0147314  49.2656088
  59.1480970  70.5560493  42.6275444  58.9213419  69.6829271  42.3074293
  59.6844530  70.9347057  41.9309998   6.8165294  59.2268419  50.9124994
   5.9193126  59.3496227  50.6023884   7.2435848  58.7256336  50.2177763
 110.6538253   4.2956456  49.8226595 109.8102908   4.3613442  49.3750334
 111.2232785   3.8490399  49.1961670   3.1278697  80.8926868  57.8129005
   3.8291255  81.0730553  57.1868563   2.8922073  81.7519474  58.1626987
  92.0030022  96.3333130  77.5298977  91.6613960  95.5719280  77.0610332
  91.9655800  97.0448303  76.8907118  63.2838154  97.0765495  41.0046291
  62.3615456  97.2163677  40.7899332  63.6350393  97.9570675  41.1371708
  45.2245378  92.5369644  49.3353844  45.7692575  92.0260334  48.7366676
  45.0899267  91.9606209  50.0876713  69.5017576  98.5194588  81.9243240
  68.9107800  97.8883743  81.5135860  69.7946978  98.0865288  82.7261925
  68.5995913  83.7502670  51.8712234  68.2394505  82.8658295  51.8056440
  67.9160309  84.2551613  52.3117352 101.2502675  11.1217126  55.6129122
 100.9597449  11.6806230  56.3336372 101.8647103  11.6659364  55.1204538
  39.5098019 100.9840012  25.0947738  39.3782401 101.9139957  25.2792525
  40.1904774 100.9672260  24.4219947   8.8385292   3.6396321  73.7983561
   8.1877609   2.9760465  73.5694695   8.3722016   4.4713410  73.7145710
  56.5652037  99.1179848  62.2064781  56.8983126  99.2828846  61.3243914
  57.3135614  98.7565804  62.6814270  75.2201986  84.0520859  45.9555435
  75.9117222  84.3945312  45.3891897  74.4294977  84.5114136  45.6726265
  11.6506854  89.7093487  66.7968464  11.0324184  89.1046333  67.2070837
  11.2559310  89.9176216  65.9500742  76.0177946  62.8955412  51.6788292
  76.9560909  62.8036451  51.5133429  75.7093334  61.9993734  51.8128967
  52.6322651  87.3495007  39.7499609  52.6107931  86.4276218  39.4932127
  52.8368044  87.3330307  40.6849051   1.7762467   5.1563176  45.5462122
   2.0691057   4.5234021  44.8905563   2.5809475   5.5766114  45.8495998
   5.5735961  98.1439114  51.2740278   5.3855888  97.6049805  52.0424271
   6.5290634  98.1929302  51.2438250  46.7723370  95.7760715  71.4799690
  46.2476444  96.5471649  71.6952562  47.5886202  95.8989048  71.9645596
  93.0640984  73.1641054  36.2141967  93.8044834  73.1691456  35.6075430
  93.1225204  74.0035725  36.6703868  49.6379709  80.8968067  60.0607014
  50.0656176  80.4925251  59.3057823  48.8803482  80.3381729  60.2343798
  96.6904263   0.9735307  76.8238115  97.3156504   0.3336057  77.1641445
  96.4826636   0.6605634  75.9433985  84.3879986  96.5866756  72.8664875
  85.0922775  96.3014030  72.2843838  83.8315392  95.8141804  72.9656506
  85.0850487  97.5507069  57.9613924  84.9701309  98.2448578  58.6103678
  85.7050037  96.9442844  58.3665419  52.8486300  77.8636074  75.7762003
  53.6990261  78.2145309  76.0405970  53.0544996  77.2275305  75.0911760
 107.8189087  82.8907013  72.1611309 107.9909134  82.8875160  73.1027460
 108.2619286  83.6758423  71.8393803  65.2815485  75.3754330  52.5709105
  64.9898052  76.2615108  52.3564816  64.7439003  74.8063898  52.0201302
 110.2075438  10.8419331  51.0284948 110.5440669  10.0186356  50.6746960
 110.5099492  11.5088948  50.4120970  96.1442094  29.9614247  63.5636044
  95.5039697  29.4467935  64.0550041  96.4680438  30.6054028  64.1934109
  55.7181644  89.9480152  53.4561110  56.0152817  90.6809425  52.9168797
  55.8629751  89.1750431  52.9104280  83.0806732  54.9086618  88.6625767
  83.4732723  54.0414619  88.7629128  82.2705078  54.7501993  88.1780624
  67.8894234  78.9371634  42.1094561  67.5893927  79.2575598  42.9600811
  67.4493933  78.0938721  42.0023632  32.8560158   4.4818219  88.1971550
  33.4405323   4.3060693  88.9345074  33.2315251   3.9851102  87.4701691
  85.5134392 100.7203770  32.4085522  86.4524937 100.5986595  32.5485206
  85.1058197 100.3697205  33.2004595  34.9151226   8.3960923  81.9657040
  34.0326687   8.3322915  81.6004086  35.1953026   7.4873837  82.0751858
  93.4043121 103.2305336  71.3820601  93.0602551 103.8932133  70.7831287
  94.0235329 102.7277851  70.8528757  37.1653553  15.9953317  73.3338547
  36.7309185  15.6867799  72.5386858  36.8457028  15.4127988  74.0228462
  72.1952200  60.4000044  33.0347919  72.5808287  59.8149633  33.6869144
  71.8426514  59.8134851  32.3655224  83.5131073  67.9160833  74.1595602
  83.6354828  67.6561069  73.2465029  84.0339184  67.2875023  74.6594334
 104.8916626  94.4272137  50.8561182 104.6836948  94.9960804  50.1149273
 104.8013115  94.9915886  51.6239405  96.6442585  89.2767334  58.2276821
  96.0886288  88.4977913  58.2002306  96.0315132  90.0043774  58.3340263
   2.4109641  64.5259285  50.7318068   1.8152419  65.2747536  50.7563925
   1.8358222  63.7613010  50.7595968  47.3779583  83.8418007  77.0932484
  46.9160175  83.9150524  76.2580967  48.0585575  83.1878662  76.9339561
  88.5713005  91.3471222  67.0095301  87.9563904  90.6135559  67.0108843
  88.0404758  92.1041489  66.7617798  27.7380749   8.8787469  56.6980267
  27.7508827   7.9365167  56.8661547  27.0875736   8.9894971  56.0046196
  86.6194534  75.4896164  65.8414507  86.5224743  74.6999407  66.3736534
  87.4191284  75.3415108  65.3366518 110.7897382  15.5095967  54.6297312
 110.0842337  15.3428182  54.0046883 111.4893870  14.9118337  54.3663120
  39.2108246   4.5670995  36.7263746  39.7281643   4.9602899  37.4292231
  39.5310112   3.6669167  36.6681004  70.2276993  82.3109436  41.1567211
  69.2898655  82.1688938  41.0281897  70.3215790  83.2623672  41.2039089
  89.8611164  42.8181887  76.7708111  89.8751259  42.5683022  77.6947117
  89.0010643  42.5361204  76.4594126  28.4056851   4.7162255  40.7982635
  28.7464329   4.4567975  39.9422169  29.1787335   4.7577294  41.3612080
  96.9845009  70.3736782  63.3802795  96.8591595  71.1904097  63.8634729
  96.1401176  70.2124500  62.9592800  24.7175118   8.8864716  68.7515688
  23.9111801   9.3826302  68.8925648  24.4385716   8.1081208  68.2692814
 100.1158723  32.3326862   1.8377801  99.9537263  32.2814930   2.7797624
 100.9726057  32.7532852   1.7647287  75.6054926  87.8227711  72.7040243
  75.0512505  87.0474243  72.7927876  76.4581203  87.4785233  72.4380350
  82.0334435  84.6079826  77.2198915  82.5850391  85.0755501  77.8470707
  81.7319679  83.8343811  77.6962185  87.4792767  72.3355579  86.9457245
  86.6659832  71.8345690  86.8840981  88.0368423  71.8167114  87.5255108
  70.1120090  86.4169884  74.2511797  69.8647881  87.3305607  74.1080141
  70.5343771  86.1522770  73.4340143  21.3936854  26.3120163   9.2241212
  21.2542773  27.0216358   8.5970327  21.1052896  26.6730678  10.0624009
  65.3181458  96.9759274  46.3195562  65.6509638  97.0689774  47.2122002
  64.9428177  97.8320122  46.1134291  89.8602867  68.4999323  76.6123867
  90.3780842  67.7272367  76.3864231  88.9525509  68.2278109  76.4774609
  60.7561493  86.8460178  24.7755885  60.8172655  85.8920097  24.7270393
  61.3623810  87.0895672  25.4751611  32.8625584 103.5439205  80.4524612
  32.8788543 102.5975704  80.3096867  33.5192275 103.8887691  79.8474073
  67.5760937  73.9832449  50.4968882  67.6944351  73.1507635  50.0394964
  67.8053188  73.7915850  51.4062595  69.2130327  63.4558058  52.2641945
  69.2840528  62.6017761  52.6906013  70.1065540  63.6612368  51.9891596
  92.6360321  74.1201162  76.5534401  92.4249363  74.7458982  75.8605766
  92.1057606  73.3496237  76.3499975  75.8292294  91.4775848  54.2232752
  75.2010822  90.8151150  54.5110035  76.6336250  90.9872723  54.0536499
  96.1541367  56.5091133  30.1347780  96.9947147  56.1601973  29.8382545
  96.2120533  57.4494600  29.9656057  27.7623268   1.3838872  82.9472256
  27.5298210   1.8056210  82.1199989  27.2505661   0.5750188  82.9558372
  83.0599117  69.2262363  90.2377605  82.8321266  68.3049965  90.1126194
  83.8681698  69.2056417  90.7501316  47.9340935  65.2480268  88.5221863
  48.8589954  65.0134277  88.4463501  47.7295017  65.6857634  87.6958847
  63.1339931  59.9551678  44.0469503  63.1313753  60.8459663  44.3972397
  63.0193901  59.3954659  44.8149538  80.2068710  56.8955517  22.9335952
  80.0602436  57.2683764  23.8029242  79.4236231  57.1315575  22.4365497
  86.6605377  56.0632133  50.1388645  86.7158413  55.1241159  50.3156996
  85.7414722  56.2112570  49.9160576  96.3021331  13.2962521  34.1474915
  96.0033803  12.4485215  33.8183761  95.6627517  13.9232644  33.8094401
  46.7989492  80.3089333  69.9132967  47.7226877  80.3001785  70.1640224
  46.6186523  79.4119978  69.6318293  72.2942448 100.6107712  42.2632694
  72.5717640 100.5872154  43.1790543  71.4040422 100.9614372  42.2917080
  57.6027394  46.9493282   2.2570440  57.3659135  47.3053158   3.1134435
  57.0405198  47.4170196   1.6394635  86.9959068  95.6977940  19.8620486
  87.8745270  96.0602474  19.7485054  87.1374989  94.7581959  19.9775207
  53.1086922  83.4997559  45.0725985  54.0190983  83.2347775  45.2036762
  52.7730465  82.8877449  44.4176054   4.0953247  85.1354122  57.9150963
   3.6003295  85.9249496  58.1338167   4.5984355  84.9413776  58.7059546
  83.8735962  78.3232021  40.6129122  83.0505848  78.3830118  41.0980034
  84.0412903  77.3835802  40.5406666  98.0697823  48.7494040  69.9340582
  97.1837330  48.9197969  69.6144867  98.3876801  49.6038914  70.2256489
   2.3167030  72.9884815  64.6947384   1.7861740  72.2544193  64.3850279
   2.0725147  73.7177372  64.1248322  66.3620853  98.3761883  82.6221848
  67.2303772  98.7775517  82.5873756  65.7709789  99.0556431  82.2978783
  33.3173275  98.2967949  48.2758093  33.8645840  98.6621952  47.5806665
  33.3852887  98.9289093  48.9913845  38.7420559  91.4245224  74.8568821
  38.9812279  90.5160236  74.6734476  39.5272994  91.8039322  75.2514315
  77.0146084  97.8802967  47.9903746  77.3516512  97.2374153  47.3664141
  77.6186132  97.8342438  48.7315130  68.1839275  97.2497463  84.3584538
  68.3845186  98.1686306  84.5363522  67.2429371  97.1749496  84.5171261
  90.2836323  71.5164137  76.4430428  89.6301460  72.0324278  76.9151878
  90.1654148  70.6242037  76.7689562  71.0240173  74.4174623  77.1437550
  70.6192780  73.9246750  77.8576040  70.7301664  73.9725161  76.3488293
  89.7451401  51.0158300  88.3082008  88.8336468  51.2125874  88.5242939
  90.1583672  50.8371878  89.1529274  93.3278942  93.0795002  11.9807565
  93.9331818  93.6693001  12.4301875  92.9808140  93.5993671  11.2558472
  86.1242962  92.3749638  84.4158173  85.2565098  92.7535915  84.2749882
  86.0411739  91.8827438  85.2325439  71.5828657  92.6307487  64.7672176
  71.4340830  91.7699146  65.1584530  72.4593019  92.8791714  65.0611162
  87.7066040  63.4678984  46.3280869  88.1997490  63.4564924  45.5077744
  87.2605133  64.3147945  46.3276196  71.3927841  83.3578300  59.3447590
  70.8407545  82.6733685  59.7229147  72.2672701  82.9699039  59.3129110
  61.5136385  92.0507717  77.8803921  62.1078587  92.4048519  78.5420275
  60.9048605  91.5016842  78.3744812  92.1707726  52.2227669  87.0835590
  92.6425838  52.0269680  86.2740612  91.4521217  51.5907192  87.1007919
  82.5070858  91.4177990  89.4209290  83.3326626  91.1290359  89.0319920
  82.7595615  92.1088600  90.0332355  74.7649765  56.8535995  72.5781679
  74.3852806  55.9797144  72.4866009  74.1481924  57.3252821  73.1379223
  56.6518402  82.0780468  42.1368742  56.4791441  81.3547707  41.5341520
  55.9388971  82.6968956  41.9788980  87.8400187  18.3957871  42.2896671
  88.6341195  18.5714349  42.7944279  87.7752499  19.1318807  41.6812181
  71.2316036  82.8019047  43.7923527  71.4157629  83.7412262  43.7901735
  70.5099392  82.6978874  43.1721878  66.6110945  86.9015408  50.1978111
  66.6850328  86.2271309  50.8730364  67.1226597  86.5622425  49.4633675
  43.3516741  90.6363773  82.2050667  42.9402590  90.0839138  81.5404129
  43.5811996  91.4405823  81.7394543  93.7656784  76.9246006  62.7428818
  93.4914398  76.1875963  62.1971273  94.5266914  76.5973616  63.2224751
   6.4296910  11.6534623  71.0478497   5.4817291  11.7832192  71.0203171
   6.6596600  11.7624577  71.9705963  76.7585850  87.7476788  75.2674961
  76.7692423  87.6224422  74.3185854  76.6805983  88.6946583  75.3832436
  69.9823570  86.8483829  53.4836197  69.2972660  87.2115612  52.9223871
  69.5084810  86.3382053  54.1404247  92.0705414  82.9594707  17.6149845
  92.1869469  83.7376308  17.0698702  91.7895794  82.2786236  17.0036399
 108.0607224  71.0163641  62.0440531 107.5373268  70.9431553  61.2459707
 108.6702633  70.2796984  61.9991493  19.0553375  15.7151517  44.6684504
  19.9274822  15.7072648  45.0628233  18.7456223  16.6126737  44.7899818
  67.2784758  65.4785395  56.2492180  66.7636108  65.6066513  55.4525185
  67.5872564  64.5743179  56.1920309  63.8989162 103.6116600  58.9272881
  64.3708897 104.4426060  58.8725471  62.9746389 103.8605118  58.9239407
  59.8028135 103.9335728  41.6718149  60.0493002 104.0625000  40.7559299
  59.2010355 104.6533680  41.8615103  34.4180442  52.4575603   0.6743356
  35.2682639  52.7068794   1.0365506  34.5953847  51.6617096   0.1729413
  78.0430889  83.2975864  60.7300663  78.7916517  83.3821011  60.1395178
  77.6069641  84.1485882  60.6872511  92.5378513  93.3822060  51.1247587
  93.2170200  93.4196472  51.7982292  91.8973923  92.7574635  51.4649582
   2.0512339  25.1634225  24.0408969   1.6758248  25.8587941  24.5810461
   1.6627356  24.3582639  24.3829799  61.5501022  94.2961884  56.7870140
  60.7351685  93.9197826  57.1193266  62.2386360  93.7522888  57.1695423
  81.8042755  93.7740326  64.9236774  82.0037079  93.5507011  64.0145111
  81.9132996  94.7240448  64.9663973 107.2621665  43.0998505  17.1047612
 107.6274953  42.4908340  16.4629957 107.1808610  43.9273060  16.6304799
   5.9549610  47.8292418  32.2248030   6.3739482  47.1749544  31.6656995
   6.2305728  48.6694002  31.8581963  82.9728603  62.0915604  66.5808678
  82.3476791  61.4405966  66.2620735  82.4642754  62.6394176  67.1787119
  82.9310799  72.4153376  53.2320070  83.8562775  72.1990252  53.1160307
  82.9084206  73.3722019  53.2434034 109.0394783  98.2367039  59.6370840
 108.7790775  98.8199997  58.9242077 108.2249451  97.8155041  59.9115801
  12.1215531   0.7141599  38.7533331  12.0904156   0.6364163  37.7998018
  12.5691029   1.5454015  38.9113808  88.3084679  83.1168079  65.5012894
  87.7533245  82.8803062  64.7582436  87.8946877  82.6937294  66.2536335
  96.9088745  81.6966915  45.2307558  96.5661526  80.9371376  44.7597504
  97.8579426  81.6385746  45.1206350  76.3690281  92.1728897  49.2813778
  75.8879995  92.1318817  50.1079130  75.6966400  92.0716858  48.6076689
   2.3292533 100.2435493  70.6834221   2.1658126  99.6259594  69.9706078
   1.4573757 100.5216122  70.9640360  85.4222965  79.7991610  47.9135561
  85.2078915  78.9837170  47.4604464  86.3549900  79.7231770  48.1149244
  73.5976076 103.8575745  19.3861520  74.2804956 103.5949802  20.0033545
  73.6444616 103.2066441  18.6859155  68.5318661  85.0550461  49.0760469
  68.3857679  84.1694546  48.7434483  69.1504431  84.9409008  49.7975492
 105.2380943  64.9607706  75.0181293 104.9947643  64.0358639  74.9785376
 104.7352028  65.3094387  75.7541704  16.6888906  60.6161869   6.6269609
  16.2434484  61.4166344   6.9046327  16.6379167  60.0375069   7.3877355
  52.2301102  92.1258545  38.9283228  52.9646778  92.6277828  38.5751867
  52.3853397  92.1063042  39.8726487  59.4382906 104.6552563  56.5579939
  59.6508789 104.8205280  55.6394482  60.2511406 104.3187141  56.9351578
  56.7491341  74.8357296  74.9139071  56.6523933  75.5124092  74.2438507
  56.6562033  75.3047514  75.7431316  46.3007641  79.4558764  64.1742754
  46.1017084  79.8873043  65.0052261  46.6936207  78.6202049  64.4263649
  82.5152016  73.5414171  44.0892935  82.6166821  72.6038504  43.9252758
  81.9503117  73.5898876  44.8605204  40.2384139  59.5970524   8.8192865
  39.2947913  59.4367779   8.8304731  40.3221084  60.5430496   8.9389821
  78.9297247  87.7764702  54.1020584  78.6426497  87.3121262  54.8883152
  79.1917324  88.6415577  54.4170380   3.1280128 103.4951401  51.4279318
   3.4276000 102.8198528  52.0365953   3.3520214 104.3208790  51.8571281
  33.9244580  63.8361788  78.9755011  33.9812374  62.9840660  78.5431719
  33.0313706  64.1337299  78.8020325  87.9861736  80.9907341  57.9689741
  87.2581387  81.1842346  57.3784065  88.3509636  81.8480682  58.1883764
  78.1068325  65.5744171  64.4387102  78.7603331  64.9195766  64.6843624
  77.8487825  65.3332663  63.5490561 108.7129311   7.0560273  32.2948360
 109.0937142   6.1834439  32.1956444 107.9120831   7.0288094  31.7712593
  68.9436579  94.5380688  50.3868151  69.6193075  94.2441368  50.9978247
  68.4655285  93.7413120  50.1570225 105.6340408  86.1848450  61.5524864
 105.7480621  85.4246330  60.9821272 104.7177315  86.4361000  61.4363766
  63.2746220  88.5235786  35.8341289  63.1949282  89.4772911  35.8161640
  63.5222387  88.2870483  34.9402785  74.2998648  86.1353016  50.7153416
  73.6831141  85.8116245  51.3719177  74.3013954  87.0848942  50.8357334
  62.0463371  94.6041012  33.8718081  61.9744158  94.1014862  33.0603695
  61.3398933  94.2694664  34.4242430  53.6437082  69.3361330  47.4277353
  53.4446335  69.5514822  46.5165710  52.9924202  68.6762524  47.6656818
  88.2209110  65.3666401  54.1991138  88.1680298  65.4728985  53.2492971
  87.3332882  65.5449438  54.5098495  42.5629330  65.6121397  31.0161686
  42.4080467  64.7700596  30.5882215  42.2988462  65.4709435  31.9253159
 103.1512742   5.8784589  41.1679125 102.7432685   5.1218900  40.7467651
 104.0904002   5.7483491  41.0361958  53.0448198 102.0069695  72.6485300
  53.8250065 102.0809269  72.0989227  52.3264694 101.8797874  72.0288277
  45.9138250  96.2791634  79.9384403  46.8449020  96.3807392  79.7409296
  45.8269787  95.3689671  80.2217007  76.0125732  79.2556334  68.0489540
  76.8308449  78.9731646  68.4574556  75.4116392  79.3870401  68.7823343
  98.4312920  24.4282445  39.0170908  97.9917149  24.0048417  39.7544718
  99.3320327  24.1070470  39.0587091  94.4652939  76.9175339  44.8900366
  95.1490784  76.3058996  44.6169567  94.1796207  76.5918970  45.7436085
  45.9862185 101.9960690  61.6271782  46.1477852 102.4420547  60.7957792
  46.3269806 101.1114502  61.4946175  32.9440355  82.7444077  62.4702787
  32.9182458  82.5630283  61.5307713  32.0262694  82.7319241  62.7419043
 105.6431675  86.0011959  75.8723497 105.7710075  85.5863571  75.0192356
 104.9872017  85.4566669  76.3075733 103.6526394 100.0641727  54.1983223
 103.1032753 100.8444405  54.2732716 103.9100075 100.0400829  53.2766867
 110.6475258  79.3409157  65.4386568 109.9214554  78.7448072  65.6222582
 111.1210251  79.4042635  66.2681293 106.8077664  23.1430539  68.8888788
 106.0890965  22.9123124  69.4775295 106.3855939  23.6069497  68.1658316
  90.3044319  51.1422777  71.4522219  90.4481697  51.5845251  72.2888756
  90.2648067  51.8512011  70.8102798  48.7263012 104.3850994  79.5517826
  47.7823496 104.3897915  79.7104311  48.8152027 104.6221447  78.6286688
  82.1741962  67.1197844  64.1827774  82.0952892  67.6961422  63.4226322
  81.3602448  67.2517109  64.6688938  71.7773485 101.8568516  47.7666903
  70.8897400 101.9532967  48.1117725  72.1914673 102.7040958  47.9307270
  14.5447341  63.6303520  71.1038351  13.7877838  63.6527109  70.5183792
  14.8468295  62.7226925  71.0701847  95.1740074 100.5667686  48.5203743
  94.2399502 100.4028988  48.6504126  95.4093647 100.0260067  47.7664423
  90.8885479  81.8551159  49.3612480  91.2437534  80.9752464  49.2351723
  89.9954700  81.8039417  49.0206194   3.9623018   0.2914723  44.9576283
   4.8356243   0.6574925  44.8177481   4.1189667  -0.6302539  45.1628304
 105.5525875  75.5225229  58.3141804 105.6088829  76.4773846  58.3503103
 104.8220062  75.3479481  57.7208757  18.3226871  69.9264669  88.5957527
  19.0024877  69.9639082  89.2685795  17.9895282  70.8221960  88.5417747
  62.6320267  65.0153780  47.2259235  62.0235443  65.2693510  46.5320444
  62.1183205  64.4454241  47.7981949  87.9744911  82.9755020  83.5276699
  87.3586845  82.5083256  82.9630852  87.6051998  83.8548470  83.6089039
   1.4731685  82.8948879  61.4453077   0.7477943  82.4344444  61.8672752
   1.8841163  82.2343254  60.8876228  37.1824552   8.3403290   3.3559438
  36.2835790   8.2042921   3.0563661  37.1321536   8.2603491   4.3084737
 106.4181042  62.7591372  31.1882639 107.1816158  63.1738329  30.7866335
 105.7796860  63.4668922  31.2762141  96.5155511   1.8723496  62.5104237
  95.8530001   2.4643811  62.8664398  97.1450143   1.7610940  63.2229042
  80.0705528  70.3246498  43.7802935  79.2276049  70.7710075  43.8605356
  80.4726315  70.7102728  43.0019283  60.5176687  74.7628927  29.0006375
  60.9450626  74.0054989  28.6007285  60.2034855  74.4419718  29.8459363
  21.9300266   6.3507661  27.4479961  22.1688744   5.6059274  26.8962646
  21.2286087   6.0186204  28.0082798  88.2561016 104.1379547  34.3590641
  89.0218067 103.5881519  34.5253301  87.8536606 103.7582493  33.5779715
  89.2359734  79.1482496  89.7431278  90.1450729  79.4102430  89.8884487
  89.2984772  78.3238411  89.2607689  66.0829306  94.9895859  35.0834632
  66.5098524  94.1677475  34.8414969  66.2527323  95.0807095  36.0210657
  97.0532036  42.8729677  85.9940529  96.8595123  43.1485558  86.8900204
  96.6414261  43.5395050  85.4441357  66.8344975  79.7457838  60.9733057
  67.5808001  79.1522455  60.8897924  66.4639950  79.5452452  61.8328094
  87.2220612  73.7183619  76.0665274  87.8636456  73.4409475  76.7204714
  86.4840984  73.1206417  76.1864042  56.9415855  79.8815060  40.3299904
  56.6972351  78.9942217  40.0668287  57.8887987  79.8400259  40.4615068
  53.6903620  67.7553558  78.2722616  52.9018164  67.2280550  78.4002209
  53.4041977  68.4846067  77.7222347  38.8289310  12.5594700  20.4753610
  38.5839129  13.1213892  21.2105104  39.2863084  13.1429851  19.8699304
  92.3666196   1.7287644  41.9400549  92.4065451   1.2412747  41.1172628
  92.0864587   2.6076135  41.6843939  38.3466220  77.0178318  53.5862970
  38.1663656  76.1143732  53.3264780  38.5629487  76.9607782  54.5169878
   6.1780540  59.8107529  69.0806532   6.9548026  60.0968122  69.5613432
   5.6824390  60.6149197  68.9260197 103.1653309  73.6949015  45.4386234
 103.4170818  74.4242287  46.0051346 103.9689445  73.4657812  44.9717855
  57.1192122  73.4023952  52.7512407  56.8742752  72.7475071  53.4049702
  56.3743067  73.4317350  52.1508360  59.6263123  94.3797779  35.9184575
  59.4778633  93.5557747  35.4545450  59.0544605  94.3297863  36.6844320
  53.2188654  92.4150848  67.7496195  53.1027126  93.3145142  68.0558300
  53.1578875  92.4768543  66.7963600  67.4183369  84.4024944  74.1356134
  67.0766306  85.2071762  73.7457991  66.9983149  84.3552685  74.9944353
  93.0518246  80.3063583  54.7503710  92.8027630  79.7595453  54.0052605
  93.6217785  79.7469616  55.2780724  64.5912886  90.3624535  39.3760538
  65.5351543  90.4068756  39.2231750  64.3906260  91.1585903  39.8681235
   2.2788812  23.4560907  20.0833246   1.7702247  24.2654550  20.1326104
   2.1486713  23.1455696  19.1872999  95.0071239  64.7495413  43.9584303
  94.6663570  65.5422068  44.3728971  95.5140495  64.3184710  44.6465015
  29.3251129   2.4852284  76.1424112  30.2817150   2.4518498  76.1365318
  29.0997025   3.0268678  75.3860760  18.1024071  18.2980927  41.2488556
  17.6247498  17.7303990  40.6440449  17.4973294  18.4343060  41.9779396
   2.4354640  45.9142971  81.3630486   3.1965057  46.4275980  81.0918236
   1.8088428  46.0183477  80.6469822  97.6043510  95.8306217  39.8519087
  97.7657223  96.6846657  39.4509196  97.0330143  96.0196304  40.5962801
  73.4592152  75.8783722  33.8879013  73.3594894  75.7475138  34.8308539
  72.8678942  76.6025829  33.6827326  94.7603416  50.2846336  45.1611519
  94.2156506  50.7100773  44.4989347  94.1351891  49.9248028  45.7903862
 104.6828465   6.4091977  47.6418400 104.0113835   7.0349702  47.9134750
 105.2887492   6.9242391  47.1090698  71.6441537  22.9400337  22.7006646
  72.1148110  23.1492937  21.8938657  70.9565259  22.3332966  22.4263116
  81.4200592  95.6546593  53.5884714  80.5876446  95.5712605  53.1233311
  81.4085007  94.9438858  54.2294836  18.1035320  97.4975491  85.2429485
  18.6108104  97.3884678  84.4385910  18.6933319  97.2083187  85.9391594
 100.7656574  84.2362595  69.2671013 100.7894039  84.4052982  68.3252478
 101.5370178  84.6868801  69.6108484  86.4270878  56.3133812  56.9648695
  87.1755600  55.7896614  56.6789532  86.3901234  57.0387077  56.3413525
   2.5717441  57.7626848  43.7556362   3.3549110  57.6651287  44.2972708
   2.6182166  57.0360518  43.1342840  78.9748812  95.5661201  78.1196070
  79.1205406  95.1681709  77.2613192  79.8386145  95.5685902  78.5321569
  54.9250984  86.5938759  64.4450760  55.0475454  85.6694508  64.2290115
  55.6100273  86.7826748  65.0865269   2.0771691  11.0219392  48.5362911
   1.6658255  10.9287843  47.6770163   3.0029675  11.1705216  48.3438063
  74.2066097  73.6051846  64.2697573  74.2168093  74.4312811  64.7531700
  74.2718410  72.9310417  64.9461508  80.4513073  82.7147770  78.6047745
  79.6204138  83.1898785  78.5931587  80.2000523  81.7918968  78.5674572
  19.9427410  24.1009911  78.3644342  19.6802040  23.7156972  77.5284624
  20.2748963  24.9687489  78.1344175   3.9710947   2.0272168  85.7351971
   3.7509533   2.7407845  85.1363754   3.3613201   2.1308621  86.4657211
  95.9591775  24.2745122  64.6911001  95.9146361  24.8399457  63.9200354
  96.6516356  24.6577653  65.2294731  77.3514700  76.9509125  31.5971923
  77.5778627  76.2963915  30.9364486  77.6998758  77.7721071  31.2500834
  86.3263278  27.4938306  79.9233770  86.7613892  27.8799256  80.6835651
  86.9899802  27.5099858  79.2337799  85.9957504 102.3273277  56.4643002
  86.3532352 101.8183613  57.1918917  85.4012394 102.9526520  56.8787336
   1.9951102  14.4325265  61.0832357   1.4984986  15.1822862  60.7554197
   1.9895550  14.5389756  62.0344830   4.1419879  96.6669083   6.5732569
   4.4796363  96.1849689   5.8183014   4.3209354  97.5851727   6.3707805
  92.1977997  96.4055443  43.1805420  92.7849293  95.7264996  42.8482580
  91.3582516  95.9605885  43.2963276  55.4097033  90.7369137  59.2350817
  56.0479259  90.6182671  58.5316420  55.3316641  91.6861820  59.3300867
   2.6904003 104.4612980  40.2478790   1.9269267 104.5680141  39.6804667
   2.5309554 103.6393929  40.7118702  49.7701454  77.5387859  42.8120422
  49.7813511  76.7212343  43.3097506  49.1725922  78.1069708  43.2981777
   6.5299884 103.3207226  55.5978918   6.5182296 102.4556732  55.1882696
   6.2002746 103.9110470  54.9203730  15.1352879  18.6930760  49.0871143
  14.8277088  18.9096459  49.9672985  14.4916340  19.0940865  48.5030508
 102.4423695  98.3664227  76.9260740 101.8288136  98.0891991  77.6064587
 102.5085926  99.3150616  77.0353508  77.7370787  93.0540848  46.4917660
  78.2377195  92.3808765  46.9526100  77.8774166  92.8640175  45.5641794
   1.3979813   2.0366391  38.0596375   2.1992680   2.4039563  37.6864696
   0.9312912   2.7925786  38.4159851  80.3321457  98.7824440  47.8547764
  79.8082256  99.3735504  48.3954477  80.0533581  98.9677334  46.9580173
  11.6681858  10.2813157  64.2993879  12.5030895  10.3810033  63.8419771
  11.2401100   9.5469960  63.8592052  18.8992687   1.9596871  16.2162769
  18.6231896   2.7724465  16.6398847  18.0895039   1.5807828  15.8743143
  88.7774467  69.9681568  44.2987204  88.8400459  70.9177876  44.4012833
  87.8382683  69.7855473  44.3274164   1.0724632  97.1841145  59.4558573
   1.7546264  96.8131638  58.8961506   0.8913032  98.0434513  59.0751314
 100.3158092  64.8979807  55.9326077  99.8993683  65.1263285  56.7636728
 100.4179955  63.9469576  55.9692526  91.7148495 103.2906437  43.6292410
  91.9015312 102.6690865  42.9256392  90.8697987 103.6731434  43.3929777
  74.8677349  56.5082836  22.7658248  75.1573992  56.7375755  23.6488605
  73.9446592  56.2769747  22.8690577  93.2457829  88.7810707  28.3805513
  92.7425003  88.0869961  27.9548812  92.9319954  89.5885658  27.9734659
  84.0109348  58.3191776  31.0334182  83.6410713  58.3723068  30.1521659
  83.3036804  58.6120939  31.6080689 106.8713474  94.4662762  79.6736908
 107.2227478  94.4193935  80.5628204 105.9404659  94.2668533  79.7732258
  82.0723724  77.8628731  51.2915850  81.3876343  78.1543922  50.6896114
  82.7933216  77.5940609  50.7221889  94.8997021  78.2267141  55.8004999
  94.4432926  77.3887253  55.7250357  94.8479366  78.4446859  56.7311144
  18.3686634  14.2227181  66.4482021  17.7995583  14.7271546  65.8669233
  19.2457672  14.3356904  66.0819149  19.2908183  71.0546637  47.7429819
  19.1109172  71.9937992  47.6994085  19.2211811  70.8403683  48.6732817
  18.3827206   6.7570313  57.7097940  18.2635685   6.2960156  58.5401535
  18.4234139   6.0615262  57.0533943  99.4939518 101.2538242  51.2188005
  99.2535591 101.8119335  51.9583654  98.6588764 100.9271812  50.8838558
  24.3394657  21.9052419  67.8477526  23.4508034  21.9452104  67.4943209
  24.4106480  22.6801881  68.4050941  95.8543491  94.7310925  49.6390343
  95.2196217  94.3604565  49.0258646  96.2880421  95.4260635  49.1439009
  24.0167233   7.9973229  85.8338261  23.6958405   8.8988122  85.8579159
  24.9653908   8.0832108  85.7395458   9.3184086  35.4687985  60.3993845
   8.6787697  35.8951482  59.8290157   8.8263699  35.2524861  61.1914349
  89.5278168  86.3783932  58.8309765  89.3083763  87.0258999  58.1610346
  90.4835606  86.3289356  58.8123178  10.1596543   4.6502885  25.1134348
  10.5995461   5.0919637  25.8398294  10.8069798   4.6461591  24.4083214
  89.6621323  76.4319992  67.2752190  89.4079590  75.7521772  66.6511393
  90.3381443  76.0215044  67.8144169  23.2898899   5.5936631  62.8193712
  23.4887692   5.3518304  61.9148302  24.0870281   5.3812894  63.3048677
   9.0254680 104.0860558  41.0308695   9.1613380 103.4707451  40.3103399
   9.8849384 104.1633797  41.4450884  91.5973854  74.9021816  68.3742857
  91.6142082  74.3136549  69.1289949  91.7881203  74.3370962  67.6256037
  55.7079411  75.1878262  55.2357769  56.5251064  74.8094940  55.5603313
  55.9752846  75.9964943  54.7989464  28.6692997   6.3769635  71.9506741
  28.4953018   7.2434625  71.5830564  29.1016194   5.8989438  71.2429810
  78.3055353  75.1986742  46.6307592  77.6727152  75.5345821  45.9959841
  78.1746626  74.2505169  46.6206455  13.6671349   6.3412484  75.8324718
  13.2222840   6.4408978  74.9908018  13.5748669   5.4121980  76.0436344
  17.3359295   2.8849992  52.1008730  17.5565335   3.0797776  53.0117083
  16.8706223   3.6637029  51.7953444  83.0149651  88.0175209  40.1439762
  83.3242416  88.9208603  40.2113724  83.2802296  87.7382851  39.2676806
  88.5573006  63.0749750  23.2922244  89.3992901  63.1264257  22.8398561
  88.7318420  62.5340271  24.0623808   6.9342605 104.2007732  60.1805305
   6.5293113 104.4312668  61.0166597   7.7627651 103.7865257  60.4217958
 105.3204060  66.2116575  50.6930017 105.0558949  65.3134251  50.8916044
 105.1803017  66.6889668  51.5107870  60.9861708  79.8093271  29.0826726
  60.6337738  79.9041319  29.9675775  60.6710482  78.9542818  28.7897110
   0.1550337  19.8297223  52.1445322   0.3949162  18.9033326  52.1221256
   0.3216883  20.0985059  53.0479765   0.7992355  85.3161716  50.8717966
   1.0432331  84.7123432  50.1703072   0.4750625  86.0934258  50.4168081
  31.9733425   9.5471105  58.3677387  32.0296761  10.3450974  58.8933516
  31.6658779   9.8453435  57.5117254  13.3123776   0.7341870  44.7899771
  12.6942536   0.8173856  45.5160856  14.1098210   1.1602601  45.1042604
   4.5785037  95.2681541  31.3746309   4.1407958  94.7338390  30.7119465
   5.0542346  95.9299850  30.8727407  12.8186032  18.6568555  37.3372269
  13.7446686  18.4874734  37.1641922  12.3635479  18.3031758  36.5729809
  62.3881626  62.3210669  32.4405456  62.4712992  61.3711500  32.3570180
  63.2399607  62.6610565  32.1665454   9.8481652  12.4332818  42.1711016
  10.0283715  12.3621186  43.1084919  10.7132431  12.4675759  41.7628288
  75.0872469  93.3675289  69.4190836  75.4469347  92.4916172  69.2789650
  74.9983835  93.4407711  70.3693295  20.8718296  11.6096219  57.9254293
  20.2308556  12.2852239  58.1466627  20.4162785  11.0415086  57.3041725
 105.9759712 104.1648769  12.2310758 105.9558678 104.9395275  11.6691673
 106.4364624 104.4526577  13.0193400  84.6195507  76.6310930  58.1601858
  84.0075207  77.1191120  58.7110806  85.2984428  77.2671366  57.9348135
 100.6652546  70.8478451  34.1787267 100.6110191  70.4385185  33.3151650
 101.5576172  71.1909676  34.2255211  44.5935632  62.5427997   5.2953454
  43.6762143  62.2780407   5.2275297  44.8634721  62.7050484   4.3914338
  77.9566956 101.6683865  52.2384310  77.9044247 102.6223850  52.2967291
  77.0458794 101.3760567  52.2729111  16.1769482  17.4229344  67.4873304
  15.3783032  17.9499825  67.4624205  16.0394284  16.7481431  66.8225193
  37.0551944  91.2964916  69.5386934  36.3337088  91.0618877  68.9550400
  37.7674603  90.7084846  69.2873764  77.0085001 104.1398525  62.3800135
  77.3693323 105.0145245  62.5248480  77.5210714 103.5711479  62.9545403
   2.4511095   1.9604024  82.5571632   1.6965672   1.3841256  82.4355030
   2.1092221   2.8398618  82.3962498   5.9133331  93.7900257  33.4183097
   5.3881732  94.1412354  32.6992202   6.0708038  94.5419121  33.9893603
  14.9286643  76.8491936  43.4812450  14.3550865  76.3347816  44.0492439
  15.5404083  77.2755051  44.0814543  45.8884140  -0.0673762  65.6219816
  46.0065457   0.8474549  65.3663063  46.7151924  -0.4898158  65.3891611
  44.8416325  14.0756520  45.3313446  45.2470585  13.2679185  45.0160408
  45.5683228  14.5831975  45.6926584  20.8491508  80.8672810  53.3280373
  21.0569755  80.0654602  53.8077402  20.0624267  81.2052631  53.7558937
  93.1891589   1.9102391  84.9959373  93.2902722   2.8138837  85.2950001
  92.2888856   1.8637856  84.6741009 109.9331665  96.9557095  89.6538544
 109.3337822  96.7057610  88.9506531 110.7735920  97.0899677  89.2158127
  91.1084080  95.3083897  50.0829506  90.9491634  95.6275845  50.9712029
  91.7125320  94.5746994  50.1968002  29.7106930   6.4987859  75.2685308
  29.1020867   7.1857938  74.9967623  29.4901558   5.7503613  74.7140503
  13.3417793   3.5756787  51.4543486  13.8903710   3.0883893  52.0690346
  12.8337570   4.1703423  52.0061827 102.7752590  94.2569637  43.5410643
 101.9136906  94.0314484  43.8918734 103.2808971  94.5316982  44.3059731
  84.9545097  60.7783651  67.8840017  85.5029774  60.4130793  67.1897602
  84.2237377  61.1882830  67.4212170  46.1412522   7.8689393  17.2282600
  46.7728707   7.3768338  17.7527905  46.1459061   8.7469968  17.6093447
  60.7210828  14.9083889   5.4584142  61.1947061  14.8130834   4.6320840
  60.2817727  14.0668524   5.5811139  19.1902920   3.0922135  43.8335276
  19.2968651   2.2166737  44.2054081  20.0842472   3.3960256  43.6761093
  85.0704288 102.0508385  62.2659254  84.9757767 102.9126644  62.6715612
  86.0039997 101.9812965  62.0663309 100.3425603   2.8890904  50.4526472
 101.0118346   3.3865460  49.9827051 100.8134847   2.4810990  51.1792898
  46.8297287   1.5272244  38.3838058  46.0446926   1.8225392  37.9225826
  47.1776100   0.8224305  37.8374791   8.4378430  29.6883305  50.0819254
   8.8876816  30.5283460  49.9910927   8.5084435  29.2840871  49.2171478
  40.6569573   2.3628720  71.8896961  40.0690552   1.9793233  71.2389374
  40.8331104   1.6495999  72.5032473 101.0857391  72.8322840  50.9364271
 100.5566406  72.3255253  50.3204060 101.0872459  72.3088837  51.7378521
  10.8394810  22.5130280  48.2063627  10.7785889  21.8950948  48.9348364
  11.3838097  23.2255086  48.5415125  77.2656488  98.6468506  66.3237619
  76.3976192  98.8534069  66.6702986  77.1302366  98.5491276  65.3812408
 105.6558614  21.1337193  62.3577833 105.7725768  20.9148702  63.2822943
 106.4495854  21.6146668  62.1234465   5.5424687  24.4311818  55.0532341
   5.2193161  24.8942765  55.8261204   5.5377718  23.5083970  55.3075409
  77.7238131  86.2238693  34.7136545  78.0617285  85.4641247  35.1878166
  77.1605778  86.6698742  35.3461695  24.7181889   1.9054231  88.1290245
  24.9485680   2.7542695  88.5066700  24.9383637   1.9883737  87.2011852
 106.2631707   9.1480168  58.4013510 105.5886226   9.5962151  58.9115763
 106.6101317   8.4824380  58.9953756  62.2232489   7.2506913  59.8086691
  61.8595176   7.9385003  59.2511320  61.6322617   7.2144994  60.5607700
  94.9159718  82.1552658  61.5358353  94.6113586  81.2556553  61.6547775
  95.6784534  82.2278309  62.1099377  96.4871363  18.1378182  40.0663280
  95.6350140  18.0738362  39.6350193  96.2842660  18.4279736  40.9556437
  98.7078476  72.5722980  49.0415144  98.3818913  71.9831467  48.3611536
  97.9591560  73.1292057  49.2549229   7.5208465  99.4486046  67.5546646
   7.6437847  98.5630322  67.2127819   8.0031005  99.4552422  68.3814764
  81.5614414  94.2633247  58.8320112  80.7906532  94.3261528  59.3960714
  81.9324017  93.4030342  59.0283108  58.8613272  97.6051807  53.8908005
  59.5239687  97.8905296  54.5198536  59.0501213  98.1088161  53.0990076
 106.2810707  96.9301701  63.4861231 107.0848083  97.0035458  64.0007544
 106.1849880  97.7861595  63.0686474  83.5104847  98.3131790  61.3858366
  83.0767441  98.9126396  61.9930744  84.1560936  98.8561153  60.9334612
 105.0167422  19.1409882  46.4032650 105.4942660  19.6617516  47.0490265
 104.9275546  19.7206220  45.6467581  22.5933639  87.0240211  51.0091972
  21.9761840  86.9903088  51.7400742  22.1030990  87.4411392  50.3007603
  90.8776474  92.3269939  64.8630524  91.2308025  91.8306637  65.6014109
  91.4215183  92.0688152  64.1188812 105.0242810   2.3351296  65.1662445
 104.5520024   1.9082459  64.4514322 104.5018630   3.1112393  65.3686571
  87.2192383 100.9820938  58.4466696  87.8424072 100.3357887  58.1147385
  87.7646351 101.6461086  58.8683987   5.4723355  37.2545632  43.2305193
   5.7730099  38.1514558  43.3768272   5.0161978  37.0200166  44.0387011
  32.5203129   9.8311528  43.4088659  31.7742153   9.5894536  43.9576435
  33.2222363   9.2423638  43.6860943  75.1112175  99.3022919  20.9877825
  75.9389973  99.5050716  20.5520105  74.9843216  98.3656025  20.8369660
  55.1146890  74.7098816  35.0871774  54.9665929  74.9844635  34.1822454
  55.8096982  74.0543831  35.0278875  67.3044281   2.1299180  36.0847020
  66.7438226   1.7820844  36.7782164  67.9685073   1.4535054  35.9516764
  32.3864075  22.9934606  84.7664833  32.1172901  23.4578427  85.5590439
  31.8387505  22.2085580  84.7511482 105.9420686  10.6878575  56.0631466
 106.7888169  11.0845384  56.2678289 105.7678609  10.1017674  56.7996120
  91.4923096  76.3669729  90.5653763  92.0936012  75.6226444  90.5399323
  90.8114433  76.1037922  91.1845589 110.3697491  85.0412560  72.8352833
 110.5483532  84.1285038  73.0615902 110.7046795  85.1369095  71.9437122
  95.0398350  92.1735954  30.3815675  95.8114147  92.3940468  30.9033823
  95.3891563  91.9574928  29.5169830  95.7436275  79.3379641  44.4499207
  95.4805470  79.5217752  43.5481262  95.3174877  78.5067606  44.6590471
  16.0311409  37.0873650  68.2421970  16.1333557  37.8110417  67.6240778
  16.2712666  37.4609288  69.0901518  67.1340084  75.0862837  83.0978680
  67.1416569  75.1204491  82.1413136  66.5715456  74.3403721  83.3063984
  62.9393101  86.5490913  29.3752670  62.8323364  86.7490005  30.3052282
  62.8998804  85.5938053  29.3295527  99.7729206  83.2285786  26.1260009
 100.1918507  83.5042667  26.9413042 100.2145767  83.7371349  25.4458976
  86.8185234  59.1509867  52.9604435  86.5807152  58.2765198  53.2686567
  87.7222061  59.2703676  53.2525587  97.3425007  96.0764980  70.3454542
  98.2584667  95.8778000  70.5397558  97.3683643  96.9335747  69.9200392
  85.3841305  74.3565607  50.5436468  85.1526070  73.7259245  49.8617935
  85.8131695  75.0712729  50.0731707  80.0078583  54.2621517  36.3522005
  79.8626995  53.3160353  36.3466740  79.1711378  54.6311951  36.6349363
 101.9516091  15.8909615  63.5081434 101.9304709  14.9406632  63.6209726
 102.5101332  16.0289582  62.7431297  97.0562649 101.1590767  34.8499322
  96.7643070 101.6361904  34.0731740  96.9627762 101.7872715  35.5660796
   8.0011173   1.9002637  70.4608297   8.0824085   2.8150186  70.1909208
   7.5314041   1.9372376  71.2940407  93.7502770   8.2648953  64.1722107
  94.0802340   8.7202271  63.3975887  94.4146399   7.6023778  64.3617249
  15.2896778  75.7300711  60.1023579  15.3799812  74.7855425  59.9760914
  16.1860935  76.0418892  60.2266073 102.2856522  77.3757601  68.2063770
 102.8880882  76.7347670  68.5837793 102.5729275  77.4686098  67.2980356
 110.5583096  77.1347618  63.2452536 110.1496506  77.7565098  62.6430416
 110.0988960  77.2672319  64.0744829  29.9339795  80.4575253  83.4168434
  30.8787751  80.6043530  83.3717442  29.8073554  79.5917130  83.0288124
  90.7274871  16.0709962  82.1790886  90.3549008  16.9524106  82.1563148
  90.7266049  15.7868966  81.2650204  27.9963680   9.8416814  79.0329599
  27.4983116   9.9233254  78.2196283  27.8318878  10.6620511  79.4979095
 102.0227242  88.6958504  21.0311532 102.6643467  88.6887455  21.7414331
 102.3888302  89.2983341  20.3836870  83.7793636  87.8434181  58.2991600
  82.9832840  87.5172520  57.8795052  84.3840504  88.0028439  57.5744772
  77.4168301  85.8296680  66.5487146  77.4432373  86.2327385  67.4165106
  77.1603155  84.9223709  66.7137527  29.8922917   5.6781205  44.6103001
  29.3972870   5.3442487  45.3584528  29.4096657   6.4564332  44.3318653
  66.0234976  92.8273106  58.6782503  66.3889217  93.0008888  59.5457554
  66.5562057  93.3556557  58.0838585   0.6129357   1.6661080  44.6059418
   0.8396717   1.0439786  43.9147234   0.4867789   2.4972352  44.1481829
  66.6758729  55.6384075   0.3494760  66.1626721  56.4412201   0.2580949
  66.2014772  54.9903095  -0.1712493   9.5706745   4.3791970  79.7849226
   9.3168255   4.4083413  80.7073879   9.9971291   5.2215012  79.6271324
  25.7008454   8.7293633  71.7708874  25.3278443   7.8732976  71.5605211
  25.0447079   9.3573388  71.4686108   2.3030182   2.0631036  71.5200138
   2.3848721   1.3008031  70.9469175   2.8100582   2.7470979  71.0826540
  29.4880768  29.8479661  83.0192852  29.1496083  30.2395162  82.2140789
  29.4883629  30.5655202  83.6528111  18.4992405   2.9091653  80.4130745
  18.7438866   3.5073480  79.7069979  17.6970860   2.4885281  80.1034737
  92.0302868  73.6620140  82.2363281  92.3658752  74.0543747  81.4303112
  92.5146961  74.1004372  82.9358673   4.4617935  34.7479829  47.2100449
   4.1915985  34.7239694  46.2920809   4.1766020  33.9063367  47.5657558
  65.2907228  81.7384052  68.0576658  64.8292208  82.0060158  68.8524199
  64.8251390  80.9559536  67.7623034 100.1080613   6.3849934  30.1476741
  99.9913649   5.5905637  30.6687284  99.6243768   6.2145242  29.3394518
  96.8797207  75.1253176  69.8038292  95.9815884  75.3208303  69.5367050
  97.1053314  74.3299627  69.3213940  87.3162746  86.1919785  70.4408836
  88.2636642  86.0693645  70.3804398  87.2088718  87.1108818  70.6864643
  24.4631668   3.0466470  66.4912510  25.3426930   2.6788052  66.5770769
  24.4983097   3.5665997  65.6883478  98.6581473  25.1586255  47.2887087
  98.2023053  25.8360394  47.7882624  98.0598216  24.4115170  47.2969198
  93.5963158   2.3537740  46.4027071  92.7513938   2.0918759  46.0369921
  94.0529733   2.7737531  45.6737947   5.9499642   4.3574532  42.6261234
   5.2583882   4.3498715  41.9643831   6.5275952   3.6359319  42.3771667
  10.5079647  14.1548356  39.3146181  11.2883660  13.6486157  39.0889263
  10.8142277  15.0606927  39.3576479  68.3280088  62.5728691  15.8947297
  67.6528646  61.9040382  16.0091039  69.1086579  62.0833195  15.6355783
  94.2867470  86.7782497  74.9859619  93.9725494  86.8007278  75.8898449
  93.7005997  86.1640835  74.5438433  46.0145661   1.5489587  46.1369276
  46.9340225   1.2868222  46.1829424  45.5547234   0.9051713  46.6757345
   0.6979934 101.2165737  63.1612492   1.6545192 101.2522316  63.1564426
   0.4907314 100.3140831  62.9187679  99.7825527  85.4043770  90.1931667
  99.2849731  84.8699856  89.5742321  99.9871922  86.2040901  89.7085953
 109.1787720  54.1321611  65.1899290 108.5577679  54.7525072  65.5717087
 110.0162506  54.5956182  65.1986027  67.9656316  26.5326155  22.2891256
  67.3887158  26.9306648  22.9410192  68.6100961  26.0472095  22.8041765
  77.6774073  85.1322269  30.0675988  77.7798653  85.6483459  30.8671904
  78.5141850  85.2269077  29.6125412  64.5513487 101.3236713  76.9775724
  65.4969692 101.4258766  77.0852184  64.4046688 101.4278698  76.0374308
  82.1932177   2.0763883  41.8578386  81.8374972   2.8910073  42.2129393
  82.7633195   1.7420682  42.5502539  92.3549938  99.7318077  79.5521402
  92.5443935  99.2751789  78.7324762  91.4564037  99.4796276  79.7646952
  63.6546993  80.2473736  66.7439222  63.2321501  80.6131649  65.9668255
  63.7162304  79.3092728  66.5639067  85.0569825   6.4130029  30.9949470
  84.2946915   6.0779962  31.4670873  85.7164197   6.5541943  31.6742396
  85.3215885  89.5690823  24.5041466  85.1566410  88.6299896  24.5886016
  86.2559128  89.6656704  24.6883965  68.2998180  97.7571392  58.3996964
  67.6881170  97.1291542  58.0154037  68.5218859  97.3839188  59.2527008
  59.8196554  91.7422295  43.5196209  59.1797495  91.5152550  42.8449106
  59.8975801  92.6946926  43.4650993  88.0976868  88.0922127  68.4292603
  87.5416946  88.5159302  67.7753687  87.9852581  87.1553516  68.2683706
  21.9980904   9.2100915  43.6099672  21.9837376   8.6882218  42.8076696
  22.1101567  10.1113042  43.3075094  14.8950287  30.9301289  85.9968758
  14.7778221  31.2420377  86.8942070  14.1390892  30.3644952  85.8392525
  20.4792782  43.6436089  46.2544870  20.6857201  43.1800279  47.0660973
  21.3247391  43.7522992  45.8190441  31.2784954   6.6524228  53.7715149
  31.8996712   7.2694787  53.3847189  31.3765045   6.7741689  54.7158670
  25.3649136   2.1844396  15.9494054  26.1817166   2.5570306  16.2814271
  25.5435463   1.2473306  15.8710468   5.1583430  23.3673772  75.9005308
   4.2397877  23.4981927  76.1358500   5.1680895  22.5358018  75.4265928
  31.9491287   0.9800443  27.2177052  32.3273083   0.3079518  26.6506886
  31.0814949   1.1445149  26.8484020  64.1556787  85.1011753  70.9351587
  64.8493290  85.7046509  70.6688881  63.8597679  85.4350662  71.7820263
  37.3815051  79.8334026  63.9865875  37.8334991  80.1113033  63.1899071
  37.9394332  79.1463995  64.3512487  94.6605301  92.4790955  43.3000088
  95.4030228  91.8755531  43.2741833  94.7747993  92.9645729  44.1170025
  13.7253376  21.7637261  60.3867865  14.5002171  21.7434892  60.9483767
  13.6030003  22.6904496  60.1807451  84.5391369  75.2819204  53.2650328
  84.6918297  75.1932621  52.3242569  84.8330021  76.1688757  53.4728384
  26.3062855  14.0605172  84.4058514  26.8586632  13.2929238  84.5538330
  25.6867214  13.7832269  83.7309551   7.7552787  72.9423094  43.8110399
   8.1892768  73.6490488  43.3331299   8.4413520  72.5722599  44.3665600
  85.6397438 102.5470161  48.2879639  84.8502064 102.3110104  48.7749767
  86.3612461 102.2794819  48.8572550   1.4635612  62.8991878   8.0144616
   2.2826363  62.6204956   7.6049825   1.5159489  63.8548553   8.0287095
  45.3796478  28.1606873  41.1605120  46.1979576  27.9260262  40.7228613
  45.4170510  27.7023705  42.0000219 105.2481417   5.2738198  49.9770451
 105.0788026   5.6298264  49.1048002 105.0346808   5.9909543  50.5740261
  93.8737778  22.3678979  26.0558772  92.9777579  22.0335111  26.0162783
  94.4088702  21.6628465  25.6914401  17.5443546  78.7832355  23.8278699
  17.9271976  79.2446613  24.5740247  17.7074996  77.8576517  24.0092897
  83.5801315  99.9310398  72.5931501  83.7807083 100.8001232  72.2457314
  83.1408405  99.4803333  71.8719578  66.9374944  32.8622425   2.9354593
  66.7765046  31.9239605   3.0351945  66.3423730  33.1344402   2.2369024
  40.2894926  23.2750154  52.9039097  39.9284768  23.6301208  53.7161922
  40.5869579  22.3958921  53.1382036  32.2106147   7.0463496  30.3161931
  31.6552687   6.6250181  30.9721684  33.0819893   7.0584410  30.7121658
  78.5842208  90.3807250  54.6613550  79.1014276  90.6268850  53.8944578
  78.9425126  90.9119514  55.3724527 106.5614299  61.7993489  53.9035463
 107.5025443  61.9057647  54.0421486 106.2937073  61.1568299  54.5606041
  20.0581455   5.5222094  51.4247704  19.3380404   6.0950643  51.1611128
  19.9635351   4.7478122  50.8701611  49.2157936  21.4463949  43.2678366
  48.3081436  21.2006545  43.4467602  49.6320152  21.4693832  44.1295004
  82.2538338  98.4391281  33.3541083  81.5503893  98.0249194  33.8539362
  82.8838388  98.7223313  34.0167713  21.8593335  21.7766738  66.3303614
  21.4324522  22.6289010  66.2425184  21.6498065  21.3187981  65.5163097
 103.3669022  98.1829450  16.2731016 102.5547985  98.1839696  15.7664275
 103.5184768  99.1041223  16.4844990  43.1717383  70.3864705  88.3397483
  43.5797410  70.1916253  89.1834316  43.0309348  71.3331401  88.3547316
  15.4475307   5.6961119  38.1032300  15.7797384   4.8685935  37.7552605
  15.1336622   5.4781216  38.9808393  48.1885767  18.5162795  42.8243542
  47.3122740  18.9006865  42.8480196  48.1132364  17.7859485  42.2102118
  52.4949832  83.8957277  32.3539710  53.2953448  83.3707992  32.3437572
  51.7875285  83.2528463  32.4033856  39.2903161  10.5447710  32.5008726
  39.9301147  11.2478471  32.3887300  39.5148039   9.9064213  31.8238592
  39.6510339   6.7667949  11.4766741  39.1793084   6.1998034  12.0867801
  39.1269660   6.7455578  10.6759655  81.3482475  30.9748459  18.2027793
  81.2947559  31.8755937  18.5221875  80.6786537  30.9223938  17.5207806
  43.5346031  26.9496942  31.5821195  44.0067816  26.7241549  30.7806134
  43.4390163  27.9013467  31.5440536  79.9720440  88.1005946  73.7740374
  79.9998853  87.8851369  74.7062588  80.8884094  88.2334808  73.5314560
  17.4590058  89.2327407   8.7298876  16.8949409  89.9795095   8.9308810
  18.2748933  89.6255246   8.4195924  51.9670482  86.7665413  28.5693216
  51.7644496  86.8081859  29.5039082  52.4286933  87.5851360  28.3876133
  87.3785821  98.7799058  26.5300298  87.5197819  98.3306751  27.3633885
  86.4284710  98.8791249  26.4693928  19.8982298  33.4845543  51.0385132
  19.1570151  34.0620565  51.2210655  20.3720164  33.9197183  50.3297186
  35.3512383  21.3351226  44.3712616  34.6647477  21.9068027  44.0275431
  35.8234310  21.8797684  45.0010490  19.7420402 100.6633476  29.8877501
  20.2256770  99.8430297  29.9847364  19.1050334 100.6517220  30.6021166
  47.3542547   4.0534201  46.7934084  46.9667482   3.2782069  46.3870668
  48.2883835   3.8524115  46.8502665  16.2283993  17.5413227  19.9889362
  15.9596574  17.4840820  19.0720212  17.0933914  17.1320140  20.0110006
   9.5414396  88.0213133  68.1825352   8.8391967  87.4346975  68.4635496
   9.1149278  88.8715592  68.0757523  76.2758974  89.3879989  62.1703339
  76.1328310  89.0616814  63.0587482  75.5150858  89.0812353  61.6770840
   7.5201936  73.4805099  50.7976484   7.7121349  74.2810074  51.2861109
   6.7192884  73.1419507  51.1978483  25.9508271  81.6896525  61.3214064
  25.7975097  81.8129293  62.2581720  26.2524219  80.7844130  61.2451601
  38.5688925  19.9341655  27.5053954  38.7439895  19.6815848  28.4119129
  38.9915586  19.2538023  26.9812870  98.6502024  27.4318027  48.9591360
  98.7918576  28.0626774  48.2533264  99.2806157  27.6823616  49.6344376
  36.5915823  34.5188403  59.8640585  37.2297883  34.3207431  60.5493927
  36.7598009  35.4334402  59.6372509  86.7016748 103.6583793  53.6286211
  86.2548915 104.5048966  53.6335850  86.8490211 103.4598926  54.5533466
  40.2109766  17.8963697  33.0007935  40.5559015  18.7889600  33.0240393
  40.2176285  17.6131380  33.9151049  82.4277726 101.6561124  35.9868932
  82.0770667 102.0789007  36.7707849  82.0607117 102.1582976  35.2593565
  34.8082232   3.7389144  43.9303493  34.0945673   4.3762174  43.9581203
  35.5566835   4.2319539  43.5942698 101.0057882  80.1793638  18.8085830
 101.9352845  80.0178972  18.9704370 100.9816293  81.0391799  18.3886242
   8.6601943  15.8598983  53.5423565   7.8903610  15.5324650  54.0075207
   9.4034100  15.5315280  54.0483570  58.2440615  10.0944996  51.1107111
  58.3475876  10.6967270  50.3739357  59.1027355   9.6823055  51.2056065
  30.4233766  12.7590644  12.0376694  30.9208941  12.8332472  11.2232947
  31.0903311  12.7217603  12.7232444  72.1110439  42.4299049  27.2859311
  72.5976849  42.9107857  26.6164780  72.6226377  42.5493479  28.0860806
  28.2460332  12.6897204  60.6769419  27.4862409  12.1394849  60.8671761
  28.8316178  12.1238387  60.1738501  26.9701052  32.6935768  42.0683098
  27.7935410  32.9349208  42.4924994  27.1197319  31.8061304  41.7423010
  36.1567683 104.5679108  28.7418246  36.7275663 104.3339741  29.4737363
  36.3713212 103.9330443  28.0583453 104.1244200 102.1543390  57.1285248
 103.6532239 102.1059812  57.9603100 104.9845175 102.5045576  57.3604965
  41.3139486   8.3170801  55.3414106  41.8962908   8.0223334  56.0415792
  40.6413126   7.6381880  55.2876282  26.2900205  81.7618242  48.1910992
  26.3697381  81.0752407  47.5289154  26.0333057  81.2975303  48.9878178
 100.9691385  88.9850334  53.3366108 100.2174095  88.3956603  53.2751560
 100.5899647  89.8338953  53.5644054  55.0766182   8.3290148  43.0974674
  55.8874989   8.4482503  43.5919237  55.2133036   7.5198096  42.6047850
  19.8150134  22.5301552  36.3767743  20.2436829  23.2763362  36.7959261
  20.3617287  22.3365808  35.6152868  45.9323406  37.9571795  57.4813223
  45.9636879  38.5912991  56.7649794  46.7595577  38.0806231  57.9468346
  15.6848764  26.7857289  66.0802126  15.6112266  25.9913373  66.6091299
  16.6257179  26.9553757  66.0325670  14.0035768  89.1051439  33.9158082
  14.6642013  89.7949234  33.9791608  14.5026393  88.3131662  33.7159514
  27.5871558  87.1610526  50.7662249  26.9459243  87.3020283  51.4627743
  28.3848663  87.5823871  51.0861731  76.6941952  64.4924819  73.9815978
  76.9783472  63.8325691  74.6140555  77.4846028  64.9976527  73.7910906
   8.0333757  21.1987567  30.8675790   7.4147606  21.7875862  30.4353452
   7.4854422  20.5100179  31.2439299  42.7399158  24.9202967  64.8806286
  43.5538244  24.4943070  64.6117115  42.5152922  25.4924965  64.1468954
  31.7431874  86.6168467  65.6452370  31.0143418  86.7366901  65.0364256
  31.4606900  87.0573584  66.4467192 101.1486343 100.7048187  43.1739426
 101.2861947 100.3999564  44.0708065 100.9562424 101.6380480  43.2650518
  35.3715181  14.1439950  26.4501524  34.8607540  13.5429966  26.9925117
  36.2805510  13.8783228  26.5891242   9.9308586  49.8535156  14.4591177
   9.5629185  50.4121065  15.1438284  10.6775463  49.4236946  14.8761833
  70.4409122   3.6392280  38.6671114  70.7531691   4.4026423  39.1528344
  70.1721859   3.9892688  37.8177047  45.2977562  27.5482297  59.0638781
  45.8283186  27.9206920  59.7681570  44.4826126  27.2855163  59.4913721
  47.9709482  37.8266907  32.9061770  48.4908247  38.6299133  32.8779960
  48.5485077  37.1817708  33.3145046  31.6290326 103.5865130  41.6071224
  31.7950149 103.4722573  42.5428677  32.2171350 104.2945113  41.3442469
  27.8393888   9.7847134  63.2832861  28.1885695   8.9320058  63.0240631
  28.6144423  10.3125513  63.4754086  71.3395590  86.9262270  36.6042233
  71.4739556  85.9798876  36.6553259  72.0751343  87.2991887  37.0900846
  45.7500362  27.7322602  64.2441273  46.2718058  28.3554220  64.7497511
  46.3960648  27.1661639  63.8217402  87.3340551  89.8458770  50.4213810
  86.8758372  90.1971701  51.1848354  87.2063330  90.5064121  49.7404909
  41.8908571   5.5687058  90.8099130  41.6535382   6.2439262  90.1743110
  41.6202461   4.7475063  90.3992649  25.8216949 102.8649973  17.2281504
  24.9550100 103.2676594  17.2824955  25.9814925 102.7662535  16.2895632
 105.0865082  99.0924934  45.2127552 105.6739119  98.3464876  45.0916624
 104.4417838  99.0061406  44.5105362 102.9290751  96.2201629  10.5312502
 102.0830301  96.5439031  10.2220023 103.5730771  96.7767254  10.0933790
  98.4693483  87.6531521  44.7647619  98.3668498  86.7467919  45.0549936
  99.0937761  88.0333415  45.3826427  52.5967550   6.8640476  22.3750401
  52.4792147   7.2204185  23.2556176  51.7408228   6.5010530  22.1473408
   0.2515526 102.3005873  39.8044062   0.8993955 102.0366201  40.4577446
  -0.5834322 101.9931066  40.1572323  73.9599383  67.9294959  68.6302042
  73.7106918  68.0747453  69.5428944  74.8395152  67.5550428  68.6788034
  77.6787195  92.8631822  58.9770079  77.0088387  92.3196462  58.5622072
  77.4443472  92.8655795  59.9050665  43.4699631   7.1292830  38.9480281
  43.9266014   7.6467836  38.2847738  42.5597429   7.4205613  38.8942885
  33.0967236  26.2051201  71.3225412  32.7557874  25.6566167  70.6160450
  32.4235082  26.1665154  72.0018959  78.3314991   7.6544279  46.0339165
  77.6514864   7.0168507  45.8163977  77.8738022   8.4948355  46.0553980
  15.0249600   8.9080143  42.8297853  15.9487832   8.7305254  42.6529264
  14.9658346   9.8629427  42.8589106  26.1458325   8.9533079  -0.1944072
  26.3540745   9.6377671   0.4415028  25.3602409   8.5326701   0.1550799
  12.4193044 104.4077080  51.7321253  12.8457256 105.0140950  52.3376751
  11.5321250 104.3085637  52.0775461   3.5098167  90.8201650  25.2366257
   4.3796392  91.1989943  25.1096463   3.6401172  89.8784462  25.1251817
  68.5200021  82.5933186  66.3621235  69.2764077  82.3176828  65.8443308
  68.5106525  81.9953815  67.1095276  37.8154874   9.1748589   8.5685408
  37.8436470   8.3668298   9.0809149  36.9939661   9.5932305   8.8260269
  96.2741665  96.6893504  34.9238276  96.4095119  95.7496784  34.8016405
  95.5502442  96.9054869  34.3360758  43.4912872   1.5647686  56.7233896
  44.2322206   1.1066726  56.3266516  42.8660679   1.6744763  56.0069466
  38.3409739  13.6579788  57.3057699  38.4182620  13.3266449  58.2004642
  37.3986030  13.7485695  57.1644783  19.2397642  33.7862420  73.6692953
  19.5945382  34.5645785  74.0989017  19.0574229  34.0693593  72.7732897
  12.1657748 101.4370177  53.9462185  11.5792461 101.9135768  54.5336771
  13.0324216 101.5370021  54.3401241   2.4444480  98.9779124  16.9559753
   1.9788189  98.1716624  17.1781957   3.1505008  99.0320167  17.6000202
 107.0199326  97.1470967   4.2531699 107.7409772  97.7216480   4.5104954
 107.2740082  96.2834910   4.5785341  67.0833044  70.3376571   1.1573716
  68.0362754  70.4120890   1.2077924  66.8554072  70.7422987   0.3203794
  24.0638852  23.9303303  69.4278955  23.6350107  24.4467163  70.1102781
  24.5392728  24.5745087  68.9032316  64.9228572  40.6784391  78.7433628
  64.5373558  40.1557397  79.4465033  64.2359804  41.3002455  78.5029653
  96.6586684  51.8772339  89.9657262  95.7977294  51.6224835  90.2975625
  96.6724681  52.8312093  90.0430082   1.7359419  90.5073706  41.5441322
   1.2520762  90.2034501  42.3120737   2.5315781  89.9752668  41.5363216
 107.5978402 101.7389283  56.6106844 106.9794921 101.0533271  56.3580370
 108.0809549 101.9335396  55.8075905  25.9339285  26.5378499  46.9160271
  25.1095152  26.7988586  46.5056038  26.0857916  27.1998096  47.5905514
  17.0563026  98.8397852  27.9649782  17.0054002  99.7477690  28.2636523
  16.1695333  98.6351499  27.6683426  57.7158070   2.2352709  71.6058350
  58.4525442   1.7379230  71.9609308  57.0978642   1.5678862  71.3075352
  33.6172247  20.2247858  58.7870264  34.4784379  20.1400256  59.1961241
  32.9982138  20.0142050  59.4861078 104.5192770  59.6540252  73.4293890
 105.1801566  59.0735665  73.8069248 104.5061711  59.4290010  72.4991035
  80.5938885 104.6643337  66.1763954  81.0828749 104.7933234  66.9890976
  81.2011943 104.9315889  65.4864788 101.2536362 103.3456189  39.4418430
 101.7205123 103.7362966  38.7031770 101.2381605 102.4086167  39.2468572
   1.7228193  97.8955242  29.3268251   1.6927643  98.8484398  29.2415023
   0.8073850  97.6211945  29.2724609  48.9935255  27.8174186  43.0044174
  49.7434568  27.5737095  43.5470438  48.5123158  28.4540987  43.5329151
  28.8222075   5.3524870  29.6427035  28.1073546   5.6731164  30.1926255
  28.9784813   6.0595453  29.0167022  36.5268397  19.0593898  39.0331006
  36.1648035  19.4196033  39.8426747  37.3396802  18.6322713  39.3034530
  33.7139511   4.1153339  35.4026413  33.1653976   4.8850736  35.2515793
  34.6085405   4.4290304  35.2702093  39.9163151   5.2420914  26.7597175
  39.8706269   4.3915099  27.1963573  39.0078259   5.4468405  26.5384531
  55.8724213  13.9528155  78.7280464  55.2055407  13.4883547  79.2337942
  56.0367966  14.7532427  79.2265749  95.7617072  85.5451218  59.7481632
  96.0373191  86.3267115  60.2271080  95.7126669  84.8603502  60.4151821
  29.4509459  21.3693523  37.7947354  29.9940038  20.5876517  37.6934242
  28.5636425  21.0723710  37.5929260  88.0524114 103.8245672  51.2665415
  88.8158158 103.2742833  51.4415646  87.5620726 103.8224141  52.0886135
  40.1434565  22.2901893  30.4967380  40.3988600  22.3795152  29.5785761
  39.6491075  23.0875874  30.6864977 107.2892883   3.6014509  23.7925553
 106.8910521   3.7114289  24.6560049 106.5936559   3.2238141  23.2543015
  95.5841545  75.6992832  64.0972805  95.1554040  75.0808683  64.6888542
  96.1850933  75.1608006  63.5823584  24.3045568  43.2519436  65.6414461
  23.6500359  42.5568056  65.7094049  25.1374364  42.7887774  65.5518818
 103.2097938  32.7778149  49.4961596 103.4686478  33.4640861  50.1111889
 103.1515034  33.2232332  48.6509180   6.5730615  97.6367221  57.0282459
   6.0143275  98.2745687  56.5841722   6.7559381  98.0311814  57.8809977
  11.4983888  98.2995376  50.1922417  11.2353130  99.1605536  50.5173159
  12.2607083  98.0661783  50.7220030  80.5621240  84.8984340  83.8013935
  80.3249136  85.8175639  83.9245319  79.8909215  84.5547668  83.2118034
  29.7874594  29.9781251  67.1799660  29.3272114  30.6360698  66.6589022
  29.2527699  29.8795509  67.9677629 100.9338454  87.3743406  40.6708336
 101.8797783  87.4845425  40.7672787 100.6331757  87.1130756  41.5412188
 105.9663405  17.8716719  25.8586788 105.6267568  17.1557522  25.3216743
 105.4937919  17.7943552  26.6875052  20.9232230  85.0576666  49.0947294
  20.3586908  84.7920433  48.3687973  21.5233798  85.6964842  48.7100744
  61.5088797  27.1916604  28.9445448  61.2983799  27.2468472  29.8766804
  61.3761902  28.0808592  28.6159825  12.6304078  28.3962274  60.4689837
  13.0188203  29.1819954  60.8536053  12.9431581  28.3926868  59.5643234
  14.0761848  90.0688282  38.0993366  14.9959846  89.8060921  38.0651164
  13.6180444  89.4046107  37.5844026  94.6785620  98.4607825  20.1351857
  94.6742300  97.8255496  19.4191611  95.3297523  98.1237159  20.7504654
  16.7952144  69.3914938  38.3225751  16.0176492  69.3114758  38.8750434
  16.8318903  68.5658693  37.8396344  12.5501418   8.9640492  49.2777681
  12.8344584   8.9280236  48.3644819  12.1563792   9.8314035  49.3720007
  80.1234720  76.5966812  59.2681503  81.0424594  76.8266646  59.4052744
  79.9145911  76.9500486  58.4034395  96.6201687   7.5654721  13.2216990
  97.5376892   7.4359471  12.9816520  96.6519070   8.1330848  13.9917910
  67.8476524  15.5899501  40.1281357  67.3926306  15.6139183  39.2863441
  68.3662224  16.3943684  40.1430845  56.7824364   6.9987339  46.0964918
  56.6299772   7.9266596  45.9177685  57.3198414   6.9925201  46.8885708
  58.7514019   8.4080899  63.1918192  58.1498718   8.3500040  63.9341259
  58.1828594   8.4021610  62.4217844  90.1582078 102.2020731  52.0367384
  90.4008011 101.8148461  52.8778267  90.9253458 102.0665881  51.4805222
  16.3576317  34.1736126  65.9957409  16.8391383  33.7680030  66.7167568
  15.9808397  33.4367204  65.5148602  37.7866077   8.8129306  57.8718424
  37.4598718   9.7096550  57.7986336  38.2360506   8.6532724  57.0419359
  95.1888922  83.2442537  55.9379482  95.0262860  84.0524593  56.4243555
  95.1193336  82.5513545  56.5946674   4.6923378   0.0227974  17.4121451
   4.2850593   0.6895529  16.8591583   4.6997958   0.4096353  18.2876635
   3.1934829 103.5958466  32.1519303   3.1564946 102.7143315  32.5231385
   3.6907334 104.1047053  32.7922750 106.7005662  74.9337069  17.9703820
 107.5311545  75.4070154  18.0186892 106.9051293  74.0571228  18.2959414
  15.3679509  72.7173749  73.3774567  15.7999654  72.1779290  74.0397215
  16.0493560  72.8906623  72.7279282  39.3123507  43.6878252  79.5862103
  38.4506392  43.2714796  79.5677662  39.1555905  44.5770025  79.2683744
  79.9351025  15.7086587  34.9165177  79.0739918  16.1245537  34.9583650
  79.7497416  14.7957969  34.6961594  17.8161418  13.4856689  45.0506830
  17.7768528  13.6266100  45.9966373  18.1942129  14.2936623  44.7036409
  28.4000015  13.3172786  34.1159225  27.7180457  13.9373207  33.8576269
  27.9718828  12.7400494  34.7481847  48.8590479  24.0118122   9.4104391
  48.3278894  24.2599726   8.6537892  48.6390162  24.6592593  10.0802374
  97.8798250  86.3272790  57.9382610  97.2418741  85.9416309  58.5386944
  97.3858432  86.4867798  57.1340370  39.5273638  29.0767479  15.3071153
  39.3262577  28.4139395  14.6464539  40.4650211  28.9752102  15.4705739
  29.4942999  40.5372906  39.5466542  28.6267281  40.1366663  39.6018553
  30.0687194  39.9298525  40.0127983   1.7122523  16.8966532  47.1384668
   2.5839818  17.2667146  47.2776556   1.7157042  16.6128385  46.2243176
  56.9466686  21.7408347  22.1938038  56.3209438  22.2493219  21.6779137
  57.8036690  22.0051074  21.8592215  27.0628548   2.3812807  51.5686321
  26.7020178   3.1519935  51.1304188  27.6776099   2.0113714  50.9350109
  34.3612766  25.4461956  55.5958509  34.6265006  26.0068417  56.3249350
  35.1174378  25.4427695  55.0089598  41.8505478  14.8114073  58.8917351
  41.8126726  13.8994062  58.6035490  41.1200762  15.2354419  58.4413576
  40.2801180  14.0827131  55.0778723  40.3358841  13.2967234  54.5344162
  39.4301891  14.0134561  55.5126762  44.5510340  29.7593617  39.0718627
  44.1584015  30.4422998  39.6156168  44.6484613  29.0109348  39.6605897
  98.0783395  83.4189359  36.7281127  97.4046830  84.0834132  36.8726611
  98.2197217  83.4231845  35.7814217  27.7284145  31.4787102  22.5963688
  27.3865271  32.3600912  22.7464080  28.5545945  31.6178727  22.1334505
  83.6499283  89.8958305  46.8610048  84.3945578  89.5475558  46.3706303
  83.5686818  90.8014754  46.5619421   4.5852536  22.8331518  35.6451917
   3.6860925  22.8595591  35.3180170   4.9527821  22.0323396  35.2712226
  44.1183901  13.5090566  14.3267417  44.7664547  13.1880426  14.9537945
  44.3487549  13.0793130  13.5030401  64.1414547   0.2706737  36.0572028
  63.5803652   0.2029312  36.8297482  64.9028206  -0.2706017  36.2659502
   5.9228683  14.9164546  45.1663065   5.5530536  15.5457222  44.5470381
   6.6865182  14.5567644  44.7149849  51.9876575  30.7694626  29.3822956
  51.5145111  31.4041471  29.9203801  52.2243309  30.0691414  29.9903846
  41.9587946  13.1881094  46.0588932  42.0540142  12.9890943  46.9903231
  42.7792358  13.6200821  45.8211803  69.3395996   2.5113910  18.9302421
  70.2010584   2.3519990  18.5446060  69.0117502   1.6399951  19.1525376
  61.1394547  65.8838188  79.5258847  61.7761063  65.9612572  80.2364544
  60.8173894  66.7756009  79.3946174 101.1635641  70.9408012  46.2445164
 100.9413866  71.7761580  45.8333588 101.9776324  71.1153332  46.7168188
 107.7624253  75.1437512  42.1817636 108.6332420  74.8215571  42.4143600
 107.9291657  75.9202829  41.6475105  32.3804426   8.1640619  65.9697485
  33.1852317   7.6564139  65.8656454  32.3810554   8.7688065  65.2277851
  61.4443731  12.8513217  78.9611530  60.7473564  13.2866776  79.4519329
  61.3160276  13.1383955  78.0570793  12.5087941  36.7305613  30.1679468
  12.8587568  36.6748261  29.2787623  12.3643327  35.8201885  30.4259872
  35.0957775  15.5617237  34.6779013  35.2484632  16.4574564  34.9788690
  34.7909427  15.0960720  35.4566693  12.7149100  68.9054028  28.8658428
  12.6189037  68.9813295  27.9165006  13.6053891  68.5773841  28.9910507
  10.8675635  29.5011282  30.5933428  11.5275669  29.7294068  29.9387312
  10.5214858  28.6580467  30.3006339  95.2861456  83.9059535  44.3178177
  95.6852344  83.0496350  44.4716930  94.4668654  83.7101642  43.8631964
 109.8888282  56.9765845  32.0292735 108.9326147  57.0097772  32.0572877
 110.1221374  56.2763730  32.6387858  66.0926108  76.1314301   2.7367135
  66.6603641  76.7402438   2.2642347  65.3745417  75.9531812   2.1293851
 109.1657261 100.3257266  68.2398605 108.8110689 100.9818337  68.8398361
 108.9774493 100.6721396  67.3676300   5.2934213  94.9666307  36.4045405
   6.2060113  94.8235575  36.6554165   5.2903505  95.8319685  35.9953785
  32.4070740  29.9056029  40.0845385  32.4934077  29.4547081  39.2446160
  33.2528639  30.3346515  40.2141094  89.5085672  85.6878403  64.8713732
  89.1229192  84.8648945  64.5709276  90.4446665  85.5917350  64.6961164
  82.0066031   1.0562617  36.8561316  81.4320143   1.7649667  36.5666246
  81.5180405   0.2567299  36.6604638  96.7994479 102.3634264  57.9336452
  97.7304510 102.1552325  58.0118799  96.5635852 102.7300828  58.7857962
  17.7742505  11.2510490  73.2027054  17.3660362  11.7012525  73.9422417
  17.5038898  11.7562187  72.4359322 103.8746742  87.1907118  49.8236847
 103.4248070  87.9074398  50.2710676 104.7773103  87.4954096  49.7307444
  83.6820260  81.9425694  48.1881189  83.7796519  82.5848642  47.4851561
  84.2875866  81.2387768  47.9553032  47.5781488   4.1612479  36.4166641
  47.9502249   3.5254925  35.8054328  47.8909159   3.8786647  37.2760558
  26.7709470  23.5286760  33.6197400  27.4825025  23.1530976  34.1382575
  26.7205739  24.4403434  33.9070654  71.3449120  70.7517933  86.9323245
  70.6142901  70.1358866  86.8768085  71.0957979  71.4717698  86.3528339
  19.6594775   5.0069553  39.4581747  20.0083995   4.3281543  40.0358534
  19.9971449   4.7807428  38.5915494  60.2059078   8.6598939  33.8209033
  59.7363091   7.8543115  34.0371156  59.5867062   9.1636527  33.2926488
  75.7480621   0.6710703  17.1200550  75.8594847  -0.2709372  17.2482681
  76.4075279   1.0697304  17.6878631  30.5393672  19.2022634  26.8057323
  30.7486773  18.2711279  26.7321920  30.7383156  19.4213057  27.7160478
  45.2069664  25.5506516  29.8281503  45.7027769  25.8803225  30.5776310
  45.4690695  24.6331525  29.7524428  34.4173241  38.1112957  16.1077559
  34.1921759  37.6589179  15.2948022  33.8692093  38.8960218  16.1048949
  31.5748787  25.6207800  41.3011742  30.6490803  25.3801274  41.3360167
  31.6604853  26.3354588  41.9321585   6.3228507  73.0581013  22.5263000
   5.9856363  73.0122415  21.6316414   6.8619723  73.8489381  22.5388098
  81.0819749  84.1507212  15.6589854  80.5665228  84.0577069  16.4601660
  81.3871518  83.2641808  15.4662478  14.0822787  86.9449559  30.2879500
  13.1301923  87.0373515  30.3229260  14.2296453  86.2052730  29.6985555
  44.6126890  32.2337985  53.4017277  43.7777710  32.4110031  53.8350201
  44.9985266  31.5191746  53.9083576  93.4209505  88.3119658  58.2218456
  93.7488750  88.6984197  57.4098396  93.0287269  89.0457824  58.6950302
  25.9576964  31.4068437  55.6797886  25.9344745  30.6094408  55.1507902
  26.6050482  31.2237763  56.3607121  11.5036960  78.6896697  60.6589603
  10.6528325  79.0787641  60.4567957  11.4725394  77.8224412  60.2550125
  24.6567483  91.1945251  37.2458839  25.1405711  91.9606463  36.9373298
  24.7017141  90.5739299  36.5185094  69.0820026  28.6809802  42.1980810
  68.1891680  28.9456081  42.4195623  69.0474319  28.4808683  41.2626743
  19.7016025  51.5364456  61.2588263  18.9302933  51.3852310  60.7125235
  19.3958199  52.1279240  61.9464922  51.3947248  18.0589247  16.1740386
  51.8563128  18.1101263  17.0110250  51.7743349  18.7625825  15.6477332
  43.1376314  47.2356176  42.0668507  43.7947989  46.5476322  41.9617510
  42.4139500  46.8076897  42.5244379  45.2048397   2.4980348  64.0514898
  45.7134819   3.2762396  64.2793417  44.3203259   2.8279006  63.8932037
  50.3748941  11.9569731  27.0777249  50.1404476  11.8300939  27.9970551
  49.7943497  12.6559925  26.7767715  24.0280986   0.4696471  59.1330576
  23.1520104   0.7680103  59.3773556  24.4258380   1.2244499  58.6991119
  71.2709570  21.2258196  54.6834326  70.8318901  20.5269718  55.1682615
  71.2426996  20.9384942  53.7708139  21.6955514  97.0842252  14.8883116
  21.5062185  96.5648345  14.1068900  22.6513572  97.1160958  14.9289358
  27.6106071  12.7045929  65.0860834  26.8585825  12.2767091  64.6766853
  28.1655884  11.9826746  65.3811455  39.1095877  40.0825262  52.5083065
  39.7847891  40.4782629  53.0594254  39.1268945  40.5972815  51.7014885
  49.5918036  20.2958179  57.1496391  48.8735342  19.8769546  57.6238489
  49.5970297  19.8659587  56.2944078  73.2578897  30.0125313  50.3852272
  73.3820200  29.2683458  49.7961521  74.1400528  30.2284288  50.6875610
  98.3202103  93.5681144  25.3584766  98.6327151  94.2523078  24.7664881
  99.1046599  93.0662278  25.5797935  57.8906488  19.1365445  74.3588352
  58.3651161  18.3944154  73.9841938  58.5619164  19.8047173  74.4973230
  12.2983594  98.6911861  65.9344482  11.4377017  99.1100976  65.9319448
  12.8722806  99.3256042  66.3638210  39.9153018  46.2327433  61.4034605
  39.2415166  46.8298388  61.7286110  39.4714475  45.7127380  60.7335186
  48.6531162   3.6216304  20.6612015  48.5490942   4.0570045  19.8151159
  49.0202236   4.2952451  21.2336588  46.0044050  31.5913749  71.6457701
  46.2919140  31.9980383  72.4632025  45.9618282  32.3147845  71.0203886
  49.0539789  24.6537042  31.4232588  48.3418655  24.0360188  31.5893650
  49.2746544  24.5224786  30.5011320  71.1434746   0.3810814  41.7224741
  71.2268066   1.2220798  42.1719265  71.4986181   0.5406154  40.8480310
  59.1576958   5.6763542  51.7839670  58.5327387   6.1668974  52.3178482
  58.9936733   4.7595608  52.0049143   4.2742962  16.3973475  30.4342532
   4.2352319  15.5601144  29.9719262   4.6406767  16.1806512  31.2915969
   8.1664997  21.1221838  20.9371686   7.2382581  21.2709045  21.1173964
   8.4326077  20.4637790  21.5789795  20.4782581  26.5902495  27.7024722
  20.0213718  25.7646847  27.5414515  21.3816690  26.3322687  27.8855801
  45.2018404  21.6992879  32.2615337  44.5319653  21.8522191  31.5951157
  44.9697495  22.2934651  32.9751992  45.6956768  11.4665163  48.3779955
  44.9474430  11.5568781  47.7879000  46.2791681  10.8522081  47.9325819
  39.3522334  14.8304021  46.9558525  39.8351002  14.1458464  46.4927578
  39.0775943  14.4176650  47.7746630  59.2313290  20.1802659  53.4287405
  59.6404982  20.2099156  52.5639105  59.1241312  19.2467344  53.6111164
  30.0671244  18.3495605  59.1338015  30.0793552  17.7588463  59.8868895
  29.8377967  17.7884662  58.3929825  22.0442128  20.4482007  60.4930353
  22.4587584  21.2491059  60.8138752  22.1743798  20.4743195  59.5450878
  56.6033125  21.4153934  38.9752698  55.7449150  21.8003392  39.1519141
  56.9051790  21.1017776  39.8277688  46.2375593  19.7170734  45.9553957
  46.0097122  19.3261480  45.1118946  46.0977459  19.0146863  46.5904808
  21.7400813  11.1023510  64.4109821  22.6177430  11.2355697  64.7690296
  21.7027903  11.6786861  63.6476517  39.3489528  46.5609789  26.0427666
  38.5680079  46.0596371  26.2773180  39.7619724  46.7672110  26.8812871
  48.8765192  25.4512978  20.8408022  48.4691048  26.3167524  20.8056688
  49.1716576  25.2889609  19.9448276  33.4237695  15.4307008  21.2224483
  32.5097609  15.5848861  21.4612961  33.4214020  15.4122615  20.2654290
  50.4938316  27.2117090  50.1674604  51.1325312  27.6141667  50.7559538
  49.7707224  27.8380060  50.1343775  95.7960514 101.2393022  20.5797458
  95.1801900 100.5430124  20.3514266  96.3658909 100.8475253  21.2415791
  33.1317520  29.0540171  20.4876518  33.4155011  29.3243599  21.3609409
  32.2870016  29.4872642  20.3654838  87.9464436  25.9344029  33.1003737
  88.2498837  25.8708906  32.1947670  88.4561825  26.6533375  33.4739089
  79.5133161  70.1758206  90.0017026  79.2148303  71.0225784  89.6698307
  79.0006064  70.0363874  90.7978909  39.4310403  42.1088886  50.8056688
  40.0109196  42.6634216  51.3276529  40.0152063  41.6595078  50.1949024
  60.7165146   6.9833004  31.2375522  60.7424450   7.9178786  31.0323143
  59.9876881   6.8930334  31.8514705  65.5675554  15.1730621  68.8059568
  65.0449324  15.9745252  68.8333845  65.9859228  15.1303947  69.6658325
  25.1888466  20.4098654  40.2850437  24.9901581  19.4737458  40.3058338
  25.7714939  20.5476904  41.0318756  13.7071800  20.7382298  40.7640457
  12.8240323  20.7063580  40.3962612  14.2816627  20.8095574  40.0017405
  18.5735746 104.6149222  51.8760061  18.5680957 104.8794653  50.9561062
  17.6765104 104.3288858  52.0483160  32.3137808  41.9100714  24.1143084
  32.6387572  41.6954422  23.2399201  33.0177975  41.6407442  24.7042704
  69.2545414  27.1117258   7.3469836  69.4788218  27.6537395   6.5905756
  70.0971317  26.7968035   7.6742452  39.7438312  12.5719857  44.8908520
  40.2039146  11.8976271  44.3910551  40.4360914  13.0334032  45.3642416
  25.2192736  34.3692064  64.8984671  25.9500003  33.8792133  64.5214033
  25.6087494  35.1935363  65.1900482  98.0337306   9.5416313  43.4498692
  97.2296592   9.0704727  43.2314444  97.7515014  10.4457653  43.5881424
  95.9059142  97.5109923  81.9963208  96.8516206  97.4409639  82.1265594
  95.6887626  96.7789042  81.4191554 102.3189024  84.7041598  54.4524574
 102.7490047  85.0259307  53.6601782 102.7591923  85.1636628  55.1674652
  34.9359989  38.7994313  67.0327044  34.3317556  38.0571675  67.0456362
  35.6525898  38.5350060  67.6096010  28.6779447  86.2961904  43.0980587
  28.2856031  85.7710174  43.7955475  29.4249149  86.7268244  43.5137796
  32.9022121  24.3492484  50.8029175  33.6563325  24.7852969  51.1996460
  32.2285438  25.0278735  50.7596922  35.5704594   8.3247036  43.2723141
  35.3866959   7.5453734  42.7478075  36.4271879   8.1536305  43.6634398
  25.2830935   2.2794960  10.4882467  25.5097747   2.1746154   9.5642072
  25.1787877   1.3848805  10.8123064  72.5838327  10.7775521  79.6279955
  73.1312561  11.4238060  80.0739956  73.1941652  10.0903904  79.3605328
  53.9329147  38.0567455  12.9717243  54.1082239  37.2830462  12.4361050
  53.0767202  38.3647585  12.6745963  61.0625076   3.1777123  47.8816652
  61.7351294   2.7949700  47.3183537  61.4378214   3.1414112  48.7614679
  12.9535186  37.2976375  82.1503925  13.1419230  36.8246078  82.9609299
  13.2237089  36.6980934  81.4548492  25.2881837  12.3034132  41.9464064
  25.8531523  13.0197310  41.6566992  25.1583076  11.7689562  41.1630058
  56.6315174  11.2338305  41.0644722  56.5160799  11.6941798  40.2332211
  56.2108278  10.3848481  40.9285259  66.5750074  24.1569304  24.7196364
  66.6831923  23.4843826  24.0471721  67.4190235  24.1828632  25.1704097
  61.7468214   8.8531148  28.2508516  62.3792839   8.1718224  28.4790230
  60.9958124   8.6828482  28.8193846  23.1185813  92.7979079  49.4967318
  23.3218761  93.4738294  48.8501787  22.7126403  92.0952359  48.9890957
  38.0687737  29.2388892  43.7303257  38.5974121  28.9666224  42.9802275
  37.3351502  28.6241603  43.7420702  34.6639371  34.6822309  13.0480421
  35.1997137  35.4642558  12.9153264  34.6929717  34.5294619  13.9925253
  31.5038466  19.0106142  18.8531113  32.3742104  18.6125565  18.8373172
  31.5381169  19.6882808  18.1779623  32.7425694  19.5591569  37.5644636
  32.0840287  19.6164525  36.8721676  32.5086045  20.2574062  38.1759691
  61.2207794   9.1880143  58.2852793  61.4650631   9.7233200  57.5302935
  60.2673864   9.2597705  58.3313417 109.6147803  93.7780241  35.3642368
 110.4773430  94.0924374  35.6350923 109.0126780  94.4741133  35.6272268
  19.4646370  24.8670125  47.7258968  18.6061096  24.6344686  47.3722219
  19.4996083  24.4298077  48.5766983 103.7625269  91.8955604  47.3561049
 104.6856216  91.9981698  47.5876188 103.6741427  90.9700349  47.1284533
  36.3995266   3.5413986  64.6215582  36.3952518   3.2399422  63.7130785
  36.2475228   2.7495369  65.1373911  35.6071973  46.4198923  39.9170709
  35.6791162  46.4846373  40.8693647  34.9410129  45.7479715  39.7723174
  30.9185314  16.9353247  88.4299088  30.0416279  17.1332192  88.1011105
  30.8132696  16.8892467  89.3801880  34.2766738  22.6818681  30.9823036
  34.6865511  22.4367905  31.8118644  34.2666054  21.8722725  30.4717326
  23.9458323   1.6084962  54.5075417  23.5677004   1.4340781  53.6456680
  24.7952962   1.1676618  54.4900703  43.2523627  90.1999572  28.6797833
  42.9537959  89.4013563  28.2446718  42.4721046  90.5402366  29.1175461
  15.0652468  17.1872354   3.7150732  15.8636105  17.7127814   3.6636025
  14.4550157  17.6194954   3.1175780  51.1375904  22.8906178  15.3964794
  50.4664135  23.4223747  14.9687076  51.8967485  22.9512024  14.8166156
  13.0873871  14.1776907  25.7288098  12.1823275  14.0963101  26.0296035
  13.2071960  13.4421372  25.1281118  24.7434235  43.4584951  34.2072034
  25.1054096  42.5899172  34.0318131  24.3448639  43.3813047  35.0740528
  30.8135486   0.5592714  55.1386929  30.1067877  -0.0445919  54.9105024
  30.9531808   1.0754952  54.3448114  80.9562302  24.6447110  33.1266046
  81.0580730  24.0700936  33.8853359  80.0505829  24.5128489  32.8461432
  16.3604522  21.0648274  57.7478361  15.6312811  21.6806102  57.8210115
  16.0718966  20.4285860  57.0934916  22.4620438  17.7398849  58.9566708
  22.6033902  17.2669590  58.1365490  22.7498198  18.6336052  58.7704420
  55.6566334   4.6400908   6.9308472  56.3342857   4.8310626   7.5793451
  54.8413944   4.6294498   7.4323463  68.5201645   1.6918582  71.1465025
  68.1487417   0.8609197  70.8501625  67.8596449   2.3451924  70.9160662
  36.5358806  41.8349886  53.1626892  35.6058073  41.6668367  53.3140945
  36.5954280  42.0262337  52.2266817  36.1039186  27.3751664  24.9211550
  36.0444784  27.3061037  25.8740091  37.0353723  27.5124764  24.7486067
  36.9487715  21.6031003  37.6036286  36.4476490  21.1741686  38.2972622
  37.8227854  21.7191052  37.9762840  30.4591174  88.8548413  20.1605725
  30.3745170  89.1612867  19.2577076  31.4024825  88.8438145  20.3223562
  32.8756952  23.9914703  25.6441998  32.4997306  23.7110925  26.4786291
  32.5240469  24.8710322  25.5065513  39.5969486  40.6147194  23.5154366
  40.4951191  40.3775930  23.7462878  39.5379972  41.5496540  23.7120342
  21.9417429  25.6898975  24.4694638  21.4318085  26.3299632  23.9729619
  21.3955140  24.9039125  24.4789696  29.0838122  40.0706720  27.4443102
  29.1579032  39.5723200  26.6304374  29.4712996  40.9217834  27.2401237
  31.9984722  45.4171181  52.2257137  31.6741276  45.1414156  53.0830479
  32.9104161  45.6623125  52.3821545   8.2834668  82.8283444  18.6179161
   8.0665822  83.7233034  18.3566904   8.1966205  82.8293673  19.5711672
  37.6959872  38.1190157  51.3080215  38.1083369  38.7195706  51.9289351
  36.9794607  38.6251640  50.9250879  22.5252724  32.3233962  14.4685292
  23.2184529  32.9597878  14.2932034  22.9667974  31.6085625  14.9271178
  43.5498905  48.6252356  44.3762493  43.4415960  49.5748568  44.4284010
  43.4935474  48.4287405  43.4411287  38.4321880  41.9956589  47.2588348
  39.2177582  42.5015068  47.0509195  38.4658217  41.2459803  46.6646290
  50.5747271  12.2392821  55.0412607  49.9017668  12.7711284  55.4661036
  50.5231857  11.3910651  55.4818296  89.8505715  94.7135881  42.3810720
  90.2774862  93.8872210  42.6071072  89.4385711  95.0010381  43.1958485
  67.1635675  25.9741879  46.3107777  67.5581074  25.5102229  47.0492268
  67.3817825  25.4392219  45.5476093  44.0303469  32.3081613  62.9901838
  43.8091421  33.2392836  63.0078840  44.0066624  32.0739532  62.0623779
  37.2459078   0.5649124  43.6049032  37.7023101   1.3708217  43.8466501
  37.8855419  -0.1293382  43.7633944  74.4241047  28.5175514   1.5351517
  74.4266558  28.9248085   0.6689149  73.6086893  28.8161969   1.9378202
  18.0374885  17.6216662  61.3015842  18.2183826  16.8717551  60.7348919
  17.2246289  17.9915965  60.9571409  52.6011467  36.9958925  30.1060820
  52.6118803  36.0388470  30.1194501  53.4464073  37.2396541  29.7287965
  41.1848831  29.4178510  62.4665928  41.8072462  28.7487888  62.7516413
  40.7412338  29.6900702  63.2699013  67.5878477  16.6065061  58.3889389
  68.0021954  16.3906813  57.5534916  67.8857327  17.4955785  58.5814142
  51.4510775  48.0807972   8.2206631  51.8306971  48.7742138   7.6809484
  50.6633759  48.4739065   8.5964596  51.9612026   6.5732884  46.6881847
  52.4726057   6.2224036  45.9590912  51.7894602   7.4828589  46.4444304
  23.5438347  40.5335569  84.9847412  24.1617918  40.6949759  84.2717838
  23.2401705  39.6373844  84.8402023  62.6323175  25.5363202  59.7396898
  62.1801949  25.1336789  58.9982748  63.5558891  25.5316544  59.4882441
  10.5709167  99.7715697  59.9018431  10.6254430  98.8216135  59.7977209
  10.8520599  99.9302736  60.8029556  15.6189692  14.5359635  32.8684926
  15.4150152  15.4699099  32.8197289  15.1722729  14.1535044  32.1132326
  36.9549394  57.1385717  59.0999222  37.7013302  57.0811558  59.6964407
  37.3276806  57.4639797  58.2805252   4.4824882 103.6665015  27.4970865
   4.2843719 102.9554159  26.8877101   4.6594091 104.4210439  26.9353056
  47.6039839  34.3631196  32.3525071  48.3604908  34.7915196  32.7530098
  47.9038143  34.1164327  31.4775920 101.7171721  75.6653694   4.6879503
 101.2502389  76.3237647   4.1734430 101.7548470  76.0336761   5.5706521
 101.0415248  85.5390171  24.6891809 101.6808418  85.3648726  23.9983988
 101.5147976  86.0776785  25.3232837  51.4853811  24.9289894  60.8736658
  51.0796738  24.1119790  61.1637163  52.2992659  24.6552801  60.4506922
  34.1291475   5.5650663  32.5570679  33.2360482   5.5771613  32.2128892
  34.3169928   6.4796710  32.7678871   6.9968028  96.9993392  34.3027282
   7.8172345  96.5503785  34.0988755   7.1207185  97.3329750  35.1913023
  10.8972545  97.5303123  22.8055096  10.0768418  97.0377884  22.8294182
  11.2278361  97.4019751  21.9164228  42.8411961  42.7240610  11.3274431
  43.2851171  42.6244688  10.4852748  42.4910641  43.6147499  11.3097811
 107.4355698  22.3174691  16.4647067 108.3857918  22.2524762  16.5599680
 107.2140408  23.1665587  16.8470716  39.1773605   2.7078518  28.7606692
  39.1526437   2.2517771  27.9194689  38.2796955   2.6542819  29.0886307
  70.1617908  29.8065758  47.9104805  69.5197010  29.2075109  48.2913637
  70.6387949  29.2735815  47.2743845  32.1790075  12.1538055  59.4026518
  33.1213164  12.3044372  59.3278313  31.7825127  12.8560495  58.8870192
  60.9800863  21.4957976  66.0174370  61.2283039  21.9514751  66.8217850
  61.1123943  22.1431398  65.3248501  63.8707447  25.2219343  28.7870884
  63.0107260  25.6004548  28.9696336  64.4452667  25.9784222  28.6692572
  24.5593309   6.8632269  19.5463586  24.9944520   7.5089717  18.9896595
  24.3425250   7.3432982  20.3455830  33.7838840  45.2636003  34.4550371
  33.3520603  46.0890388  34.6750760  33.5407758  45.1016712  33.5434937
  28.1224322  32.4951673  80.4422474  27.1916223  32.7116656  80.3878784
  28.5551310  33.3350849  80.5956745  39.2199087  35.0663280   5.5129772
  38.9410543  34.6500707   4.6973786  38.9845967  34.4376802   6.1953706
  84.2131329  21.8782187  10.0472927  84.5619774  22.7667499  10.1183224
  83.3761692  21.9849348   9.5952547  60.8830690  26.9628525  72.3383379
  60.3962946  26.5615296  73.0582142  61.6631699  26.4164662  72.2427607
 105.7982520  99.4158504  30.9319448 105.0632600  99.0992514  30.4067945
 106.5622143  98.9669219  30.5699253  36.6431069   5.4609948  47.7098322
  35.7667685   5.2933097  48.0564547  36.6199255   6.3769776  47.4329424
  45.6735229  30.2402878  33.4700751  45.9101534  29.4313121  33.9237237
  44.7395563  30.1456070  33.2830453  10.3461733  79.4582283  76.7515031
  10.2720156  80.1008093  76.0459367  10.8106985  78.7206924  76.3559178
  50.6581688  30.6787348  26.9636941  51.2029171  30.9353065  27.7077723
  49.9292040  31.2989807  26.9753933  87.1292400  18.0785072  27.9861355
  86.7381096  18.8040435  28.4728074  86.3887978  17.6540542  27.5527573
  40.8474255  39.3373251  68.0206823  40.4854727  40.0290060  68.5745811
  40.1456881  39.1338563  67.4022961  46.1725664   1.9619976  34.1517782
  46.0114479   2.2977093  35.0335765  45.8449078   1.0629046  34.1742134
 106.1295500  29.3769073  80.5128765 105.2243241  29.0958500  80.3794479
 106.5029158  28.7142062  81.0939598  55.3381634  65.1798153  29.1577435
  55.1021719  64.9493790  30.0563192  55.9582615  64.5010233  28.8913870
  31.9323540  20.3292894   6.0748804  31.4489603  19.5088077   5.9780645
  32.8434968  20.0923038   5.9019941  37.0029926   2.5677145  57.9187393
  36.1764121   2.0859833  57.8882122  37.5943208   1.9978285  58.4104681
  43.5611816  98.2709477  63.2578707  43.5482021  99.1526399  63.6302710
  43.1675430  97.7195320  63.9340544  53.8376951  28.6664867  36.7358851
  53.2090902  28.2823253  36.1247325  54.0061760  29.5419431  36.3874245
  54.3925333  21.1447644   6.6712326  54.3792248  21.4092541   7.5910693
  55.0856447  20.4864812   6.6213042  76.9988585   7.2766340  80.6466675
  77.0724106   6.3581860  80.9060478  76.0567856   7.4448150  80.6254482
  37.5660849  26.5443158  35.5299592  38.4300232  26.7867708  35.1967072
  36.9591618  27.1172738  35.0613499  56.8548489  14.4209576  33.3394217
  57.3327398  15.1652920  32.9736042  56.0432577  14.7999144  33.6769700
  79.0353346  19.8632443  24.1314101  78.6312294  19.0319645  24.3802166
  79.2711496  19.7488546  23.2107925 100.8170561 103.4076368  42.3926973
 100.8421639 103.5032900  41.4406204 101.7352895 103.3220043  42.6491117
  62.6573563   8.6512971  19.5682108  62.9240990   8.3615112  18.6957979
  63.1960869   9.4238216  19.7391117  57.9857302  26.3766408  78.5687637
  57.4382305  25.8981037  79.1912413  58.8463926  26.4137983  78.9860249
  23.0126905  44.5312500  27.3167872  22.4023032  45.2553415  27.4558806
  22.5117946  43.7483883  27.5458455  16.4324951   8.4523523  56.7791224
  17.1122718   7.9347467  56.3475895  16.7180264   8.5100949  57.6909161
  94.1541528  77.2345101  87.6840154  94.1393088  78.1570375  87.4291510
  94.8784160  77.1696174  88.3064804  46.4064217  20.4451704  83.0098343
  46.6613102  20.6087494  83.9178562  47.1236992  20.8085918  82.4905300
  56.0437393  21.5531421  34.2426872  56.4035368  21.5032101  35.1282835
  55.1532650  21.2121296  34.3263626  52.4361420  37.5947952  51.9454098
  51.8629026  36.9338107  52.3336458  52.1120405  38.4261799  52.2918034
  89.1986839  97.2346744  19.4883573  88.4197716  97.6083646  19.0761864
  89.9320797  97.6642493  19.0480971  41.2431145   3.0465484  58.9359283
  42.1579552   2.8826493  59.1649294  41.2828016   3.7248361  58.2617044
  45.5092716  36.0301065  72.6790667  45.4351997  36.9136333  73.0397987
  44.8115396  35.5362678  73.1097937  37.5266004  18.2730258  17.9738259
  36.8246388  18.9144719  17.8641558  37.5390267  17.7881253  17.1486306
  33.5639806  98.1420908  20.3443837  33.8946624  98.7559429  21.0001802
  34.1060872  97.3606912  20.4528642  49.1529417  25.1443267  36.0726881
  49.8675394  24.6362901  36.4567208  48.8519526  25.7098436  36.7839050
 108.1115483  90.6360995  89.6603354 108.7756919  90.0405585  90.0074348
 108.2991027  90.6838548  88.7229050  36.2373114   4.8431510  67.0475245
  36.3904619   4.2110741  66.3452005  36.9388676   5.4866606  66.9477940
  93.4671449  85.7938063  87.4395758  93.4250544  86.6924417  87.1125931
  93.6590003  85.8871996  88.3726886  28.4022927   3.5692373  58.0982065
  27.9457808   3.2562655  58.8791513  27.9162478   4.3502131  57.8334951
   1.3935025  28.2106876  29.5924044   0.5458928  28.3384418  29.1664124
   1.2932312  28.6187029  30.4524636  85.4169873  74.9652258  33.1786847
  85.2572266  74.2175046  32.6028180  86.3009754  75.2558008  32.9542685
  38.4034061  35.3093195  50.3314114  37.6397228  34.8031402  50.6085443
  38.2763672  36.1711192  50.7281446  55.1603603  36.8511319  28.9819241
  54.8093176  36.2015104  28.3728337  55.6995058  37.4239993  28.4366035
  52.8276344  92.4484805  11.8336034  53.3074088  92.7981952  11.0827732
  52.7646537  91.5090529  11.6611457   2.1251060  14.4626200  39.2434525
   1.9900486  15.2478397  38.7129617   2.0427786  14.7670627  40.1472044
  31.0211396  22.6487899   9.4194180  30.2775860  22.7950597   8.8346410
  31.6576195  23.3187008   9.1697317  54.3425369  28.4284520  60.6796265
  54.9224854  27.6862836  60.5091047  54.3248796  28.5043573  61.6336489
  34.6729846  81.8132845  65.3611422  35.1679797  81.0428706  65.0824451
  33.9189859  81.8395177  64.7720528  28.6175227  17.1161580  45.5439091
  27.6655245  17.1312594  45.6424093  28.7663579  16.6379666  44.7281837
  52.8103828  44.4688797  60.2948618  52.4079704  43.8409710  60.8948851
  52.0735502  44.8494577  59.8168755  16.4057469  31.2877369  62.4447727
  15.4817700  31.1103940  62.2685623  16.8789840  30.7027507  61.8531084
  89.5841388  95.1835272  10.2742136  89.2555741  95.3217057   9.3858528
  89.0260831  94.4926206  10.6312191  26.7680640  98.6670527  44.7996998
  27.6477857  99.0375051  44.8710442  26.7842431  98.1669090  43.9837170
   0.2619929  58.1985561  49.5128918   0.0857396  59.0810529  49.1867542
   0.8775516  57.8279773  48.8804436  21.3256669  23.9026451  37.9825616
  22.1470976  23.5645032  38.3391380  20.6549597  23.5934424  38.5914779
  10.5691612  31.6987729  32.2371221  10.7652962  31.1790943  31.4575720
  11.4186597  32.0385361  32.5184512  31.5090394   5.6388128  22.1259665
  32.2562385   5.9129214  21.5941882  31.2422323   4.8000193  21.7498398
   1.5802136  97.6978647  85.2087793   2.4449625  97.5817263  84.8151383
   1.4066162  96.8687260  85.6544528  94.0397549  24.4892144  32.9930687
  94.5874214  23.7238169  33.1675959  94.0345669  24.5675063  32.0390892
   4.4549254  32.9312325  79.0508509   4.2757767  32.1103120  79.5093584
   5.0993341  32.6968598  78.3829927  65.5574322  32.9998446  51.5739346
  66.1322308  33.1708002  50.8278704  66.1502790  32.7354622  52.2774029
  55.8045816  43.6133432  11.1133099  55.6567001  42.6678324  11.0939920
  54.9920416  43.9756823  11.4664757  17.1958490  91.9790057  59.6292400
  16.7257686  92.2124938  60.4297018  18.0158563  92.4700574  59.6811533
  24.1849780   8.1139547  45.2209044  24.7326708   8.8971722  45.2741289
  23.3116913   8.4460586  45.0127935  53.1337595   5.1284707  32.7055478
  53.2898331   5.7603276  32.0036745  53.7798405   4.4384992  32.5547171
  46.1834764  22.8539968  66.5138435  46.1693811  23.7844062  66.7382812
  45.2641058  22.6275086  66.3735151  21.1247683  55.5301476  36.6771460
  21.5764952  55.4811239  35.8346653  20.5101824  56.2571812  36.5774322
  16.7372079  89.9800376  51.9775248  17.2797151  89.4653038  52.5749874
  16.6086765  89.4099918  51.2193966  50.8965874  23.1567645  32.7979779
  50.3242111  23.8035274  32.3852921  51.7815495  23.4347558  32.5617719
  57.9658937  34.2027426  59.7326517  58.4338760  33.4674907  59.3368864
  57.6769161  34.7311044  58.9886379  29.7332168  40.3100586  53.8608932
  30.2420211  39.6920204  53.3361292  28.8420820  39.9609780  53.8448715
  67.7054644  26.0115266  70.8215427  67.8479099  25.1339769  71.1762953
  67.0586681  26.4046574  71.4074945  80.8883667  17.6218915  58.3468437
  80.8968544  18.4993100  58.7293291  79.9595881  17.4140680  58.2448101
  63.9506817   5.5251974  25.6940007  64.1316223   5.1965106  26.5745997
  64.7374105   5.3116786  25.1923037  34.8882771  58.0122852  79.2629147
  34.7751904  57.7082682  78.3623505  35.4900670  57.3798180  79.6554327
  62.1003199  30.1837635  85.7422543  61.9122696  29.5921493  86.4708614
  61.2805033  30.6570292  85.6002903  51.2963533  20.6732249  16.9891608
  50.4951477  20.2567148  17.3066878  51.0039520  21.5091085  16.6257954
  14.1595884  95.6882993  61.7123699  13.2987399  95.6838373  62.1308851
  14.1385217  94.9420456  61.1132908  36.8912888  32.5786185  47.0791674
  37.7599645  32.4680257  47.4656916  36.9404507  33.4140754  46.6145945
  88.1796455  48.1812143  20.4248571  88.1690502  47.9490423  21.3534141
  88.7606430  47.5352764  20.0230742  32.3227286  18.5104084  12.3528898
  32.2257876  19.4606328  12.2903740  32.2505999  18.2023454  11.4494932
  64.7552204  29.0577531  12.7546906  64.3009806  29.6653986  13.3383596
  65.0219488  29.5958138  12.0093203  78.9513779  26.2144756  26.5138960
  78.6844397  26.0924554  25.6028032  78.2569122  25.7985091  27.0247054
  48.3402491  12.3714185  45.1945162  47.5326490  12.3548555  44.6809626
  48.7478876  11.5216529  45.0273037  49.6350956  28.8895392  65.4756165
  49.5442104  28.5343099  66.3598013  50.3345585  28.3698916  65.0794458
  36.6754436  10.4258192  39.4245219  36.8929768  10.6593442  40.3269529
  37.3054099  10.9122264  38.8927507  34.6509910  11.2499046  37.0020986
  34.7508359  11.1446059  37.9482365  34.2196965  10.4448020  36.7156982
  29.3223596  35.4330206   5.9115762  29.1708612  34.8458457   6.6521895
  28.4664631  35.8245921   5.7373863  17.4334617 105.0908974  14.6843767
  16.9503541 104.3331583  14.3547189  17.4241204 104.9855260  15.6357145
  24.3728876  52.0670462  50.9154987  24.5605731  52.2261667  51.8405342
  24.7741437  52.8065538  50.4590368  60.9870768  22.3422647  28.6648226
  60.2332401  22.5052547  29.2317390  60.8681917  22.9434323  27.9295039
  27.9670548  29.4070053  37.8869271  27.8392220  29.8311496  38.7354493
  28.8177252  28.9744663  37.9611039  47.5169945  59.4205618  19.9820101
  47.2384977  59.9038887  19.2041504  46.8874979  59.6714783  20.6580329
  29.9867225  29.3192482  41.2392092  30.8744693  29.5553398  40.9701395
  29.4231391  29.9380422  40.7747746  48.4854650  22.3125029  17.0535791
  48.4392643  22.2185636  16.1021209  48.4238958  21.4169741  17.3859441
  54.1499710  11.9164813  24.5849919  54.9264050  12.4052739  24.8578739
  53.6298990  12.5497472  24.0902877  84.3319130  26.1718130   7.0263070
  84.9741650  26.6669226   6.5177667  84.4251537  26.5046382   7.9189241
  24.6276708  95.4895369  54.0052700  24.4894405  95.7153997  53.0854273
  25.3128524  94.8213760  53.9874792  65.7556486   8.6485165  56.2313414
  64.9932003   8.0729377  56.1712074  66.5058994   8.0541843  56.2200403
  73.0007076  33.2957482  13.6167395  73.4603500  32.5986433  13.1487608
  72.0728207  33.0958652  13.4930229  44.7485876   6.2005097  41.2165403
  45.2803707   5.5867541  40.7098484  44.1346836   6.5673721  40.5803299
  82.5756073  40.2314472  18.4363294  83.1995010  40.9206390  18.2082808
  82.5358772  40.2511501  19.3925011  49.8331451  24.6329403  51.0070181
  49.8365164  25.5047321  50.6117916  48.9912462  24.5782065  51.4591742
 104.9477366  93.3286599  30.5573177 105.4430274  93.6403397  31.3147974
 104.0351633  93.5222725  30.7716918  13.5053551  33.9592957  30.9753299
  13.1055140  33.5158443  31.7234659  14.4163024  33.6654091  30.9815431
  61.9740868  29.0113688  76.7251253  61.1694860  28.7829733  76.2596273
  62.4529505  29.5721078  76.1148024  47.0708370  24.7021222  75.3675556
  46.6157293  25.2635622  74.7399473  47.1482515  23.8584805  74.9220133
  59.4566153  91.7349493  74.4089810  59.0678023  91.1615097  75.0694529
  60.2481197  91.2753450  74.1287724  94.1566277  44.9375296  43.2134199
  95.0644684  44.6512604  43.3139229  94.2218781  45.8639526  42.9816628
  33.6484146  17.4051178  57.8294659  33.5381579  18.3480072  57.9520798
  33.5765982  17.0389438  58.7109375  64.0621138   7.8413481  52.7066469
  64.8647738   7.3226738  52.7609491  63.9939213   8.0810618  51.7824602
  32.3786783  43.7688255  42.8194857  33.0086493  43.0731630  43.0076885
  31.5251470  43.3732843  42.9962873  57.9659891  25.2501965  36.6957736
  57.9112720  24.3146896  36.8908763  58.4350586  25.2940512  35.8625364
  46.1525297  31.1941290  58.9127970  45.9112978  32.0934439  58.6908245
  47.0018530  31.2741756  59.3469286  87.4355221   1.2768267  73.6012936
  88.2950211   0.8712449  73.7153387  87.2872448   1.2619978  72.6557636
  62.0249510   4.5505422  60.2534199  61.2090492   4.9364653  60.5721569
  62.6611280   5.2643269  60.2983856  41.1161370  96.3217327  28.3986163
  41.9664235  96.2722126  27.9618168  41.2724681  95.9560046  29.2692685
  68.2610226  13.7071085  44.5863199  68.4859848  13.0431449  43.9345741
  67.7909327  14.3784916  44.0918636  92.0555115  67.0912552  30.2200651
  91.5907764  67.2742176  29.4034982  91.5543652  66.3849735  30.6277943
 104.3675423  84.3332100  26.4905882 104.8436737  83.7002850  25.9530592
 103.8098812  83.7971115  27.0543647  56.8049765  58.2011175  47.8485250
  57.4983788  57.7585602  48.3379841  56.8519735  59.1124344  48.1375408
  59.9818039  55.4876280  44.2871523  59.6479082  56.2767506  43.8605070
  59.5190191  54.7686529  43.8568783  40.9962559  84.6651268  65.2439833
  41.5378666  84.3501472  64.5203257  41.3814688  84.2646790  66.0233974
  97.1476650  50.0061655  43.8762331  96.3620186  49.9525690  44.4203997
  97.5204372  49.1250467  43.9063311  74.6523523  92.5021172  38.3438897
  75.1110220  93.3289623  38.4928274  73.7660408  92.6577187  38.6701870
  81.9391346  58.2313824  26.4302778  82.0383549  59.1084576  26.8005824
  82.6321125  58.1691456  25.7728958  62.6148701  58.3821440  29.6574616
  62.5737238  59.3339396  29.7503161  62.3017454  58.2144499  28.7686062
  48.9835882 100.7535839  74.2119265  48.3661509 101.4766312  74.3224382
  48.6100149 100.0387192  74.7273254  92.1767712  24.0503502  29.4127512
  92.0952320  25.0040698  29.4124556  93.0711937  23.8863373  29.1138577
  80.0303841  72.4356794  41.9052076  80.7830524  72.5832844  41.3325500
  79.7614479  73.3128309  42.1781683  70.7824230  52.3308325  25.1794362
  70.2871752  53.0598211  25.5529833  71.4784288  52.1635580  25.8149099
  99.1486931  28.9730883  26.0974002  99.3187332  29.6771049  26.7232418
  99.9119377  28.9766049  25.5197477  81.8809223  63.5318279  20.0790501
  81.0658932  63.0474758  20.2108097  82.5484085  62.9998112  20.5122328
  63.5137224  64.1175604  22.2419214  64.2198420  63.6213827  22.6559758
  63.3193874  64.8204470  22.8619337  76.8985367  52.5329590  34.3024182
  76.2319660  51.8478537  34.2520118  77.6939201  52.1183157  33.9682508
  74.0185881  37.4914765  26.6961980  74.6999693  37.7904391  27.2983408
  73.2960987  38.1053185  26.8282461  75.9259701  84.1171360  41.9325018
  75.0676584  83.7916851  41.6611910  76.5504026  83.5300350  41.5063286
  37.6902342  79.5054770  25.5842113  38.0074334  80.1743126  24.9773479
  37.6395702  79.9530697  26.4287996  73.0256939  70.2827549  54.2509747
  73.8993835  70.4478931  53.8965368  72.5331783  69.9199820  53.5147285
  95.8290768  84.8020363  49.8420954  96.1255836  84.1517448  50.4788303
  94.9334431  84.5388889  49.6303701  84.5160580  72.7763224  75.8042002
  84.1963387  73.6764765  75.8653545  83.7432861  72.2632027  75.5680561
   3.9138023  47.6966858  33.9564180   4.5983688  47.7071381  33.2874680
   3.7874690  46.7689514  34.1553521  79.2603636  51.8774462  46.1907864
  79.1805124  50.9450054  45.9897614  79.0690804  51.9379187  47.1267271
  45.8369064  70.4373121  73.4750223  45.8071613  69.5526457  73.8393211
  46.2717533  70.3333139  72.6286602 106.4896202  90.3376484  34.8034859
 106.5905666  89.4085789  34.5964336 106.7231941  90.7903957  33.9931130
 104.7347927  35.6366014  11.5161300 104.8512077  36.5066361  11.1343968
 105.5539322  35.1796961  11.3251507 103.2501698  88.2870960  63.9329243
 103.5422611  87.4123287  64.1892385 103.2093906  88.2555008  62.9771137
  33.8603258  82.8090572  55.5953074  34.1216278  82.2472668  56.3249207
  33.5761356  83.6235905  56.0100460  91.2629223  77.3530483  41.4358616
  91.6720772  77.6623631  42.2440386  91.8408585  76.6555166  41.1265612
  75.2910757  41.3042831  25.7332993  74.5807076  41.1982822  25.1005459
  75.0547743  40.7252121  26.4579153  36.2127877   4.0739477   5.1032468
  36.4746333   4.6846331   5.7922574  36.7526914   4.3159712   4.3508073
  98.9801311  76.8243790  23.7436581  98.2113838  77.0586634  24.2636299
  98.9783096  77.4492025  23.0185199  76.4711809  62.2323227  54.5763254
  75.6222010  61.9060040  54.2780304  76.4973783  63.1409311  54.2763758
  64.8349762  76.0738277  60.5228806  63.9276600  75.9215260  60.2586651
  65.3485775  75.4927254  59.9618387  59.3756580  79.0226555  24.6420503
  59.1449499  78.4043407  23.9487314  59.9025154  78.5097075  25.2548599
  73.1016254  78.6986637  36.5975285  73.4309578  78.0100298  37.1750736
  73.0112934  79.4642544  37.1649289  60.2873230 102.6953983  54.1623306
  60.3457689 102.3929405  55.0686073  59.9490690 101.9412804  53.6794996
  60.5731249  66.9725943  49.1524029  59.7611809  67.3832560  49.4496155
  60.4007435  66.7323780  48.2420111  42.5351429  84.3171883  78.9554930
  42.8561449  85.0242901  78.3958483  41.6918850  84.0735722  78.5736609
  80.8537197  67.9421139  80.6030178  80.2062988  68.2273340  79.9582577
  80.5362320  68.2958317  81.4338684  64.1987276  74.6088266  10.0871873
  63.6735296  74.7875452   9.3071473  65.0050640  74.2193937   9.7489685
  88.0676174  72.5787640  44.1712475  88.7771893  73.2077932  44.0405941
  87.5254536  72.9683590  44.8571777 104.4973469  70.3876448  33.9547777
 103.8845825  69.9948549  34.5764375 105.0573540  69.6618414  33.6793876
  96.2067318  57.6904154  42.1520281  96.6313267  58.3489704  41.6022539
  96.5128613  56.8534040  41.8028450  78.8056326  95.3383160   3.5000041
  78.1712294  94.8164463   3.0086601  79.5358276  95.4611015   2.8933987
  89.4343090  62.1708775  66.8037748  89.4548798  63.0302143  66.3826466
  89.2176819  62.3569918  67.7173758  77.0190048  75.4362869  54.6294880
  76.9804096  74.6247673  54.1233444  76.6127634  76.0917759  54.0624523
  92.2434425  48.3546972  59.5546627  93.1551075  48.5479832  59.3361855
  92.0604610  48.8980150  60.3211832  17.9961482  44.8924160  30.5798626
  18.9241687  44.9138975  30.3463054  17.8698245  44.0322828  30.9804201
  80.8574963  57.4053764  28.7847090  81.2132931  57.6521111  27.9310346
  81.1917400  58.0716896  29.3851566   9.8560325  48.2743216  31.9185925
  10.0380603  49.1626596  31.6120696   9.8331062  48.3500957  32.8725123
  70.5740309  91.9414806  45.6737041  70.8231974  91.3221359  46.3596773
  70.6206942  92.7988911  46.0966682  79.4479895  68.2357454   7.4232787
  80.2919006  67.8638554   7.1668524  78.8294506  67.8936672   6.7778146
  91.9915771  96.3199329  17.6734245  91.1099052  96.6358852  17.4757838
  92.0806789  95.5194283  17.1562362  73.1545544  66.3744688  50.4991722
  72.8411961  67.1962929  50.8768463  73.2857275  66.5717173  49.5717478
  82.2460365  77.2235775  18.8783491  81.8855190  76.6534662  18.1992054
  81.4878750  77.6967669  19.2211628  79.2344093  44.3891287   8.7430882
  79.7363663  44.9676323   8.1689799  79.8658037  43.7291336   9.0294123
 109.2650032  60.4918003  61.5787840 108.3699799  60.5128193  61.2400818
 109.1609669  60.3783417  62.5235271   0.6714813  62.8939629  58.5584116
   0.4571048  63.8243818  58.6261654   0.5233470  62.5492954  59.4390297
  63.4538174  68.3452415  17.2169888  64.3052626  68.3226442  16.7802286
  63.6532879  68.1836462  18.1391227  78.8592625  53.9412355  28.7813473
  79.4969511  53.2443905  28.9362431  78.1236362  53.5021448  28.3543873
  74.0825319  82.5826645  61.8562174  74.6505928  82.7659321  62.6045179
  73.2330418  82.9465485  62.1056032  98.3319759  72.8097868  30.9919477
  97.4618530  73.1981754  30.9009647  98.1658840  71.8739223  31.1051393
  64.8109150  68.1535149  51.0421944  64.0815067  68.6422825  50.6610060
  64.7324085  68.3022070  51.9845104  66.9161987  98.0229568  37.9183173
  66.9461632  97.1957970  37.4375415  66.4043093  97.8256607  38.7027144
  26.0029498  80.0721359   7.0507735  25.0576488  79.9217272   7.0531088
  26.2398998  80.1215839   7.9768634  99.4804859  82.6261616  42.3485565
  99.5402241  82.2894192  43.2425737 100.0269508  82.0335579  41.8323898
  74.2918348  66.3503408   7.9487479  74.0711784  67.2788048   7.8746217
  73.5516882  65.8954287   7.5469196  90.9869194  74.6484184  74.3475056
  91.2360191  74.9739981  73.4825325  90.0297928  74.6457481  74.3359184
  91.1680794  68.1253719  44.5154762  90.5841637  68.8745975  44.6335173
  90.6050682  67.4360991  44.1631269  85.2106094  74.4814920  45.2719164
  85.8676052  74.1732645  45.8960819  84.4516945  73.9187384  45.4255390
  85.9193230  82.5919819  67.2789860  86.4435101  82.4080086  68.0584812
  85.5901241  81.7361832  67.0042658  86.8687439  66.2313843  46.6022110
  87.2607708  67.0783567  46.8147898  85.9584332  66.3104677  46.8873739
  95.6989956  56.6691875  11.8840122  96.4083099  56.9036865  12.4824393
  95.6269550  57.4184418  11.2926936   5.9185878  52.5756168  47.7979374
   5.6149951  51.7446709  48.1634426   5.9190933  53.1784010  48.5415030
  63.2543182  62.8339720  44.8104906  64.0589190  63.1117344  45.2483225
  62.5547028  63.0835152  45.4142237  37.4347396  12.3625871  87.5573943
  37.7969594  12.0696803  86.7211921  37.0782705  13.2315417  87.3727722
 101.0953236  79.8267221  47.5170851 101.8232632  80.1739979  48.0325699
 101.3860607  78.9550400  47.2489977  65.7189608  78.1529951  52.6938581
  65.6936789  79.1081572  52.6367903  65.9833241  77.9738808  53.5962200
  61.4698744  72.3778534  36.8104506  62.3819065  72.3484468  36.5213704
  61.2214613  71.4591837  36.9132423  93.8340378  59.5255899  34.2085767
  93.0060768  59.7351599  34.6407652  93.8577080  60.1013422  33.4442592
  90.7828999  93.7360287   6.4230037  91.5263939  93.2945728   6.0124558
  90.6099606  93.2273674   7.2152090  94.4598103  55.2632093  50.5466938
  93.8336754  54.5546389  50.6954336  94.1243076  55.7214928  49.7762108
 109.1083717  41.8091583  66.1940050 108.3893871  41.3837099  65.7267904
 109.3935776  42.5099468  65.6076717  72.2644424  68.4846640  48.2458544
  71.3628960  68.5112524  47.9253244  72.5945520  69.3722296  48.1062508
  94.1940403  51.7162514  65.2814484  93.8309860  52.2842884  65.9609795
  94.0647697  52.2034645  64.4677258 101.1606884  32.5460267  38.6257935
 100.2828693  32.7155352  38.9677358 101.6727066  32.2945189  39.3944383
  61.6035080  60.4066706  38.6541152  62.1023417  59.9608612  39.3386960
  60.7350969  60.0057459  38.6909199  92.2654533  66.6692734  17.1509767
  91.5973282  67.3546410  17.1615982  91.8555164  65.9424114  16.6820896
  81.8283653  63.9045477  47.1386051  82.0787716  63.2542944  46.4823246
  81.4233875  63.3937407  47.8395319  75.1195097  99.8638821  43.4355354
  74.3325281  99.9474621  43.9739656  75.1118231 100.6417465  42.8777695
  58.1262207 102.3728085  82.9204941  57.6877642 101.6411972  83.3549309
  57.7726603 103.1523991  83.3488083  80.1664066  89.8466396  66.2386322
  79.8058939  90.5850887  65.7477522  79.5417881  89.1357040  66.0949230
  63.1900644  60.3733110  50.7131290  62.8272629  61.2558556  50.7887554
  64.0790129  60.5071449  50.3843498  48.5168409  97.1070957  57.1905088
  47.9824924  97.6495552  57.7705431  49.3710327  97.0660877  57.6205206
  80.2635098  56.0996819  59.9110794  80.5110931  55.9391832  60.8216667
  79.8916006  56.9816637  59.9158812  89.4973755  65.9793949  21.0599828
  89.8469830  65.1873636  20.6516981  90.0588608  66.6836882  20.7360435
  25.3796474  52.5357533  56.8345547  24.6882907  51.8741274  56.8120623
  25.4957954  52.7292871  57.7647638  44.7402191  81.4215183  42.0807695
  44.6542168  80.4994392  41.8387127  44.0509129  81.8643761  41.5858221
  80.1881695  62.1596289  40.6196690  80.5649757  62.9139996  41.0726213
  80.9037304  61.8215990  40.0812101  84.0605927  21.0100198  59.5749712
  84.5475769  21.7944026  59.3223476  84.4192123  20.7702923  60.4294634
  98.3889484  96.4346695   2.0225671  97.7739429  95.8003139   2.3907948
  99.2528725  96.0871315   2.2441444  88.5659313  44.0761375  29.6503425
  87.9384804  43.9452362  30.3612661  88.1263256  44.6791887  29.0509176
  75.9011745  70.0101852  69.6778631  75.5844259  70.2183962  68.7989140
  75.2119350  69.4655418  70.0580597 104.1317654  56.1795044  37.8349876
 103.5578537  56.9198322  38.0318713 103.9389992  55.9629965  36.9227386
  85.1153660  76.9349003  17.9669583  84.3648624  77.5113583  18.1107616
  84.8434258  76.3620138  17.2499669 102.2434330  58.9876127  45.4646015
 101.8291187  58.5370016  46.2004900 101.7602921  58.6849308  44.6957064
 106.6390705  76.6276550  31.2575531 105.9859848  76.2461710  30.6708789
 106.5029621  77.5723886  31.1855459  97.7802849  59.1444302  58.8452673
  97.5396633  59.8435307  59.4532061  97.2932816  58.3803988  59.1540051
  87.1607208  61.0084248  44.4053316  87.7050591  60.9061766  45.1860189
  87.2753716  60.1888037  43.9243841  96.1460876  87.9013920  61.1004210
  95.5593109  88.0527306  61.8413782  96.0770416  88.6976433  60.5736923
  68.6612892  90.1225758  36.7860222  68.5772276  89.5306015  37.5335002
  68.6908484  89.5437622  36.0242295  82.4388313  64.8888254  28.2648182
  82.4418736  64.5866919  29.1730809  83.0581379  64.3114948  27.8182864
   1.0706035  64.8846817  61.0570478   1.2263576  64.0108919  61.4154625
   1.7174713  65.4405832  61.4915228   8.5895149  65.2993679  56.1713171
   7.7339450  65.4822159  55.7829905   9.0368930  64.7578526  55.5210543
  85.8482075  96.6524315  40.5642128  86.6410542  96.6791916  41.0998535
  85.2193642  97.1951199  41.0399008  97.3607159  78.8131094  54.9141407
  96.9481277  79.6756268  54.9595976  96.7548370  78.2331657  55.3754473
  32.3389220  76.2727642  45.3657055  32.4163246  75.3250027  45.4752207
  32.0198655  76.5863848  46.2119150  82.1116352  74.5748138  48.7108135
  82.9384232  74.8943853  49.0721130  81.6093254  75.3679609  48.5241985
  94.1192818  96.6309643  56.0695362  95.0763035  96.6126442  56.0719728
  93.8666821  95.8784389  55.5346107  91.1368275  55.1790476  26.0240507
  90.8618736  54.8051357  25.1868963  91.1386395  54.4370270  26.6287279
  54.4734478  67.5325918  37.8361797  55.3271198  67.9653454  37.8220057
  54.0182590  67.9251575  38.5811162 102.9925728  57.9468918  23.5705233
 102.3434925  57.2434568  23.5598516 102.5996876  58.6433172  23.0443406
  97.6718140  40.3989363  27.8894210  97.7463245  41.1974382  28.4119892
  98.0641937  39.7177792  28.4355879  20.5233279  95.4962694  66.0016087
  20.8541098  94.6183884  66.1917165  19.8030081  95.3530609  65.3877143
  70.1479530  51.8757296  52.7544069  70.7207680  51.1226082  52.6097584
  70.4355717  52.5226355  52.1101856  81.7496777  66.7767620  30.8897638
  81.6727066  65.8457899  31.0985756  82.6877213  66.9163895  30.7601476
  20.7892224  28.8676175   8.0319655  20.4248425  29.5756825   7.5008345
  21.1218544  29.3035325   8.8165438  16.5589610  43.2131243  14.4588840
  16.5468398  44.1552925  14.6274245  16.8106166  42.8232622  15.2960873
  89.5439053  70.5230856  31.7578411  88.6327839  70.5172729  32.0511889
  89.9801731  69.8816395  32.3185968  70.3782034  70.6551456   5.1850557
  69.9709082  69.8061323   5.0132304  71.2478161  70.5878019   4.7907546
  79.6794891  34.3161035  13.8130510  79.7301245  33.4247613  13.4678292
  79.5466375  34.2013264  14.7540128  54.6362205   0.4704209  88.2273508
  54.8160739   0.9797259  87.4371008  53.6907954   0.5504533  88.3538688
  83.9546967  52.4038553  37.8701401  83.8786221  53.2975388  38.2044768
  83.1235027  51.9897461  38.1022143  77.9826403  54.8216200  45.9455633
  77.3655415  54.6200132  45.2421665  77.5082016  54.6079254  46.7489815
  21.4593502   0.9432801  69.0623808  22.1124932   0.5906114  68.4580088
  21.9253727   1.0316190  69.8937941  55.2535105  68.8208580  27.5099182
  55.4528093  67.8851366  27.4792671  55.3555918  69.1172361  26.6055036
  90.6407928  28.1036186  38.2510066  90.4447365  27.9317546  37.3299956
  91.5956020  28.0623055  38.3043933   8.2707874  52.9200029  24.0286183
   7.5597183  52.4167919  23.6318874   8.9989082  52.8316069  23.4135890
  85.6240940  72.4955320  52.9099941  85.9239578  73.1925583  52.3264933
  85.9425831  72.7536869  53.7749481  61.0738134  77.3453093  10.5900657
  60.2534008  77.8381586  10.6060374  60.9653473  76.7228842   9.8710036
  68.1019545  69.0848923  48.9562845  67.6462555  68.4041500  48.4611511
  68.5359287  68.6137962  49.6675968 105.2179527  65.2145958  31.7749977
 104.6038914  64.9151039  32.4454188 105.8183098  65.7954216  32.2423840
  79.2844772  43.6495638   5.2189535  80.1865101  43.3384800   5.1427948
  79.3509483  44.6005106   5.1322627  71.7686892  62.5417662  57.2997808
  71.7774105  61.7292404  57.8057051  71.8141890  63.2346487  57.9586220
   2.5168511  14.9848565  83.7016964   2.5751969  14.5954999  84.5741844
   2.3530766  15.9138020  83.8644409  74.1819429  61.1776590  56.6981220
  73.3091974  61.1516809  57.0903826  74.0309381  61.0154152  55.7669401
  58.2078409  53.8261509  43.0683517  57.6405764  53.3997726  43.7107277
  57.6416397  53.9767361  42.3114061  86.5242290  60.8476067  56.6325092
  85.6109810  60.5671501  56.5727520  86.5254116  61.7367315  56.2779856
  90.0437164  42.9050541  13.8766408  89.4705486  42.1470881  13.7617600
  90.5476475  42.7068281  14.6659410  90.2908802  30.5023432   5.6932580
  89.4416714  30.5638957   5.2558935  90.1317501  30.8413959   6.5741396
  85.3076553  64.3117237  24.0611243  86.0864735  64.6635151  23.6299515
  84.5780087  64.7842360  23.6604047  92.5190449  51.8680048  22.7379012
  91.8367004  52.2378969  23.2980967  93.2391071  51.6697836  23.3366013
  75.7884359  87.9636955  48.8593149  76.0862350  87.2305870  48.3207083
  76.5716505  88.4980583  48.9906740  67.5642014  83.2282352   2.5833005
  66.8968725  83.1584930   1.9006264  67.0964479  83.5808277   3.3403462
 110.3607750  49.3265438  44.7642279 110.8577442  48.5361147  44.9751091
 110.4288483  49.4055367  43.8127232  98.2782841  66.6103268  46.1976576
  97.9463959  66.4961910  45.3071213  99.1029072  67.0836163  46.0871124
  89.8725891 101.4618492  79.5236635  90.1900101 101.4541626  80.4266644
  90.6136417 101.7863655  79.0120411  58.2717848  87.9952812  42.2641563
  58.1929016  87.3815536  42.9944658  58.5889149  87.4613285  41.5357685
  99.0081982  16.9974431  74.6588659  99.6285825  17.3713597  74.0331316
  98.1473117  17.2253236  74.3078995  86.6764832  87.0246983  58.4456444
  86.1262798  87.6463413  58.9221621  87.5714684  87.2618389  58.6885548
 101.6350842  80.2084255  59.1999197 101.0005283  80.8715820  59.4715738
 101.6154671  80.2358055  58.2433128  93.2284641  45.6421232  55.4714060
  93.9634705  45.0340843  55.3921461  93.1801414  45.8388186  56.4069319
  74.7990990  72.1000051  13.8776803  73.9490986  72.5360870  13.8179600
  74.7536945  71.5971422  14.6908832  18.4870239   5.9867295  79.8737478
  18.5634323   5.1721295  79.3769312  19.3856426   6.1981782  80.1267147
  96.4955521  96.9765091  57.6926088  96.6563797  97.8799629  57.9648924
  97.0887470  96.8397713  56.9539213  56.5607357  71.1452675  40.7082796
  56.7744303  72.0707226  40.8270359  56.5222120  71.0282421  39.7590399
  98.9268875  57.9206324  62.1588373  98.1984138  57.3023462  62.2160864
  98.7503910  58.5630274  62.8461552  25.6758972   8.3349809  24.7522759
  25.3565975   7.7006730  24.1104555  25.2032181   8.1205663  25.5565357
  87.4518490  75.4498911  41.9924259  87.8074837  74.9405622  41.2641764
  88.2183075  75.8550262  42.3981810  62.8295755  59.1766834  40.9273481
  63.5852814  58.6605930  41.2080431  62.4144936  59.4567919  41.7431164
 103.3959961  54.5896482  35.6282544 104.3246937  54.4217682  35.4683948
 103.0316257  53.7318277  35.8464575 110.5695729   0.2721032  22.9350781
 110.7474189   0.1711759  23.8701820 111.4334445   0.3804120  22.5373006
  14.9393506  24.3395778  87.1739543  15.0099273  24.1600820  88.1115217
  14.0144916  24.1979571  86.9719324 105.8956718  86.0160542  55.2755880
 105.7473373  86.7691994  55.8474350 105.2389717  86.1065960  54.5850945
  29.2878529   4.1861638  51.5623188  28.5081002   3.8479718  51.1220455
  29.9310013   4.2934808  50.8615494 103.9623928  29.2203856  11.1502111
 103.9387035  30.0992537  10.7717133 103.5991096  29.3282866  12.0291984
  97.6719475  76.6820288  41.8670797  98.1159306  75.8444071  41.9993830
  98.3319283  77.3400450  42.0854187  26.1423012   0.8526715  34.2599916
  26.6728684   0.0572213  34.3045783  25.9603115   1.0707387  35.1740813
  56.8449926  73.9784336  38.7004757  56.5461826  73.9451027  39.6092296
  56.0859203  74.2941189  38.2101822   7.4092952  68.6158323  40.8960533
   8.3498470  68.7933397  40.9054661   7.1367637  68.7199879  41.8077040
  93.8383102  47.8250551   3.6227354  94.5020866  47.7104330   4.3028086
  93.0280972  47.9915380   4.1044748 109.5066738  80.7865238  12.8606546
 108.6505222  80.9570122  12.4680138 109.9425030  80.2020359  12.2404468
  74.0978713  27.2689982  85.8848155  75.0176234  27.3414536  85.6297944
  74.0655608  26.4952823  86.4474452  85.9482193  70.0796366  51.6993904
  86.2059879  70.9147024  52.0898438  85.4608822  70.3234720  50.9124470
  82.8567505  74.5959044  55.5908775  83.2868004  75.1216125  54.9164057
  83.5687828  74.3142366  56.1652517 104.7328758  94.6283913  64.3031931
 104.0788460  94.7557068  64.9904108 104.6127796  95.3754234  63.7168932
  79.1150904  57.5442791  38.3461666  80.0212383  57.8204632  38.2088876
  78.7404776  58.2225800  38.9081287  13.9315502  73.7925959  37.7211189
  14.7205154  73.4579754  37.2947383  14.2405979  74.5223427  38.2579589
  68.3249569  91.6744995  31.4538074  69.0448999  91.3053989  31.9653535
  68.4373522  91.3025093  30.5790401  97.1077824  86.1885452  33.4282589
  96.6777229  86.6905212  32.7359438  97.2913647  85.3382492  33.0288458
  95.3025436  49.0124369  69.3321323  94.7540188  48.3759642  69.7906637
  94.7951412  49.8238564  69.3514585   4.4767276  69.7795105  66.8323803
   4.3323127  69.8589373  65.8894777   5.4020683  69.5487261  66.9143581
  83.2269192 101.0993767  58.0637646  82.3371792 101.2653255  58.3753109
  83.2104206 101.3588810  57.1425581  90.4998684  51.6361189  65.1802540
  91.1732101  51.2811852  65.7606506  90.2540779  52.4701834  65.5804539
 108.3755016  91.4945316  36.8274879 108.9197636  92.1078968  36.3337350
 107.6296139  91.3204670  36.2533879  36.0878082  24.5624932  29.8734212
  35.4360768  24.0716466  30.3739715  36.4153191  23.9362916  29.2277837
  79.7288132  63.7626457  58.9595413  79.5779753  64.6152925  58.5515404
  80.6777096  63.7178993  59.0771389  11.4412781   3.0752477  63.4226561
  11.8246647   2.2790917  63.7906027  12.1081539   3.4063157  62.8210688
 106.1538029  74.2211151  27.5082946 106.9045830  73.9533234  28.0382538
 106.4697742  74.9737740  27.0083952 104.4444561  49.2337465  46.7522812
 105.1650906  48.6069345  46.8156624 104.1205692  49.3178082  47.6490879
   5.0537630   1.4503392  75.1169491   5.9527966   1.5897950  75.4144716
   4.5153090   1.9222363  75.7522583  96.5971947  74.3851233  19.9699545
  96.6819191  74.4772434  20.9189367  95.9492493  73.6902237  19.8536730
  83.1440926  82.0182991  55.9427643  82.4448490  81.9235229  55.2959967
  83.8219547  82.5207138  55.4907465 102.0435619  64.6345377  46.3640308
 102.0058823  64.9661446  45.4668999 101.9785786  63.6840868  46.2709951
  53.4377623  71.3518238  80.1435852  52.7828979  72.0140219  79.9224949
  53.7654591  71.0471678  79.2973948  96.3711834  52.6672459  52.7677870
  96.3141918  53.4536934  53.3104467  96.5211487  52.9977608  51.8820620
  66.1597633  76.5904570  38.5094833  65.5951738  76.6574860  37.7394319
  66.3296413  75.6529140  38.6010432  44.4154549  78.9435196  56.5541363
  45.1025009  79.3358278  57.0929289  43.5987186  79.2647362  56.9362211
  84.7350979  55.3623724  28.3774757  84.4458961  54.5152855  28.0383062
  84.0355682  55.6339073  28.9717460  95.2616119  87.4673271  31.4482665
  94.6545887  86.8128967  31.7939091  94.7355175  88.2628822  31.3673186
  69.8830080  90.1646805  16.4436710  69.6233225  91.0682392  16.6235971
  69.3986416  89.6441364  17.0844913  86.4519310  78.8629436  41.7428780
  86.6578388  78.1900215  42.3917246  85.6038666  78.5996056  41.3855648
  83.3205986  65.0939655  44.4913912  83.3419228  64.4891119  45.2329636
  82.6037312  64.7753143  43.9429474  83.7698269 100.5485630  67.6244783
  84.2796803 101.3243580  67.3911858  82.9475117 100.6492996  67.1450281
  99.8652510   0.1822766  88.6478901 100.7359938   0.1610383  88.2509041
  99.9566512   0.7746705  89.3941784  28.2174202   4.5709618  63.2265425
  29.0260884   4.2125234  62.8607655  28.3288666   4.4949635  64.1741896
  18.9724533  76.8633127  47.3320532  19.8067275  77.2259283  47.6299334
  19.0578643  75.9201574  47.4712992  87.5678921  86.2085247  37.8886104
  87.3600960  85.4498482  37.3432040  88.4403610  86.4780807  37.6016045
  76.9051838  37.2429442  18.9867485  76.9152784  38.1966233  19.0681314
  76.9300985  36.9252610  19.8893499  84.7102070  61.4406538  35.0506210
  84.7711658  61.1330271  34.1462541  84.7007847  60.6403875  35.5757093
 111.2416172  90.2595806  15.5742538 111.3055992  90.1155281  14.6301198
 110.3914928  89.8917770  15.8155894  22.3687927  78.9016485  63.6515570
  21.4307109  78.8573980  63.8366842  22.4290172  79.4023895  62.8380108
  75.9045935  84.3124390  33.2031178  76.8169260  84.0228558  33.1990385
  75.9222651  85.1658916  32.7700448  94.1142464  54.2794371  60.6272888
  94.6628380  53.7718773  60.0292492  94.5389175  54.1854668  61.4799643
  59.6233130  87.8182983  12.5375462  59.4139481  87.2425842  13.2730401
  60.0872660  88.5552979  12.9347992  84.8213863  48.2681084  64.3272877
  84.9824524  47.5126457  64.8925877  84.9243546  49.0250874  64.9040127
  89.5223904  95.0061893  45.5466557  88.7484074  95.5364990  45.7362652
  89.3776989  94.1909695  46.0269833  75.6245375  60.7169294  30.9531021
  76.0411739  61.2306976  31.6449714  76.2741232  60.0521994  30.7241750
 107.3361306  11.5707597  47.9014206 107.1566920  11.6544827  48.8379192
 108.2907872  11.5977391  47.8371239  93.2629108  68.0303335  74.1677475
  93.2220554  67.4199200  73.4315729  92.3819447  68.4009123  74.2207861
 103.8372612  59.4189739  36.5915275 104.0625000  60.2807140  36.2409496
 103.9309120  59.5140600  37.5393772  68.3872986  72.2164392  26.6662073
  68.9828014  72.9636955  26.6094732  67.6470947  72.5385714  27.1805620
  60.3526735  90.7381153  36.4803958  60.8679724  90.7041550  35.6744504
  61.0046530  90.7809448  37.1799111 105.1465607  74.2832565  22.7971339
 105.5927658  74.3951750  23.6365438 104.6323586  75.0835562  22.6906443
  93.4372234  62.0600414  20.5416560  92.5897598  61.7821312  20.8892155
  93.2594490  62.2849369  19.6283913  52.0161343  76.0566378  71.4150953
  52.7922010  76.5461636  71.1424828  51.6334486  75.7394409  70.5970669
  28.0744263   2.2648057  32.8673816  27.3238465   1.7026242  33.0592561
  28.6684128   1.7078313  32.3642039  75.6917953  76.6269159  49.9500322
  75.3808308  75.7352924  49.7933865  75.4968452  76.7899036  50.8728838
  66.1469221  82.3887825  65.1395035  66.8786287  82.5743580  65.7280588
  65.4466581  82.0841408  65.7166100 101.7286587  91.5162277  54.6467876
 102.5331974  91.6877747  54.1573858 101.9988441  90.9307098  55.3541756
  62.0957279  76.2046337  13.6914814  62.5815344  75.8184671  14.4202518
  62.7726936  76.5210438  13.0932879  87.3007965  73.4532547  23.8489723
  86.4725590  73.0620813  24.1268730  87.9673195  72.9856968  24.3523312
  16.1565105  71.3232374  41.4150620  17.0548812  70.9931374  41.4287996
  15.7434265  70.8631229  40.6843853  72.8286934  81.0065842  75.1340246
  72.6706076  81.1204910  76.0711861  71.9821310  80.7345963  74.7796488
  63.7915612  78.3609569  11.3540956  64.3184568  77.5623310  11.3824006
  62.9332162  78.0707920  11.0454198  79.5280409 104.4527912  53.6559916
  80.2565289 104.1445827  53.1169605  79.0977859 105.1183987  53.1192541
  29.6739665  90.1721096  26.5031600  29.7148601  91.1265278  26.5635061
  29.1485301  89.9066925  27.2579432 100.2248287  75.0394869  18.5472786
  99.6087265  75.7638597  18.4380436  99.8789597  74.5404100  19.2872310
 102.5779724  94.5986748  36.0498834 102.1614170  93.7742996  35.7986331
 102.3885822  94.6878052  36.9839191  73.3447456  65.3740740  45.5082226
  73.5323000  65.9632301  44.7775030  73.0204296  64.5744133  45.0939846
   0.6639663  98.1636620  44.0133190   1.5843383  98.3288383  43.8087082
   0.6004898  97.2108364  44.0790749  86.7322922  81.1937904  52.0922518
  87.1160221  82.0478439  52.2911835  85.8274078  81.2609291  52.3970604
  27.0461265  94.6566868  56.5124941  26.7181770  94.0734482  55.8280087
  27.9519645  94.3794155  56.6496801  70.3247261 100.3163338  60.6153393
  69.8762274  99.6633720  61.1526632  70.2458191 101.1306000  61.1123085
  25.7345005   0.6321343  19.0489388  25.1086994   0.7820901  19.7575450
  25.1967045   0.3437051  18.3114958  63.3486843  46.2675905   2.3930551
  63.5365963  47.1600819   2.6835343  62.3949909  46.1976576   2.4356130
  17.4630729  61.2745905  44.7544909  16.8205921  61.8946028  45.0994921
  18.1203071  61.2008333  45.4464722  75.2733517  76.8650913  52.6031542
  75.1582527  77.6573324  53.1278849  74.6079922  76.2608957  52.9325151
  81.5562916  51.5011692  63.2609940  81.9712543  50.6885719  62.9716396
  82.0765972  52.1939182  62.8540421  55.5734730  93.5780334  47.5804758
  55.6105471  94.1319847  46.8007326  56.4836359  93.3286381  47.7405930
  73.6024094  90.2923107  31.9017267  72.8120232  89.7545242  31.8536186
  74.1896248  89.9141312  31.2472105   0.0953666  71.4406300  66.7484522
   0.6833831  70.7457638  67.0444822   0.4196826  71.6745090  65.8787680
  77.2901773  88.9282703  38.0167699  77.5125647  88.3543968  37.2836637
  76.4800644  89.3601036  37.7457166  80.0793557   3.3100709  50.7101011
  79.1604667   3.0751141  50.8392286  80.0643687   4.2523774  50.5425787
  68.0114222  85.7916737  42.6071501  67.5178909  85.4828167  41.8473721
  67.3991966  85.7126617  43.3387041   4.9533645  81.0514736  30.7641006
   5.6811801  80.4342365  30.8385754   4.7858898  81.1119461  29.8236060
 105.1652145  55.2117491  26.4561820 104.4135666  55.0492954  27.0261478
 105.9238338  54.9589539  26.9823265  94.8831940  88.1488609  63.7850761
  95.6628895  88.6993408  63.7124205  95.1329708  87.4598789  64.4008303
 107.4182034  59.8090935  23.2972097 106.8784237  59.1417456  22.8735089
 107.4999332  60.5023527  22.6422715  97.7277756  49.0634251  31.0374832
  98.2393074  48.6771727  31.7483783  98.3720684  49.2570400  30.3565764
 101.2935829  79.2629385  22.9043698 101.2597370  79.6762609  23.7670684
 101.9751644  78.5957289  22.9850245  68.9764452  63.2104063  11.8978465
  69.5132971  63.7945366  11.3623023  68.5516310  63.7889576  12.5311244
 103.0788517  87.7946281  54.7692919 102.6504421  87.4998283  55.5729008
 102.3612022  88.0947971  54.2115307  90.1446438  53.2443857  46.1292887
  90.1646709  52.4795771  46.7045259  90.1015377  53.9917088  46.7258453
 109.1512299  77.0280123  69.3495226 109.5517159  77.7355528  69.8547316
 108.8253498  76.4167547  70.0101233  90.9760284 101.6170692  37.9871559
  91.4337444 102.0062542  38.7323189  90.0661182 101.8945312  38.0934906
  36.6175771  87.9868317  49.3648243  36.5692019  88.7730503  49.9086571
  37.5011921  87.6488400  49.5104885 105.3648376  87.9352760  57.4658537
 105.9480190  88.4976959  56.9561291 104.7842503  88.5438156  57.9228210
  65.5126333  44.8673439  17.6055431  64.5585203  44.8938799  17.5334871
  65.7636452  44.0556717  17.1646178  54.2834854  91.1529160  55.2591944
  54.9755526  91.7496300  55.5441856  54.6855354  90.6357574  54.5612431
  80.4324341 103.2217026  29.2044711  80.8712864 102.8434658  28.4425163
  81.0433292 103.8834286  29.5287251  60.6873083  76.8931723  25.6759405
  60.6373596  75.9372997  25.6691146  61.5750742  77.0887661  25.3761935
  78.3525515  97.0438576  28.6231661  77.8402281  97.8367996  28.4650564
  77.7699804  96.4797306  29.1316962  74.1838121  68.7826395  79.2630053
  74.3642807  69.3877220  79.9824095  74.5785189  69.1977882  78.4961367
  13.2654563 100.5853653  67.6540422  13.2741157 100.7835484  68.5904598
  12.9484550 101.3891029  67.2420406 108.6727428  70.9030819  58.4334612
 108.7534237  71.0043049  57.4850559 108.7228394  71.7959642  58.7747526
  61.1219101   2.0830068  75.3550577  60.2460961   1.9572648  75.7202578
  61.1081867   1.6007337  74.5283413  84.8586750  97.8810978  29.6366429
  85.4909706  97.6381207  30.3129530  84.0514755  97.4344063  29.8918390
  85.0413799  63.8924026   6.9642341  85.0321579  63.5868740   7.8713167
  85.2314568  63.1082296   6.4492899  82.6533890  80.7252884  67.5111294
  82.1720219  81.3092232  68.0972528  82.5150204  81.0942268  66.6387892
  96.0417652  62.1624517  39.1865945  95.7719517  62.7859402  38.5122848
  95.3401279  61.5116215  39.2055607  88.2626629  89.8224926  46.1857128
  88.9809608  89.8905468  45.5567026  88.3378601  88.9365387  46.5402031
  91.2594414  89.2665291  31.7892933  92.1621704  89.5502853  31.6450882
  90.7319260  90.0441647  31.6069794  79.2249198   0.6929990  85.8811179
  78.5536761   0.0608321  85.6241397  79.9418159   0.1567527  86.2198282
  77.6351595  70.3916693  28.4056163  77.0567417  69.7562122  27.9838848
  78.3320141  69.8615026  28.7923288  77.3778963  52.1786785  41.0866022
  77.6653290  52.2154713  41.9988871  77.3604727  51.2445450  40.8784628
  85.1062489  63.1905842  64.6015978  85.6257248  63.9381027  64.8975611
  84.6061325  62.9257822  65.3736019  99.3739319  88.7790871  76.2482357
  98.4171200  88.7664986  76.2240267  99.6298981  87.8736305  76.0726023
 103.8175678  92.2296143  52.3910666 103.2924175  91.6086578  51.8862343
 104.0856743  92.8908253  51.7529869  73.5215378  66.6886091  77.1258497
  72.8927326  66.1302328  77.5830698  73.7033796  66.2250376  76.3083744
  88.3012867  75.9756422  24.4994879  88.4080410  75.0526714  24.2693520
  87.4390316  76.2099123  24.1561675   7.8586189 103.6282158  22.8197718
   8.2101528 104.5109081  22.9360461   8.1222335 103.3802319  21.9336295
  56.0739517  79.9881268  43.9454746  56.5597343  80.4109955  44.6535873
  56.0545063  80.6406212  43.2453966   3.1449405  86.2835312  64.2741346
   3.2404701  85.6296539  64.9666262   3.2200424  85.7840347  63.4610558
  19.8233601   4.4712075  10.7312191  20.1838299   4.3327626  11.6070759
  19.4236943   5.3400525  10.7712913  23.6981198  11.4230069  49.4780874
  23.8710591  12.1461972  48.8753319  23.8603493  11.7911157  50.3466511
  82.8925991  77.9562330  31.4134598  83.0864429  78.8862944  31.2966943
  83.3489990  77.7158356  32.2197723  10.8061882  10.4958829  17.9941785
  11.0256573   9.6993073  17.5109148  11.0150429  11.2080106  17.3896229
  79.6189308  94.4707680  60.7068586  78.8613987  94.7520828  61.2199306
  80.2913570  95.1259041  60.8936357 104.4691563  67.0341492  53.4197521
 103.8788700  66.2808990  53.4400558 104.1214561  67.6288986  54.0842915
  19.4720546  78.9240217  78.7606716  19.7115508  78.0183506  78.9572334
  19.3729297  78.9443684  77.8088379  94.0663719  55.7984304  14.0096152
  94.8565865  56.2893295  13.7841833  93.6525440  56.3150740  14.7010338
 101.0381985 104.0701866  50.1142216 101.6419888 103.4699821  49.6766901
 100.8224678 103.6341858  50.9385967  60.5117559  69.9851942  37.7671385
  60.1630449  69.1660690  37.4154758  60.1235151  70.0559711  38.6391997
  80.1242733  66.9313049  49.8873568  81.0592461  67.1067953  49.7812319
  79.9073982  66.3430119  49.1640902  23.4715263  66.9273567  24.3274331
  23.4511653  67.4743938  25.1126528  24.0159408  66.1787176  24.5711350
 104.2062569  75.8388519  15.0527549 104.3213177  75.2285719  15.7811475
 103.7492085  75.3295374  14.3834734  21.0314742  81.7479610  58.0370855
  21.0871402  81.7967224  58.9914179  20.4158012  82.4405766  57.7973795
  97.5127983  64.5714712  57.2262812  96.9779873  64.4231129  56.4464045
  96.9201660  64.4026756  57.9587650 106.6080475  64.4663143  23.6225390
 107.5090885  64.7645998  23.4985018 106.1330318  65.2488804  23.9021540
  94.0208244 103.1138897  36.4771557  94.7659683 102.5250149  36.5963817
  93.4092522 102.6189613  35.9319472  95.2149582  86.4493847  35.6591797
  95.4212475  87.2589588  36.1263824  95.9020805  86.3731670  34.9971533
  85.5581284  89.8460102  70.4590940  85.6440163  90.7864952  70.3030968
  86.4491653  89.5523739  70.6489992 104.4303799  50.0293684  43.8999557
 103.8880157  49.3616295  43.4802055 104.2911053  49.8964214  44.8375893
  17.5972835  99.8614216  31.4690757  17.6677028 100.2862453  32.3239422
  16.7418090 100.1329708  31.1364174   5.2395145  52.9225016  39.8729491
   5.0400440  52.0059395  39.6822762   6.0837928  53.0770445  39.4492412
  86.7205238  52.8091431  29.9338603  87.3043442  53.2236433  29.2985821
  86.0681725  52.3560858  29.3996263  27.3646446   2.9687699   5.8085340
  26.8997284   3.7498864   5.5086255  27.3951241   2.3984727   5.0403762
   2.7303878  63.9760828  86.4645004   3.3471671  64.6326590  86.7881012
   3.2195465  63.1537724  86.4921284  85.4956913  70.9303808  18.4949112
  84.5428944  70.8900499  18.5772383  85.7871246  70.0305986  18.6421990
  92.6567459  57.2032547  52.4387836  92.2161007  58.0526686  52.4622774
  91.9988537  56.6016960  52.0901680 101.2187767  43.0703640  23.2904410
 102.1684456  42.9995823  23.1937480 101.0689735  43.0105448  24.2339516
  75.0621462  83.4422779  51.5043020  74.3426991  82.8307056  51.3474369
  75.8464766  82.9629707  51.2372494 102.9441166  85.4578686  57.2617912
 103.5246658  86.1145782  57.6464224 102.7729321  84.8425293  57.9747295
  84.9793243  79.3258476  20.8422065  85.5985832  79.4395494  21.5631962
  85.0022888  80.1598358  20.3729844  88.5226345  84.7681236  50.3781223
  89.3745041  84.6059322  50.7834005  88.1652451  85.5128860  50.8616829
  89.4405937  90.8385468  35.7769871  89.4431973  91.4500427  35.0405788
  89.9468231  91.2815380  36.4579558   4.7161762  87.0263767  34.8507619
   3.9811317  86.4173889  34.7794867   4.3323604  87.8862381  34.6788359
  46.9695234  50.6313276  16.3322890  46.6691113  50.1704741  17.1156144
  46.7337847  51.5459967  16.4873278  95.6589031  59.3690586  44.8191643
  95.6975842  58.6763763  44.1596746  96.4072227  59.9316406  44.6198034
  73.6472893  65.6717730  55.4599285  73.5924006  64.8509407  54.9705935
  73.5779476  66.3538980  54.7920036  78.1278992  67.3591471  40.1250362
  77.5591564  66.7116690  40.5416155  78.3087635  66.9964409  39.2578793
  24.0708448  48.4093655   1.5963670  24.5232011  47.7253521   1.1026784
  24.1385175  48.1302631   2.5094625   2.7177802  54.9680519  42.8521633
   2.3613159  54.9501991  41.9639874   3.2637111  54.1837168  42.9069519
  81.6347313  63.9865923  33.4354997  82.0059395  63.1205940  33.6042738
  82.3916626  64.5362329  33.2325649   3.4688083  56.0428047  65.1774073
   2.9376308  56.5219975  65.8133698   3.6873523  55.2216959  65.6181431
  69.5717478  59.6115541  50.3798246  69.6411419  58.7126589  50.7013893
  69.6135902  60.1520443  51.1687183  47.7481557  10.2602518   1.6708967
  47.0620919  10.6601370   1.1364290  47.3942853   9.4047392   1.9139978
  58.0234814  71.3478231  10.7298017  57.5453568  72.0608091  10.3063893
  58.9347315  71.4829540  10.4698110  75.9592724  75.1996517  57.2948074
  75.1810217  74.6690702  57.1243858  76.3372231  75.3553724  56.4292812
 102.3290348  65.5388927  54.2474604 102.8785610  64.8213387  54.5627022
 101.5829372  65.5504084  54.8469973  73.3702946  38.2584596  21.3756967
  74.0151739  37.6585388  21.7504716  73.3392954  38.0273366  20.4473376
  67.9028893  98.5923100  33.3918428  67.3041630  98.3633423  34.1027117
  67.3987246  99.1866398  32.8361344  19.4083206  80.0193501  16.2259400
  19.1275588  79.3745279  16.8752575  19.9317066  79.5176554  15.6009555
  57.6946306  92.1893311  45.1520824  57.9312563  92.4711132  46.0357332
  58.5096645  92.2527790  44.6541548  88.5051346  94.4702435  48.9984083
  88.7129974  93.7295055  48.4289026  89.3569374  94.7909546  49.2947292
  80.9801388  77.5215340  53.7537956  81.2644768  77.6936626  52.8561592
  80.6318283  76.6303301  53.7279749 105.8351326  79.9754667  31.2565041
 105.6818199  80.7717705  30.7479548 105.0137520  79.4882250  31.1919951
  63.0604740  30.7975778  22.3666954  62.6958271  31.4775094  22.9332256
  62.7501007  29.9762734  22.7479529 106.1101913  75.0878239  64.0022469
 106.1503124  74.1424751  63.8575459 106.9058418  75.4268837  63.5921192
  52.5701618  86.7092896  55.9187412  52.9613876  87.3800659  56.4784193
  51.6523409  86.6776371  56.1886215   8.0876728   2.8571042  59.3146515
   7.9372689   1.9601640  59.0161371   7.6382920   3.4028348  58.6693096
  63.9771414  87.9848480  72.0492315  64.0776777  88.7226963  71.4478064
  63.0757761  88.0534935  72.3639679  77.2779703  85.4396152  51.0178709
  76.4921522  85.1023006  50.5878210  77.1267366  86.3821793  51.0880136
  79.4024277  57.7722502  64.9386454  79.6458101  56.8820953  65.1928377
  78.7844324  57.6548100  64.2171717  96.2636471  41.4590025   0.4150520
  95.7190609  40.6764364   0.5001988  96.2461853  41.8587303   1.2846185
  84.9571705  68.3250332  67.2241640  85.0226116  68.0835342  66.3002443
  84.2747211  68.9957809  67.2486353  93.2215118  96.1413002  63.4728956
  92.3788929  96.2225151  63.0260992  93.1039715  95.4056835  64.0739727
 104.9971676 102.2819996  64.1767073 104.5340061 102.2615623  63.3392763
 105.9199333 102.3699856  63.9379692  15.0094406  90.2025032  66.9621086
  14.8777763  90.6287861  66.1152506  15.1173583  89.2754936  66.7494154
  46.6586972   5.6413591   6.5829870  47.5219537   5.2665699   6.7577955
  46.1066819   5.3125227   7.2924825  61.1309052  80.0074673  38.1352258
  61.4895391  79.7596121  38.9873886  60.7627439  79.1962004  37.7851772
   5.9337231   8.0878266  36.6316271   6.5751168   8.5210046  36.0684109
   5.9216496   8.6150750  37.4304366   8.5501186  94.7098732  32.4140930
   9.2804424  94.1752338  32.7255678   7.7918521  94.1271782  32.4557972
  61.3384819  80.2170849  56.4184237  60.6118059  79.6160316  56.5824318
  61.9225311  80.0967121  57.1671772  72.2629929  95.8457088  51.1934757
  71.8344450  96.4666462  50.6043959  73.1943035  96.0567951  51.1276388
 105.0588226  79.2674685  22.7192736 104.2382145  78.8795280  22.4153948
 105.2597618  79.9417496  22.0702791 107.5764942  97.1690083  39.7108555
 106.9173622  97.5591660  39.1367936 107.1354389  96.4165783  40.1052618
  94.2781448  96.1933517  71.3862896  94.5439911  95.2748871  71.4306545
  94.0070248  96.3205814  70.4771471  25.9096047   1.3404855  36.9331408
  26.7256447   1.0998448  37.3717666  25.2237030   0.9374818  37.4654579
  80.9708977  90.3014755  45.1522350  80.7490921  90.7419300  44.3318462
  81.8281841  89.9083042  44.9888229  69.7118759  99.0870571  71.7281485
  69.0318918  99.4277000  72.3093653  69.4621658  99.3994141  70.8584881
 102.7855396  63.1440830  20.2487922 103.1259632  62.2495365  20.2602363
 103.4959507  63.6753225  20.6084180  93.0497365  30.2851781  58.1711245
  92.4096732  29.6106442  57.9440737  93.0715756  30.2822312  59.1280699
  22.0430084   2.8351697  43.7585211  22.5883290   3.5601815  43.4532166
  22.3640820   2.6490029  44.6408415  70.0981569  91.2796307  33.4384537
  70.6499767  92.0298767  33.2174444  70.6853247  90.6763935  33.8940525
  98.6293602  97.9523182  38.1059670  98.5013962  97.3096466  37.4082375
  99.0238094  98.7063408  37.6676822 108.6832809 101.6321945  39.6736884
 108.8106251 100.6916237  39.5498371 107.7335262 101.7409515  39.7223687
   5.9096900  96.0565090  38.9656663   6.2806312  95.6439686  38.1856370
   5.5405609  95.3302193  39.4681478  40.3608505  93.3722401  41.4489651
  40.1692954  92.6987267  42.1015882  40.8802787  94.0227509  41.9214678
   0.0645057  80.1098633  75.1585865   0.6512443  80.8659649  75.1752281
   0.2250186  79.6637869  75.9901428  15.2579018   1.1839780  76.5217781
  14.8822113   0.3311833  76.3030815  15.8911320   1.3527688  75.8240986
  15.8721153  78.2439327  27.9478931  15.0689308  78.3793640  27.4451280
  16.5009014  78.8550806  27.5640106  71.8491650  87.9284668  42.2647810
  72.6115084  87.3509216  42.3035574  71.3148451  87.6705742  43.0159283
 103.9218616  63.6764288  29.5769906 104.2487621  64.2290449  30.2869081
 104.4603920  63.9130735  28.8218617  34.8502728   0.3659543  52.2951031
  34.5349976   1.1215505  52.7910042  34.0542122  -0.0709525  51.9924021
  24.0783783   3.4150609  37.8037095  24.7191521   3.7204560  38.4458804
  24.6000000   2.9598435  37.1427059  31.7584892  30.8808812  26.4721560
  30.9299179  30.4021081  26.4506435  31.5453240  31.7445287  26.1187387
 104.5213509  56.6098738  48.2886791 103.5907936  56.8228531  48.2183552
 104.5388126  55.7450819  48.6986303  88.4244061  90.8480167  32.5838470
  87.7442074  91.4954185  32.7694011  88.2527733  90.5715752  31.6836524
 103.3838844  85.3436375  69.8328972 104.3266773  85.2085495  69.7372866
 103.2712555  85.6086349  70.7457590  85.1753044 101.7943954  36.8460393
  85.4677773 100.9808350  36.4351797  84.2711449 101.9005013  36.5502882
  16.3183395  88.0191040  38.0921817  16.6130439  88.2760525  38.9658880
  16.2161628  87.0687675  38.1437325  85.7790852  88.0838680  55.9561443
  86.1763573  87.2232151  55.8231592  85.9795761  88.5666943  55.1543283
  89.3490696  57.7761269  58.5226393  88.4273148  57.5352240  58.6151934
  89.5605564  57.5688696  57.6123905  92.2293854  82.6064587  38.0240703
  91.7322731  82.1995354  37.3144794  91.6518593  82.5481701  38.7851858
  40.2391044 102.9644871  60.5665922  40.0037280 102.2377205  61.1433506
  40.4302207 102.5502300  59.7251034  77.7167559  89.6754074  49.9419689
  78.6713505  89.6126080  49.9741936  77.5436735  90.5972958  49.7512054
  92.5647163 101.3208485  46.3240719  93.1520748 101.3451862  45.5686522
  92.6728916 102.1765137  46.7392397  91.5409279  70.2712727  55.6683159
  92.1333981  69.7699356  55.1080799  91.6812801  71.1823893  55.4106379
  12.7845951  26.7377385  21.4168239  13.5162255  26.7233285  22.0338702
  12.2487923  27.4794492  21.6978979 104.2078972  78.5283804  84.1289711
 104.8840809  79.0470171  83.6930466 103.3833599  78.9249420  83.8477230
 105.3880887  15.9298715  29.9416423 104.6244340  15.4242429  30.2198458
 105.2005439  16.1668023  29.0333891  42.3818680   7.0318517  48.8592625
  42.9431435   7.8034696  48.7830257  42.5011345   6.5662011  48.0315113
 102.6329613  57.4062109  59.4426441 102.2837543  57.2221279  58.5706377
 102.1202850  58.1524420  59.7533369  96.1786366  71.2558317  48.3073807
  96.5572929  71.0600805  47.4503326  96.5596867  70.6013107  48.8927269
  59.4421002   6.4580544  37.3607779  59.7200867   6.7736920  36.5009332
  60.0514599   6.8677815  37.9748106  40.5250541  89.5915413  72.3387194
  40.3196994  89.0377045  73.0919313  41.0808364  89.0445232  71.7836475
  33.5071846  23.2614240  43.4180689  33.7657257  23.9155301  44.0673161
  34.0439793  23.4602364  42.6508904  84.9580669  91.0959148  38.9907885
  84.0028191  91.0354710  38.9819098  85.1435852  91.8814659  39.5053077
  98.7618256  96.9125557  16.3026094  97.9040432  96.7533207  16.6964149
  98.6854362  97.7797794  15.9047174  19.4746300   0.5063256  44.6950579
  20.1695725  -0.0172607  45.0939941  18.9531132  -0.1253406  44.1998339
  77.2527119  16.6080293  28.7515283  76.9532105  15.8335503  28.2753897
  77.1775242  17.3222073  28.1186485  19.4090172  17.8235635   8.7421793
  18.5802551  17.4232587   9.0051329  19.4213959  18.6673650   9.1939139
  89.4090176  66.2381172  43.7631607  89.3073845  65.2884102  43.8261032
  88.5708237  66.5463924  43.4187269 103.6237049  60.7151604  54.7927475
 104.4756031  60.2822399  54.8483324 103.2250881  60.3584146  53.9989758
  92.8364182  97.1916580  30.0201750  92.7806568  98.1071186  30.2941585
  93.3321190  96.7626667  30.7176542  87.1830940  84.1269016  31.8434906
  86.5838718  84.8718166  31.7959642  88.0523682  84.5224857  31.9075537
 106.2378597  78.1023550  18.6635816 106.7384720  78.9078426  18.5339165
 106.7831707  77.4167299  18.2778573  92.7810188  40.8442517  90.7361976
  93.4092994  41.3420411  90.2130304  93.2480712  40.0429555  90.9728870
   8.3615009  70.2927065  33.4306073   8.0626575  69.9260044  32.5984716
   8.1195251  71.2177086  33.3853889  98.7874699  79.1076040  28.3123970
  98.4831715  79.8848581  27.8438711  99.3239784  78.6378050  27.6739025
  19.0263740  82.4638557  64.7613478  18.3362953  81.8464947  65.0040102
  19.6990196  82.3470497  65.4322624  19.5633503   2.5310811  29.6552491
  18.8674732   3.1842431  29.5819998  19.7813984   2.5169000  30.5871749
  12.8796855  76.6683865   9.1619295  13.2400409  75.8693171   8.7774020
  12.9670230  76.5401506  10.1064718  24.4828125   1.9146737  46.5023327
  25.3309246   1.8100556  46.9336081  24.4745251   1.2399968  45.8233833
  45.1844403  15.0964459  20.3673816  46.0471531  15.2756699  19.9934244
  44.5856186  15.6469640  19.8628318  36.0352130  37.4757596  90.4404364
  35.1478381  37.7136823  90.1717554  36.0836597  36.5306397  90.2968091
  25.2696511  14.1506776  22.3148894  25.3181359  14.9836072  22.7840567
  24.3512627  13.8899144  22.3840761  83.8794518  92.8198814  46.5089798
  84.0211391  93.4594822  45.8110714  84.2115116  93.2485867  47.2977686
  31.8257424  31.2128934  42.8704786  32.7144810  30.8600530  42.9139662
  31.3211056  30.6657323  43.4722948   2.4993030  69.8295689  72.9383850
   3.3121768  70.3292561  72.8622770   2.1061412  70.1348639  73.7559700
  64.0789032  77.3887587  66.2032509  63.3336544  76.8310118  66.4263153
  64.3530703  77.0870972  65.3371859  93.0972672  96.0895061  68.9388657
  92.5171947  96.8131351  68.7019825  92.9462147  95.4299641  68.2618046
  35.7101628  10.8425721  14.6170306  35.2375313  11.4520272  15.1839638
  36.3729283  11.3817891  14.1854978  10.1961323   2.1050462  48.3680582
  10.6791683   1.3496884  48.0328751   9.6768948   1.7552289  49.0921068
  83.5250759 101.5867710  52.7644491  83.0463409 101.0327816  52.1478939
  84.4097233 101.6388130  52.4026394 101.9869995 100.1027298  49.8219824
 101.8167591 100.4393291  48.9422369 101.2353420 100.3925610  50.3389311
   9.1358844  94.3472481  45.1006079   9.3659965  94.9619484  44.4038820
   9.7048274  93.5920906  44.9513197  56.3480374   8.5472974  38.6845207
  55.5353733   8.0576142  38.8111210  56.2082955   9.0380105  37.8746367
  95.2268410  73.5428381  49.6763897  95.4901505  72.9251003  48.9942598
  94.2700863  73.5148764  49.6684837  57.5319477  11.4956101  53.4946442
  58.1525227  11.3390168  54.2063999  57.7408310  10.8261880  52.8431320
  20.1553818   3.3967313  49.4972897  19.8096462   3.1635579  48.6357021
  21.0980984   3.2471761  49.4255590  55.3834625  23.9511498  36.6034675
  56.1120411  24.4134721  36.1891532  54.8160835  23.6971291  35.8756042
  90.8370495  62.2377968  87.8871918  90.7447338  63.0696249  87.4226761
  91.5949726  61.8186903  87.4795914  93.1347370  78.6413479  32.0900464
  93.5232544  78.1831741  31.3448167  93.8086987  78.6089134  32.7689838
  27.2368237   2.4820718  66.3170624  27.5981804   2.1328458  65.5023861
  27.3521515   3.4294518  66.2435246 100.8245850  78.0879259  26.2093163
 100.7773972  79.0307236  26.0507512 100.2597427  77.7037144  25.5388141
   3.6844150  77.2209167  53.0467415   3.5243980  77.9042101  53.6976910
   3.0067912  77.3575020  52.3846149  38.3057686   7.7070340  45.3711033
  37.8928467   6.9365319  44.9811697  37.7021214   7.9780396  46.0627651
  16.1983673  70.8581400  58.9142990  17.0869342  70.5197191  58.8040829
  15.6458179  70.0768995  58.9385271  19.9665729 102.0157909  25.8828020
  20.4821674 102.5568008  25.2847147  20.3782360 102.1443939  26.7373347
  90.3554344  81.5901184  44.1262388  89.9390125  80.8961868  43.6150646
  90.5535603  81.1810493  44.9686432   2.0559117   9.1991433  74.7326088
   1.4888283   8.9590558  75.4654121   2.8123995   9.6185407  75.1425743
  72.6744075  29.4480725  84.9388615  73.1656928  28.7621614  85.3909621
  71.8831630  29.5625325  85.4652355  21.5923592  13.9885243  50.3089714
  21.6525742  14.0618714  49.3564844  20.7436081  14.3743619  50.5257273
  82.8321266  93.5452557  62.2987461  83.5273075  92.9906273  61.9447088
  82.9936600  94.4066906  61.9139624   2.7331682  11.1740598  82.7593327
   2.6475426  10.8835896  81.8512917   2.0013806  10.7571324  83.2141876
 108.7807088   3.8270005  15.1551747 109.5632224   4.3373116  15.3637218
 108.4524779   3.5336980  16.0051560  90.8483028 101.5178967  54.9785852
  91.3187313 102.3308659  54.7941303  91.0305214 101.3397980  55.9012461
  58.7628361   7.6659020  24.0092540  57.8826519   7.4672135  24.3286848
  58.6346337   8.3753213  23.3795547  87.4280357  86.2839699  34.6174836
  87.3026371  87.2328949  34.6245265  88.1976032  86.1481667  34.0647054
   3.7271110  45.0226879  49.1172218   4.3422691  44.4345236  48.6791801
   4.2655174  45.5127859  49.7386360  14.6516129  30.5205258  78.9545870
  14.7161576  31.4333733  79.2352629  15.4273697  30.1003560  79.3259144
  18.2836052   0.7404717  41.8160725  18.6843964   1.5630158  41.5349579
  18.9986988   0.1046857  41.7908335  98.1272316  91.1052990  39.7975898
  98.7205982  90.5995846  39.2422438  98.2066250  92.0037460  39.4771004
  12.4266139  84.7684574  34.1149902  12.1150867  85.6417847  33.8773251
  12.3948757  84.2720604  33.2971764 102.6147556  80.3590965  43.6058474
 102.7306747  81.3055325  43.5217857 103.2672405  79.9843931  43.0141640
  78.6682844  67.6136494  42.7683210  78.8789225  67.8545809  41.8662024
  79.4073820  67.9393435  43.2820177  28.6213585   7.5934705  53.5953712
  29.5232292   7.3501595  53.3863974  28.1803318   6.7599496  53.7595701
   6.7726699  95.0716972  50.6174946   7.1339504  95.3911400  51.4443302
   6.9396106  94.1292667  50.6313705   9.5686428  81.9837952  12.9775107
   9.6327869  81.2327003  13.5674083   9.0049926  82.6040459  13.4399033
   7.4161045  94.8242474  41.4433384   6.4961521  94.5852089  41.3302612
   7.8084937  94.6805763  40.5821609  13.4802524  97.4704170  52.1283913
  14.2488948  97.9134178  51.7689896  13.7407962  97.2199154  53.0147362
  70.3758526  85.2469063  41.3516426  69.6075916  85.6744576  41.7300701
  70.1554298  85.1328754  40.4271698  95.8211327  94.1831398  38.4108591
  96.5358734  94.5392132  38.9386725  96.2160301  93.4528923  37.9343939
  28.9604088   4.1746148  20.6256962  28.7040516   4.2748269  19.7089255
  28.8740917   5.0530919  20.9959292   5.1371852  75.9945822  58.5228777
   4.6314994  75.9501934  57.7113771   4.7491542  76.7232513  59.0073395
  91.4224243  99.8828602  30.1773620  91.0918427  99.6442795  29.3113208
  91.4923668 100.8371735  30.1524854  83.5261059 101.8180180  55.4839659
  83.4963322 101.7883587  54.5276880  84.4194889 101.5541172  55.7040739
  31.3680645  14.3938741  37.2623420  31.6839596  14.6949109  36.4103937
  30.6899830  15.0251397  37.5030780  34.3097397   7.8460606  53.7060404
  34.9536701   7.9547414  54.4058752  33.7034127   8.5774907  53.8227510
  90.3520107  84.9970531  75.5335951  90.5856037  85.8466911  75.9074783
  89.5252609  85.1550961  75.0778103  68.7126017  82.1539783  70.6465769
  68.2272243  82.1129322  71.4705658  68.1144762  82.5871181  70.0375891
 100.7863045  80.3598404  56.7810345 100.5622864  79.7002316  56.1245584
 100.9958839  81.1428833  56.2719679  11.9940182  17.2329720  13.7568939
  11.1222168  17.1640595  13.3677268  12.3300835  16.3367185  13.7518609
  92.5537586 102.1803665  27.5241160  93.2793427 101.5887260  27.7234316
  91.7679214 101.6558743  27.6777196   3.5525791  88.2529068   2.8993332
   3.1454936  88.0225468   3.7344676   3.0239574  87.8001022   2.2422433
  36.4763828   0.5121144  60.0409174  36.9234749  -0.0125018  59.3767500
  35.7374092   0.9061822  59.5773888  76.6690969  82.5047684  14.8218453
  75.8941793  82.5744915  14.2642856  77.4053574  82.6521015  14.2281735
  57.8141686  21.7380246  61.4976978  56.9377896  21.3539132  61.4721346
  58.2121941  21.4821443  60.6656313  94.3632984  66.4616632  41.4984894
  94.4778824  66.2951994  42.4341106  94.0729332  67.3725319  41.4510727
  38.0969235   1.6592606  23.6297989  37.7180001   2.3198041  23.0498552
  38.7261101   1.1912068  23.0809093  45.3625294  13.1740674  28.4689879
  45.6505772  12.3315247  28.1177211  46.1520573  13.5564240  28.8519764
  99.9677181  88.3919048  49.3734741  99.9653053  89.3487644  49.3990088
  99.1280556  88.1399345  49.7577858  83.7188816  70.8713293  40.6677628
  84.3060112  70.7571316  39.9204540  83.2467175  71.6824389  40.4796314
  90.9655571  92.5658607  37.7343869  91.5318871  92.5963497  38.5054731
  90.0777340  92.6284218  38.0866551  40.2019783   1.0925588  48.4934950
  41.1325737   1.1855611  48.2896090  39.9794956   1.8936070  48.9678955
  74.2791843  71.1668205  57.6518011  73.5908175  71.6385746  58.1206656
  73.8152933  70.4802513  57.1725750   3.4124748  97.2460938  47.4572754
   3.2562820  97.2219276  46.5132141   4.3408004  97.0328236  47.5519896
  52.5601006 102.2736740  13.7206638  53.1906796 101.5755558  13.8974035
  52.9946566 103.0711460  14.0230441  99.2685223  72.2431993   9.2331439
 100.0345325  72.7894545   9.4093758  99.4892883  71.7733812   8.4289253
  26.2356278  12.9520329  31.1494279  26.3141628  13.6278447  31.8227315
  27.0320889  13.0416116  30.6261134 106.4677906  98.9659977   0.7022888
 107.3819828  98.9251423   0.9830251 106.4978981  99.4029617  -0.1488182
  79.2282820  88.2943726  35.6768346  79.2180872  87.7035522  34.9237990
  80.1171875  88.2235909  36.0247874  16.4943210  96.1629105  75.4700375
  17.0351974  96.3582897  76.2352276  17.0714275  95.6673241  74.8890305
  29.0976043  80.6711312  90.0415297  29.1745467  80.2768155  89.1727219
  29.4138999  81.5672418  89.9267147  36.0986038  40.8960160  44.0030861
  35.1931950  41.1588200  44.1685867  36.0571381  39.9451932  43.9008379
  29.8519512  17.5422200  61.9712067  29.8128601  17.2928914  62.8945351
  29.4041249  16.8316659  61.5120840  92.6272964 101.5019703  34.8098135
  92.6131535 101.4359188  33.8549995  92.5466919 100.5978584  35.1136541
  45.1555444   9.2634285   8.3208009  46.0517121   9.5696152   8.1816121
  45.2386380   8.5681379   8.9734098 101.7379718   4.7524079  18.3997262
 101.3860183   5.0632104  17.5656009 101.0819726   5.0101289  19.0473986
  99.3876457 102.7290630  53.3797503  99.6931076 103.6006641  53.6312056
  98.8292599 102.4521351  54.1062164 108.3451939  82.0257378  76.9881678
 109.1612053  82.3830891  77.3383951 107.6863003  82.2422123  77.6478767
  64.4429302  93.7800598   8.3622593  65.2092505  94.2339516   8.7129253
  64.2891741  93.0610561   8.9751446 101.5532494  78.5958481  64.0756178
 101.2695980  78.5346174  63.1634617 100.8310318  78.2172966  64.5769501
  72.4136162  90.9575081  17.7521408  73.3433485  91.1330986  17.8970397
  72.3390818  90.8265400  16.8068767  24.8435780  19.3927583  52.2842455
  25.3415486  19.3633088  51.4673138  25.4400631  19.7976979  52.9138899
  65.8057686  24.6232709  62.9627800  66.3057991  25.0746926  62.2827673
  66.2283894  23.7681683  63.0430222  43.7822238  79.0800762  40.6143045
  44.3679611  79.0916061  39.8573279  42.9227153  79.3007851  40.2554607
  47.8529450  11.2905034  35.6166482  47.2569462  11.3939675  34.8748159
  47.3660847  11.6357430  36.3649893  61.8390747   2.9797944  50.4917431
  62.3439404   3.1535634  51.2861919  61.4640805   2.1102914  50.6316519
  67.7781868 100.4586887  40.0504303  67.3708582 100.4707336  40.9165525
  67.5914717  99.5837402  39.7100925  16.8824092  91.8288612  46.5789223
  17.0687190  92.7648544  46.5052128  17.7445690  91.4165497  46.6328716
  14.8908325   1.8564042   6.2066370  14.4445893   2.6761636   6.4189529
  15.6950756   1.8802365   6.7251545   2.5550696   4.7435578  63.8434935
   1.9347473   5.0260552  64.5155239   3.2209345   5.4310330  63.8279915
  75.3819036  98.2758522  25.6835437  74.9877548  98.4110832  26.5452814
  74.7549200  98.6596394  25.0704956   0.2886192  82.4135685  14.8228312
   0.5108730  82.6366711  13.9189208  -0.5525883  81.9614410  14.7580278
  87.3424053  98.8104820  60.9596300  86.5419102  99.1763020  60.5832958
  87.2491550  97.8644466  60.8475876 110.3424263  83.9248562  55.8353662
 110.3708172  84.7444439  55.3417015 111.2561798  83.7482929  56.0591841
  80.3760529  65.0661230  51.8221951  80.7232666  65.2761602  52.6891232
  80.3254318  65.9101439  51.3735342  87.2502804  90.6605721  41.7763138
  86.6912746  89.9350929  41.4980316  88.1132317  90.4479980  41.4208651
  71.2911272  72.6424503  50.8593178  70.6259918  72.0789909  51.2547207
  71.2926579  73.4296560  51.4038754   6.3739101  85.4742050  64.4943190
   6.2107364  86.3886166  64.2631102   7.1029464  85.2115059  63.9324188
  92.0459366  99.2784882  36.8023157  91.6277504  99.8809910  37.4174166
  92.9827309  99.3712139  36.9756579   9.1309735  17.6154050  59.7291803
   9.3433281  18.3961591  59.2177534   8.6335655  17.0623883  59.1266918
  87.7091217 102.9936981  62.5273132  87.9668045 102.6683903  61.6647530
  87.5977230 103.9364052  62.4042940  29.0022556  91.0671425  31.8842340
  28.7597457  91.7653942  32.4924040  28.4328453  90.3349972  32.1207976
 106.7770672  73.0569506  58.5088158 106.5046120  73.9713383  58.4320307
 106.2474346  72.5938988  57.8597403  15.3641979  98.9893246  68.4876966
  14.9694244  99.7024059  67.9857969  15.0958244  99.1553020  69.3913889
  95.2204609  73.2225418  62.3901129  95.7550049  72.9713869  61.6368484
  94.3193722  73.1758642  62.0705891 107.3561954 101.6624641  48.4180164
 108.0015659 101.8312645  49.1044855 107.4730301 100.7373810  48.2016850
  27.1292492  10.4009446  43.6608744  26.5122505  10.3640565  44.3917561
  26.6976544  10.9553918  43.0108404  11.4720241  97.6319981  47.1064425
  12.0381442  98.3982849  47.1988821  11.2150566  97.4145603  48.0025005
 104.4052219  94.9572468  45.9065628 105.0648975  95.3840351  45.3598309
 104.7637463  94.0866089  46.0788441   5.8646294  14.7044381  48.2112074
   5.7067486  14.7554311  47.2684956   5.6872126  15.5886849  48.5319424
  87.0637512  70.4610825  36.6041398  87.9437160  70.7809162  36.4051437
  86.4789391  71.0939455  36.1873484   0.7688423  30.6762418  87.9137135
   1.3194605  30.1823625  87.3061466   1.3431879  30.8691415  88.6547661
 104.9385929  88.5955906  75.6434202 105.3212738  87.7183151  75.6566286
 104.7775173  88.8005352  76.5644407 103.5039139  78.5321999  31.5141869
 102.8858566  78.3665943  30.8022809 103.2197380  77.9495716  32.2184730
  26.0692111  71.5680027  46.3846493  26.9983188  71.7826271  46.4678335
  25.8319179  71.1975384  47.2347546  28.9054199   5.5479630  48.2734966
  28.8510891   6.2235745  47.5976086  29.7774216   5.6580171  48.6526060
  70.7438755 101.6059971  57.9794216  71.4497185 102.2515011  57.9428005
  70.7605696 101.2837029  58.8805771  86.8290901  81.3661289  38.3251333
  86.0328007  80.8482075  38.4430552  87.3191452  81.2403488  39.1376972
  40.1576897   9.1056928  30.4003477  40.6466194   9.5091733  29.6831393
  40.0427815   8.1948956  30.1292896  93.5752583  74.8305082  52.2217226
  93.3310032  74.2121172  51.5331268  94.5227623  74.7278404  52.3107719
  76.5685797  83.7243366  75.3428221  76.6295242  83.5830402  74.3980742
  77.2934389  84.3163395  75.5437088  21.3368980  98.2217407  53.4880114
  21.5315811  98.6636353  54.3144846  20.6139461  98.7241364  53.1122923
  19.2493530  22.6700410  39.5019484  18.4519192  23.1925687  39.4165182
  18.9730450  21.7763909  39.2988229 100.8976460  67.5340843  28.7916255
 101.6920853  67.6528120  29.3122005 101.2156391  67.3572922  27.9062676
   6.7188445 103.5753155  35.3903174   6.7680351 102.6259232  35.2786565
   7.2550002 103.9281082  34.6801662  10.5189315 101.8021488  35.5538297
   9.8654739 101.5231133  34.9124527  10.8555786 102.6290035  35.2085686
   7.4411579  24.1467866   4.5429289   6.6777416  24.0146932   5.1050359
   7.3688790  23.4636411   3.8763571   3.2141105  84.9551582  62.0663643
   2.7016536  84.1498566  61.9949007   4.1250030  84.6613121  62.0539427
 101.3584137  59.7526121  11.1952090 102.0607376  59.5825434  10.5674827
 100.5625439  59.4649553  10.7479084  81.4323139  65.3320885  78.4538317
  81.4822388  66.0631800  77.8380013  80.6290627  65.4909563  78.9495945
  50.0733042  29.7105932  53.2829380  49.2475748  29.4002438  52.9113436
  50.3855228  30.3658152  52.6588917  11.4692588  99.1949371  79.6909714
  11.5674586  98.6777017  80.4903793  12.1687885  98.8833794  79.1166687
  23.0557819  85.8461741  61.9033861  22.6121183  85.8873716  61.0562181
  23.6756272  86.5753368  61.8848515  45.5774355  17.6100683  47.8954697
  44.6918821  17.2779942  47.7479887  45.9540367  17.0102119  48.5393429
  71.5734351 102.3930569  21.0133171  71.7787226 101.9040895  21.8101859
  72.3759798 102.8755449  20.8149266 110.5356005  73.0828539  15.4474425
 109.6860770  72.9377023  15.8639431 110.9907869  73.6855594  16.0354745
   9.0644307  94.9949554  63.7804365   8.5683580  94.4810358  64.4176435
   8.4297795  95.2037690  63.0949783  93.6031393  76.4117256  73.7080860
  94.2228035  77.0581237  73.3698273  92.9682390  76.2957827  73.0011988
  58.7580538  22.3157167  64.6410942  58.8620663  23.2008123  64.2917776
  59.1906452  22.3426795  65.4945374 100.1379589  58.0268994  21.5163040
  99.1854743  58.0571214  21.6062665 100.2844766  57.6912395  20.6319404
  72.8823192  72.3292867  38.5954499  72.7176507  72.1968547  37.6618671
  73.8268863  72.2077552  38.6916542  14.5805021  85.0389567  42.7229500
  14.2603297  85.6479815  43.3883905  14.6780486  85.5742553  41.9354439
  34.8105335   6.2260062  41.3549423  35.5569148   5.8831114  40.8634424
  34.0895367   6.2276691  40.7253456   4.8589654  65.4453722  59.0316868
   5.4446836  64.8026601  58.6315823   4.5184274  65.9511057  58.2937860
  22.5322862  72.7507988  36.4187241  21.6831107  72.3909155  36.6748714
  23.1163116  72.5251118  37.1427488  19.1762109 103.7715147  38.9432955
  19.1859670 103.4872643  39.8572636  20.0886722 103.9861650  38.7494707
  99.1456250  93.2572619  12.0428228  99.0237335  93.8947574  12.7463675
  98.2988480  93.2271699  11.5975189 103.6530951  89.2422894  46.1018896
 103.0038337  88.6807946  46.5254641 104.4926957  88.9428631  46.4506674
  58.6633635   2.2652724  68.9834070  58.3860064   2.5408861  69.8571014
  59.5233488   1.8675947  69.1194582  46.4733696  37.1850300  50.0067282
  46.0715866  37.8388596  50.5788374  47.3301363  37.0174050  50.3992605
  88.4927367  56.4086482  87.9242513  88.5814475  55.6126809  87.4000395
  89.1297816  57.0157265  87.5476063  21.1838961   2.0304887  22.6097655
  21.7273617   2.8065914  22.4735951  21.3597202   1.4783013  21.8479204
  26.1048360  81.3192264  26.2561917  25.6135554  81.8321649  25.6145000
  26.6030784  81.9692556  26.7516160  45.8896732  15.0280261  41.1888742
  44.9994087  14.7486687  41.4024687  45.7896852  15.9262419  40.8735275
  11.3337131  92.6475731  43.9344740  11.5348573  93.4329501  43.4255981
  12.0819087  92.5451342  44.5226383  13.4596629  70.6271449  31.4107251
  13.7379022  70.9788672  32.2563648  13.0585571  69.7841612  31.6222095
  39.9649000   9.5998025  52.3156118  39.3555045   9.0184957  52.7705288
  40.0528097   9.2184263  51.4420795  15.2241702 104.0980536  27.3386478
  14.3743320 103.6591958  27.3010778  15.8613105 103.3993787  27.1898770
 101.0896830  81.2826947   6.4954015 101.4507918  80.3964547   6.4752218
 101.5432696  81.7096523   7.2221776   3.9367147  91.1615304   1.8584625
   3.2692905  91.1309794   1.1730073   4.2233749  90.2533034   1.9542862
  71.9530106  25.4988432  34.1471004  72.0994616  24.6097779  33.8240743
  72.8197098  25.8006549  34.4190884   0.9641023 103.9692959  28.5685754
   0.9180541 104.1388676  29.5095110   1.8960424 104.0318111  28.3592653
  20.5851216  80.4369250  28.2445931  20.3039403  81.2480298  28.6680055
  21.2207647  80.7181660  27.5864935   6.4985604  87.1064356  49.7381735
   5.9181781  87.7963415  49.4165897   5.9163280  86.4937428  50.1874447
  94.1196171  97.9399702  44.7092867  94.3232421  98.8180331  44.3871450
  93.4511963  97.6129839  44.1071844  34.9626155  90.3382710   3.5855854
  35.0964208  89.4926933   4.0137520  35.3446193  90.2288965   2.7147570
  12.2075887  99.8353765  36.6291285  11.7438169 100.2869428  35.9239793
  11.6135879  99.8869518  37.3779511  32.4208093   7.4862593  56.3518715
  33.2596803   7.9458070  56.3885498  32.4658799   6.8482727  57.0640326
   0.3622241  78.4147540  28.0607438   1.0960860  78.6836091  28.6133695
   0.6088705  78.6982933  27.1804023  10.2948375  65.1402083  58.3438826
   9.8697372  65.3103701  57.5033092   9.8180766  64.3936387  58.7066078
  83.7979889   7.0619071  18.2262182  84.1681385   7.9072779  18.4803200
  84.5041275   6.6245139  17.7505136  41.2157154  12.4421144  31.9648266
  40.8135366  13.2780051  31.7286634  41.8289471  12.2616029  31.2523723
  59.8583508   1.7536651  29.6714687  60.0898170   1.0947417  30.3260469
  60.6703997   1.9070354  29.1884661  21.8378015 102.4900444  33.2196689
  22.2536273 101.7183766  32.8351569  21.5471215 103.0054221  32.4672556
  36.3612628  29.0076780  12.9728878  36.6710901  28.1088686  13.0841637
  37.0253110  29.4235826  12.4230731  41.9966216  95.9052691  42.5561190
  41.4790054  96.7086354  42.6100206  42.5123735  96.0058830  41.7560482
  39.9948402  93.2623044  54.2932796  40.1221938  92.5658754  53.6490774
  39.7692104  92.8023282  55.1018238  95.2377992  44.9002151   0.0557920
  95.5348830  43.9909212   0.0217553  95.7330565  45.2871303   0.7777616
  60.0501728   1.2110282  59.7872066  60.8621597   0.7051707  59.8190975
  59.7713995   1.2743542  60.7007170  60.1315974  23.0709612  86.6993419
  60.7023143  22.5848138  86.1042166  60.7150101  23.6898052  87.1385369
  62.3684549  12.5898564  41.1179256  61.5916634  12.3001468  41.5963554
  62.3263502  13.5456204  41.1491299  81.4850044  22.4113703  31.3559842
  81.9155121  23.0189157  31.9574714  82.0614243  21.6475129  31.3338113
  38.3187246  29.2949533  32.3407841  37.5571680  29.6679354  32.7847958
  38.5181761  29.9186540  31.6426086  24.5600963   4.2191479  32.4494553
  25.0567532   3.5706502  31.9504428  24.0855074   4.7198182  31.7858863
  85.3863048  35.8537709  45.4108599  84.9045180  35.3826546  44.7310332
  85.8281230  36.5627992  44.9436263  52.8491402  18.8757145  68.9038944
  53.4319878  19.2231047  68.2287312  53.0284500  19.4136751  69.6750450
  44.5958567   7.6105350  14.9978089  43.7934256   8.1055963  15.1628792
  45.0348425   7.5755966  15.8476937 107.0862583  72.0861450  22.1014476
 106.2737826  71.5860787  22.1792436 106.9672087  72.8299156  22.6920962
  14.0370412  88.7527553  41.7655325  14.0426059  89.7083787  41.7109013
  13.1125684  88.5236875  41.8609762  60.4169463  25.3629100  80.1970450
  61.1676310  25.2201306  80.7735172  60.5635141  24.7684681  79.4612542
  92.9178659  68.9005796  49.8520231  93.0335180  69.7591916  49.4450283
  93.4406475  68.9427034  50.6527472 108.1013635  98.3542130  43.6767340
 108.7594489  98.5941950  44.3290854 108.5395983  97.7106402  43.1199598
  39.8482318  96.8028453   3.1733733  39.5370288  95.8979598   3.1495675
  40.5267139  96.8406019   2.4992269  53.8758373  30.4429269  26.9186926
  54.7199154  30.0928020  27.2036123  53.3190727  30.3874874  27.6953340
  23.2824416  89.1003851  63.6071634  22.4779506  89.5250634  63.3093786
  23.1020255  88.8550917  64.5146418   1.5712280  84.3974415  43.1543159
   2.3194881  84.7453085  42.6692152   1.9275541  83.6574260  43.6458826
  41.0392046  15.6494486  77.6877546  40.6623602  16.1597741  78.4045458
  41.9638348  15.8968103  77.6779127  64.1960287   2.2899701  79.6966743
  64.6586847   1.5294337  79.3448734  63.8813496   2.7577999  78.9231491
  47.7661133  20.2371550  11.2216413  47.5871706  19.6427548  11.9502699
  46.9344044  20.6855416  11.0685241 106.1180929  92.6737467  47.5624323
 106.6819981  92.3540119  48.2667112 106.7178968  92.8544179  46.8386745
   2.3605604  94.8627189  23.4024310   1.5269513  94.8403827  23.8723588
   2.9456182  95.3577313  23.9759350   9.3185659  81.1580506  28.6221242
   8.5026689  80.7719222  28.3036089  10.0030418  80.5723277  28.2986307
  49.5203300  78.2376376  37.1218038  50.4667373  78.2951346  36.9905257
  49.1892905  77.8497544  36.3117480  41.9896507   3.5466608  25.3071952
  41.1871147   4.0174273  25.5320168  42.6947021   4.1055396  25.6339765
 107.7688197  94.1372768  24.1436529 107.8373722  95.0898245  24.0789509
 107.0431331  93.9900211  24.7502208  45.1564980  21.9886732  43.3856726
  44.9604607  22.4329162  44.2105675  44.6062374  22.4305511  42.7390003
  24.3084521  96.0074333  21.6834664  23.6865325  95.4648838  22.1683240
  24.8920770  95.3799144  21.2570477   8.4947295  42.0727721  14.8049736
   8.2027097  42.5909988  14.0550423   8.5014577  41.1707536  14.4847405
  68.2478380  32.7444601  24.0442085  67.5325871  32.2741508  23.6158895
  68.8768625  32.9139972  23.3429074  32.4938869  -0.1132594  38.0879045
  33.3217955  -0.5356109  38.3168530  32.7362823   0.7868555  37.8704882
  51.4666033  11.8128669   2.1667942  52.1251678  11.4571214   1.5701649
  51.8138933  11.6345000   3.0407536  48.5088825  15.8800733  41.8253374
  48.7886238  15.2253985  42.4651670  47.5836182  15.6870794  41.6740847
  44.0034199  29.6066666  30.4969406  43.2064056  29.8059821  30.0057483
  44.4707203  30.4407287  30.5438900  28.8865276  95.4954431  34.9070406
  29.1798539  96.3754979  34.6710420  29.5483251  95.1792959  35.5221105
 110.6573962  91.6070687  64.2968706 110.8389424  91.7297470  65.2286557
 110.7021855  90.6598031  64.1668156  95.5221275 104.2611803  46.5501928
  96.3135794 103.8669314  46.9167995  94.9369625 104.3656481  47.3004580
  50.4165697   6.3124168  51.2583590  51.1096191   6.7300195  51.7697525
  49.6068668   6.5615386  51.7039442   9.9959941  79.3897334  33.9723682
  10.8985896  79.6796504  34.1046357  10.0382514  78.4359518  34.0412712
   7.0460887 100.9838969  24.2803979   7.2191138 101.2438783  25.1852202
   7.2891612 101.7499212  23.7604403 100.6344370 102.2432360  80.1498985
 101.2948183 102.6051695  79.5590210 100.0077204 102.9560072  80.2740574
 104.9980954 104.5855265  44.8545933 105.1175360 105.0375718  45.6898308
 105.5355648 103.7970633  44.9299812  34.6206951  28.2958388  42.7238464
  33.7140584  28.4557796  42.4618101  34.6058083  28.3440638  43.6797142
  82.6151911  91.4560357  36.4035034  81.9982717  91.4689222  35.6717420
  83.0047218  92.3303917  36.4038038  18.4680362  82.6497022  44.7470760
  17.5851340  82.7345172  44.3871784  19.0455909  82.7452580  43.9897585
  63.8314723  48.9187923  85.9121875  64.1538762  49.1866886  86.7727215
  62.9321884  49.2452138  85.8810732  30.3176498  14.0771222  21.9878721
  29.4063997  14.0328121  21.6982245  30.2682662  14.4106209  22.8837347
  48.9440107   0.2801039  39.8654366  49.2364216   1.1279923  40.1998186
  48.1207752   0.4709160  39.4158792  42.4503851  28.4642673  45.2486992
  42.3201036  29.4099379  45.3191853  43.3949566  28.3446217  45.3472042
  71.0079479  24.9650025  19.7755337  71.1234617  24.0181279  19.8550177
  70.3487682  25.0691056  19.0893304  61.0995865  40.1387596  16.6509521
  61.6658068  39.3669939  16.6484785  61.3011694  40.5863476  15.8292091
  52.0356417   7.4687749  25.1533937  52.2475863   8.3835089  25.3393340
  52.6795053   6.9672883  25.6535769  92.4503517  29.5303512  29.0631127
  92.9092884  28.6914778  29.1066337  93.1165218  30.1797867  29.2882299
  32.2829223   7.2766519  16.5731645  33.1784225   7.0207644  16.7941415
  31.7315316   6.6771102  17.0759058  46.0133743   8.3894914  20.8637071
  45.3891945   8.0515546  21.5059185  46.8455887   8.4267193  21.3351583
  40.7164669   5.3110826  38.8536859  40.1818991   4.6111256  39.2285538
  41.6189766   5.0324672  39.0088749  41.5526628  15.2589440  62.1783781
  41.4632511  14.8564184  61.3145399  40.6909800  15.6352496  62.3576117
  51.1304188  10.2955306  44.6828842  51.7185736  10.0786090  43.9595222
  50.3403330   9.7832173  44.5110464  29.1080236  22.7242565  34.5357084
  29.1217422  22.2549224  35.3698373  29.9998403  23.0564713  34.4331145
  21.2991042 102.2082141   5.6525165  21.5764518 102.3720590   4.7511485
  21.2337537 103.0787969   6.0450047  64.0874191  92.7123180  40.4540825
  63.8621230  92.8941110  41.3664579  63.5144515  93.2872633  39.9467587
   2.0609227  78.3000671  84.1763929   2.7699461  78.9404571  84.2348651
   1.6361943  78.4887206  83.3395842   6.7449279  93.5393897  43.8832712
   7.0812602  93.4762434  42.9893303   7.5257726  93.6503843  44.4256687
   0.2584925  97.0118868  80.5388657   0.2126637  96.2331307  79.9841849
   1.1687270  97.3003685  80.4719642  97.5627612  48.3922475  85.7354180
  97.9609536  47.9604968  84.9795983  97.7708577  49.3192517  85.6188432
  52.0034218  12.9039478  45.8676863  52.9420185  12.7162814  45.8606815
  51.5923357  12.0792699  45.6085539   0.4123421  94.6049312   9.9736667
   0.9463067  95.3064153   9.6007961  -0.0709348  95.0243631  10.6855309
  56.0210419  -0.0561331   7.6244372  55.6147623   0.6281234   8.1563783
  55.2841759  -0.5591952   7.2777593  20.1649280  73.8774410  47.3305130
  20.7916303  74.3664065  47.8637886  20.4618879  74.0098349  46.4302254
  62.1184206  17.7588904  31.2323046  61.1769009  17.9301524  31.2531996
  62.2474384  17.0523214  31.8650341  41.8946838  39.3700147  18.6598003
  41.9995832  40.2559996  19.0065861  40.9976387  39.3478918  18.3265591
  58.8136482   4.1001534  28.4887099  58.8760090   3.3212945  29.0416336
  58.5001469   3.7713066  27.6462102  18.5118532  21.8654513  21.7463899
  17.9419529  21.1263371  21.5338945  18.7935615  21.6997647  22.6460671
  77.3785257  25.5472350  52.0955706  77.2779942  24.9309587  52.8210545
  77.4990702  26.3974380  52.5184822   9.5266147  88.9930335  21.2175584
   9.9530358  88.3098343  20.7002211   8.8581081  89.3528131  20.6345630
  39.4162369   4.2390588  60.7069635  39.9405575   3.6734006  60.1400852
  38.9503813   4.8175949  60.1032209  65.1955223   1.7024013  63.3929205
  66.1486292   1.6715240  63.3100367  64.8827076   1.8617633  62.5024271
  43.9149375  90.7885781  43.3831692  44.6759029  91.2348918  43.0117321
  43.5230155  91.4333275  43.9721727  29.9050522   8.2801044  59.5629358
  30.7545710   8.6823183  59.3819046  29.3626857   9.0003324  59.8844051
  49.7514772  28.1257606  28.7255764  48.9172316  28.1514597  29.1941977
  49.8050928  28.9739943  28.2852864  12.0775361  91.0379652  28.9455152
  12.5886007  91.7974785  29.2251301  11.2339826  91.1416153  29.3858647
  64.8447990  23.1274176  26.6763973  65.3722000  23.5533953  26.0006571
  64.6175241  23.8323879  27.2826934   6.1998028  27.7455831  51.5692806
   6.7558855  28.3556867  51.0847378   6.0743076  27.0090246  50.9709787
  51.8549109   9.8765492  35.4625440  51.9984388   9.7746754  36.4034247
  51.7389393  10.8185744  35.3385687  54.7752476  23.4537387  27.8910565
  54.6339273  24.0303397  28.6419153  54.5130873  23.9776373  27.1340680
  83.5831872 100.9239421  24.2020941  83.7623040 101.7479602  24.6550226
  84.4215313 100.6786609  23.8106275   4.9881740 102.9674843  30.0212693
   4.8255153 103.2482489  29.1207457   4.1156669 102.8404028  30.3938365
  33.3827615  28.1131244  25.6406140  34.1953874  27.7340341  25.3057051
  32.7089930  27.4709845  25.4171777  16.8822360  32.1045375  74.4503975
  17.5083828  31.8674445  75.1344728  17.3242795  32.7888131  73.9478111
  33.3272409   0.5100271  41.0660791  33.5901618   0.4397983  40.1483822
  33.3135843   1.4512019  41.2399626  79.9475336  30.4717183  49.4778442
  79.5760393  31.3512778  49.5456457  79.5328951  29.9812269  50.1875830
   4.8851819  95.7186512  45.3217983   5.3808685  95.0988582  45.8569479
   5.4945321  96.4398191  45.1642036   7.7043100  75.2682344  21.5173912
   8.0246539  76.1006681  21.8647575   6.8471761  75.4775492  21.1462569
  99.4172048  56.3459611  84.4845281 100.1747273  56.6768568  84.0019349
  99.6670960  55.4590565  84.7437290 109.3446950  95.8719853  42.5334406
 110.1096038  95.9058759  41.9589853 108.7034110  95.3529939  42.0480204
  27.8657813 101.1974958  48.5075760  28.0831571 101.9298879  47.9308796
  28.2322498 100.4299477  48.0684853  52.2382784   1.9688088  25.9864473
  51.7866325   2.4978212  26.6440129  52.3511171   1.1142980  26.4027524
  39.8666549   6.1717880  42.6273918  39.8244357   6.8437040  41.9469643
  40.7400084   5.7912296  42.5343418  59.4438362   1.3859196   1.5665236
  60.3577566   1.6235457   1.7230995  59.1386223   2.0215419   0.9191751
  54.9352264  14.7063673  41.8464947  54.0678215  15.1102674  41.8198490
  55.1317167  14.5004439  40.9325886  85.5757665  96.5312540  86.4615182
  84.8241853  97.0530474  86.1802918  85.3078746  95.6247580  86.3107357
  27.4083371  93.4514538  25.3035355  28.2833619  93.2343784  25.6251526
  27.1749873  94.2551938  25.7680583  45.3737020  17.2350836  37.4215651
  45.4230785  18.0556893  36.9312572  45.6231356  16.5622115  36.7881155
  59.5438337   0.9099770  36.5612316  59.2223167   0.4017378  35.8165503
  60.4966307   0.8343703  36.5093279  51.0147285  20.3700638   3.1431675
  50.8890629  20.7727289   4.0024120  50.4769230  19.5786381   3.1685811
  11.0394569  96.2727252  30.3136921  11.1416764  95.8619550  31.1722088
  10.1893182  95.9641287  30.0002193  29.2107916  21.8185353  16.8297255
  30.1025748  21.5950823  16.5632188  29.1549301  22.7663612  16.7083323
  56.6337252   0.8476488  26.6634893  56.2788534   0.4962582  25.8468962
  55.9808064   0.6207257  27.3256326  55.9974146  18.4172881  46.6906929
  56.3088179  19.2059553  47.1348333  55.3098965  18.0759895  47.2625923
  87.2442722  10.7640004  65.1762342  87.0286083  11.6316307  64.8342752
  86.8239117  10.1556957  64.5683765  84.3044567  17.2902668  38.9753914
  84.5696354  18.1696463  39.2448401  84.7292995  16.7083561  39.6055651
  10.9621949  95.7508913  49.3693018  11.5159650  95.2114055  49.9336767
  11.1575980  96.6505519  49.6313286  62.5769854  36.0578775  21.5334797
  62.5788641  36.1836743  20.5845857  63.4843159  35.8413363  21.7481756
 111.0914067  87.9734746  46.3336611 110.6330231  88.8136343  46.3179111
 110.4998974  87.3694614  45.8847523  37.1894593  94.0449623  14.3669558
  37.6149507  94.3842534  13.5795081  36.4215799  94.6042875  14.4841826
  72.2149563  26.3058591  22.1667767  71.7100096  27.0980096  22.3505139
  71.7062855  25.8473086  21.4980364  39.0899992   8.5367090  36.3923955
  38.3092928   8.4068626  36.9307899  38.7734151   8.4703648  35.4915047
  18.3883901  76.4295975   6.8314743  17.8131480  75.8369819   6.3475966
  18.4478994  77.2093669   6.2795252  36.1321969 102.5222588  14.5239210
  35.7220693 102.5928225  13.6619186  35.6278987 101.8447513  14.9743605
  79.8968505  36.8370127  81.3205812  80.6231593  37.1692037  80.7929829
  79.1117000  37.1496939  80.8711324  74.4126034  44.3180323  31.1304998
  75.2459192  44.7827911  31.2067866  73.7910080  44.9865389  30.8424950
  49.2777057  79.5406738  44.9785948  48.5872455  80.0428525  44.5457983
  49.2092128  79.7853271  45.9014606  82.3885536  16.8043113  31.7131972
  83.2422066  16.3982022  31.8634510  81.8942356  16.1480582  31.2220573
  21.7986102  85.6861309  40.7187843  20.9556766  85.6419602  40.2674007
  21.9562431  86.6223565  40.8407021 110.0714520  97.7667019  67.6083088
 110.4398302  97.7521357  66.7249537 109.8476199  98.6850241  67.7593565
  49.9941254   7.6386952  44.0315056  49.7037554   7.4900681  43.1315994
  50.3004932   6.7820013  44.3288994  45.0358629  45.7664490  25.0603485
  45.1591873  46.2227583  24.2280006  44.8146439  46.4591789  25.6827784
  25.3892279  43.2331133  39.5645690  24.5242548  42.8271770  39.6217394
  25.8984065  42.8103161  40.2560949  37.6154065  40.0573587  29.8346972
  38.0608201  40.8663416  30.0864625  36.6899252  40.2295637  30.0080776
  36.6639180  97.1248410  15.5258930  35.9821887  96.4994625  15.2801728
  36.3963599  97.4445525  16.3875353  12.6466890  94.3820861  51.2490416
  12.6288362  93.6731580  51.8919516  13.2411475  95.0313732  51.6249084
  37.6202722  92.8719953  38.7916899  37.8607459  92.0107452  39.1332364
  37.4958797  93.4127644  39.5716429  72.9907656  43.8344288  21.4080358
  72.3296928  44.2464399  20.8517408  73.6282253  44.5283175  21.5765476
  78.5507059   1.3811867  24.8243499  78.4657335   2.3082379  25.0470328
  78.1833029   1.3118702  23.9431906  29.0717030   1.6218852  49.9173260
  28.9608335   0.6840962  49.7608280  29.6118808   1.9243239  49.1872787
  16.6515913  89.9436342  79.2306796  16.8095675  89.0044582  79.3267325
  16.9900313  90.3274047  80.0396374  26.0308814  14.2733169  53.1294966
  26.6694784  14.9348712  52.8634644  25.1869678  14.6298766  52.8521776
  29.2424770  79.1048304  60.4058075  28.3356662  79.2573086  60.6716537
  29.2458005  78.2090131  60.0685692  61.2304874 101.3513947  46.2969017
  61.6809459 101.9223136  46.9192934  60.6261249 101.9315061  45.8338261
  59.6755648  14.0506744  37.5742936  59.8318815  13.3573854  38.2155013
  58.7382984  14.2327809  37.6421380  86.4955997  23.8660979  56.4695930
  87.4035549  23.5841465  56.3584423  85.9777069  23.1725574  56.0609198
  18.3943601  94.5318738  43.5505676  18.2287450  95.1139430  44.2921877
  17.6020713  93.9990488  43.4826994  23.8858819  18.0539131  71.4057684
  23.0238724  17.7776194  71.7169428  24.5014858  17.6572657  72.0221615
  56.7915726   1.7703623  29.9403739  57.3773861   1.8502636  29.1876006
  56.0069084   1.3490748  29.5895791  56.6034746  30.2959991  67.1411180
  55.9131241  29.9820328  67.7251291  56.1359358  30.6311584  66.3760662
  69.8062617  97.8922579  15.9778345  70.4231564  97.3794237  15.4556525
  70.1196290  98.7935213  15.9019530  31.2623305  86.5645043  37.6672983
  30.7518621  86.4828650  38.4728932  31.5070768  85.6657961  37.4467230
  42.1400356  28.2032323  15.8801913  42.7264214  27.6309752  15.3853142
  42.7175665  28.6803675  16.4760375  36.5955448  31.2108016   6.3431698
  36.1532116  30.5489850   6.8747425  35.9448600  31.4671874   5.6896353
  35.5699444  45.9568596  48.2339668  36.5099907  46.0675430  48.0915117
  35.4756331  45.9110785  49.1854095  17.2314310  13.0285513  68.6714268
  17.2930181  13.2459605  67.7412796  16.3996077  13.4100950  68.9520121
  62.8320742  15.2135324  28.4942460  63.7333250  15.5146742  28.3789539
  62.3066998  16.0131109  28.4643698  54.8561239   0.5995274  49.2802286
  55.1235294  -0.0998009  48.6838484  55.0367260   1.4069258  48.7988520
 110.2341508  41.7259454  70.9081308 110.7454585  42.5059545  70.6927589
 110.1653289  41.2488079  70.0811890  16.8887801  91.2278644  15.9004784
  17.2449918  90.9680382  15.0508690  16.4054961  90.4589442  16.2028456
  17.0701003  27.5749493  34.1159654  17.9096639  27.3124146  34.4933772
  17.2765791  28.3431721  33.5835814  43.3670282  47.3042917   1.7563157
  43.8002825  46.9967508   0.9601127  42.6293612  46.7057705   1.8740362
  17.9885001  99.0563116   3.0044517  18.4709592  98.2464686   3.1706339
  17.1452565  98.7657413   2.6569641  76.6452456  24.8420286  27.3535061
  76.6243935  24.1958189  26.6476679  75.7644939  25.2167916  27.3612285
  49.5924664  41.5228701  19.4700944  49.4432688  40.6294727  19.1605663
  48.9483786  41.6454315  20.1674914   5.9087176  95.9690717  48.1920624
   5.8792157  95.7758829  49.1290998   6.7680593  95.6558082  47.9098701
  67.5479698  11.5814364  35.0197005  67.1442270  11.8673384  35.8391428
  67.8196001  12.3928380  34.5906615  26.8921800 101.3395700  21.8748069
  26.9326492 101.0961014  22.7996397  25.9758659 101.5747863  21.7289352
  80.5010700  17.7003169  25.8697724  81.1759567  18.3651686  26.0066342
  80.7219410  17.3048699  25.0265217  41.9776487  24.6417451  31.3868070
  42.5608110  25.3967047  31.4654708  41.2310171  24.8565459  31.9459438
  84.8002433  73.2464754  63.9891032  85.4214620  73.7497389  63.4627513
  85.2996444  72.4862229  64.2871717  67.1562290  32.1932101  17.8064752
  67.7356386  32.8224468  17.3768520  67.6525259  31.3747334  17.8106797
  63.7903357  14.4347596  15.7460713  63.0578184  13.8586760  15.9646451
  63.9157486  14.9704444  16.5293634  75.2984285  26.2714219  44.7172403
  75.8975124  26.9878149  44.9272633  74.8349428  26.5685487  43.9342117
  46.0562801  11.0373282  14.3326938  46.9970322  11.1091077  14.1712713
  45.9752989  10.3210962  14.9625242  70.0438547   7.8990930  48.4818363
  69.5288229   8.4562558  47.8982687  69.5340490   7.8641057  49.2912245
  20.0438118  44.9899006  15.3718960  19.9203980  44.5530272  14.5291972
  20.9937000  45.0477219  15.4748642  23.8180542  37.1912003  22.4740720
  24.2666626  36.3476729  22.4153948  22.9206634  36.9685078  22.7217197
  39.9691677  48.1859875  45.4175520  39.5421100  48.5639954  44.6488094
  39.7075987  47.2652674  45.4083490  57.2796345  22.4814558  53.9929676
  57.5578976  21.7011690  54.4725037  57.7655506  22.4423051  53.1692076
  21.5432496  59.5658866  47.4823475  20.7165094  59.4794599  47.0077276
  21.3668771  60.2263681  48.1523418  24.0407748 101.1798108  29.5643592
  24.4245715 100.3903532  29.1826653  24.7927566 101.7308543  29.7813964
  73.2797289  26.3265848  19.1155565  73.4672689  26.6038489  20.0123215
  72.4641895  25.8301473  19.1839445  92.2705172  47.7801442  89.4002511
  93.1170749  47.4757585  89.0732627  91.8698930  47.0022398  89.7883233
  42.6447153  26.5180993   5.5423158  41.9505739  26.6746354   4.9020842
  42.4762535  27.1532393   6.2383407  69.6307564   2.2411498  22.3651624
  68.9255428   1.8026356  21.8891239  69.3858624   3.1664583  22.3571825
  47.5183821  14.1133654  29.9405885  48.4359455  14.1779923  29.6757650
  47.3983431  14.8288667  30.5649900  71.1382103  15.3989398   0.2713308
  70.9553909  14.8128676   1.0057206  71.4260674  16.2144399   0.6816123
  39.3176174  44.9127817  53.1319332  38.8506222  44.2677307  53.6630201
  38.8228106  45.7236242  53.2499933  68.9584017  14.6822464  36.7733622
  68.1722879  15.2283704  36.7761064  69.6226978  15.2164793  37.2087216
  33.8641763  13.0667353  66.2309456  33.7305069  13.9300287  66.6222095
  33.0886626  12.9274261  65.6874323  70.5289936   8.2040071  19.6047771
  69.7400570   7.9405034  20.0784612  70.7091188   7.4727362  19.0139902
  30.7416892  25.4018092  48.1356382  30.3676128  24.5258784  48.2307386
  30.0531697  25.9910440  48.4438181   6.0573473  27.3840987  80.1427046
   6.5160170  26.7648255  79.5749417   5.1713505  27.4277889  79.7830824
  70.5323792  15.1203108   7.3755425  70.1844883  14.9678648   8.2541573
  70.5488014  14.2531192   6.9706464  99.2661953  26.1471820  41.4882755
  99.3476868  26.1682630  42.4417686  98.3638191  25.8692455  41.3311052
  93.4981250  33.6653816  63.7351278  93.4892796  32.7086961  63.7050131
  93.7362336  33.9307832  62.8468159   2.2100712  46.3357401  37.1968460
   1.8710804  45.9075928  36.4107132   1.7942736  45.8691835  37.9218745
  75.5195284  38.6418509  13.5802317  76.2826347  38.7088704  14.1541731
  75.0252914  37.8980422  13.9247715  32.4398017  37.6772976  63.8901043
  32.2899532  38.3471942  64.5571995  32.6247978  38.1716323  63.0915833
  56.2141800  14.7698414  44.4151974  56.6096115  15.6415451  44.4145346
  56.0525465  14.5794547  43.4911537  14.7600789  85.4494015  35.3620791
  15.3319783  85.9921435  34.8193097  13.9063449  85.4962519  34.9317670
  38.8137007  32.9206729  38.1987572  38.2055879  32.7615166  37.4768853
  39.5333123  32.3084760  38.0451155  51.1814690  29.3655992  63.3088684
  51.4702272  29.1814542  62.4150324  50.3169966  29.7630525  63.2042027
  20.6751585  30.2115059  67.4417686  21.3793039  30.2904725  66.7982054
  21.0143828  29.5984530  68.0939388  64.7440910  23.8147831  10.1923835
  63.9463663  23.4854198   9.7783923  64.5445108  24.7263670  10.4054964
  36.1348724  23.9103413  53.2183552  35.4071593  23.2982254  53.1089163
  35.8283329  24.7217011  52.8134346  57.6434612  64.0696096  33.9091206
  58.3244514  64.2535591  34.5561504  58.0632687  64.2370605  33.0653477
  40.7496071  26.0345531  38.1559086  40.9070015  26.9697666  38.0261612
  40.3498220  25.9770918  39.0237236  39.8729038   6.9129360  33.2974386
  39.7381425   7.7286077  32.8149962  38.9901280   6.5743953  33.4468603
  67.6622677  18.9716554  24.0919805  67.5454235  18.1042552  23.7044287
  66.9769049  19.0309036  24.7575641  71.8932199  38.7042046  11.9700658
  71.7644405  37.7727461  11.7910910  71.9076490  38.7648082  12.9252362
  94.5026207  28.3644676  15.0774407  94.9427986  29.1285729  14.7051275
  94.5147514  28.5177779  16.0222054  44.5154758  74.5917526  47.0975876
  43.6503978  74.8926107  47.3757076  44.4285770  73.6407868  47.0316696
  42.1786261  30.6394434   9.8703456  42.4774456  30.7193780  10.7761872
  42.9695845  30.4264331   9.3751293  57.0024824  16.4791989  60.8433580
  57.3170948  15.6191218  60.5649424  56.9752693  16.4265382  61.7987204
  69.2915487  18.3813393  39.7395635  69.9250174  18.5726774  40.4311800
  68.6554766  19.0946078  39.7933435  28.0332513  89.2360369  76.2161398
  28.0639882  90.1754788  76.0352087  28.6427493  89.1121880  76.9437408
  40.8083196  97.6392481  19.7064376  41.1139865  96.7321685  19.7044766
  40.0231977  97.6286045  19.1589868  31.8105173  27.5966287  43.1323242
  31.9749069  27.1766067  43.9765930  31.1442590  28.2579136  43.3194923
  34.0847964 103.7240160  70.7256651  33.9387746 104.6027626  70.3753614
  33.2983728 103.2355054  70.4825068  75.5218697   2.7497327  48.6925983
  75.8169079   1.8394254  48.6697340  74.7629070   2.7409428  49.2758083
  53.9092016  47.4879599  21.6053104  53.8493299  46.7915916  20.9513068
  53.8475180  48.2979631  21.0990310  25.7636542 104.9055454  43.5947752
  26.0530372 104.0925596  44.0089512  24.9218841 105.0982815  44.0076971
  71.9493770  60.3896600  89.1513895  71.5858983  60.9270858  88.4476224
  72.0238732  59.5146721  88.7704987  56.2857389  25.3724885  30.2226400
  55.3495169  25.4936361  30.0643778  56.3270378  24.7965121  30.9860373
   8.4373470  94.2788175   2.6186302   8.5294719  93.8355568   3.4619954
   7.5939508  93.9776853   2.2806464  83.0937194  93.9548409  77.5108973
  83.9437102  94.0612614  77.9380063  83.1399964  94.5214998  76.7408398
  35.2219939  27.1476555  30.4254293  35.3587198  26.2435555  30.1423407
  34.9892211  27.0761752  31.3511395  25.5840588  24.7399068  43.1317091
  26.5198946  24.9311280  43.0694485  25.5273986  24.0245342  43.7651682
  51.9009256  11.4141536  60.6031466  52.3145342  11.4149606  59.7399187
  52.6078796  11.1872137  61.2072515  94.4718647  14.5303762   2.9407534
  93.8809204  13.9293611   2.4871050  93.8968086  15.0612974   3.4918204
  68.4074211   5.2428514  26.7878580  68.9425421   5.7745832  27.3770452
  68.0796051   4.5316723  27.3383045  35.9488058  11.7050982  -0.0571557
  36.5970874  11.7989540   0.6408079  35.8148026  10.7604551  -0.1341341
  64.6554852  23.4286475   5.4745758  63.7341881  23.1912780   5.5799359
  65.0508404  22.6696682   5.0457686  39.4914412   3.6536580  11.7946327
  38.6843586   4.0591928  12.1114779  39.8390388   3.1865239  12.5543654
  78.2147026  26.0101962   6.8264937  78.5817719  25.5374813   6.0794765
  78.0475473  26.8918467   6.4933491  49.2519855  14.2010391   6.0815281
  49.7660971  13.6103261   5.5310917  49.8841715  14.8483980   6.3937747
  37.1215768 102.8327904  26.8400502  37.2199197 102.1116931  27.4618030
  37.1780296 102.4167316  25.9798527  31.5655894  89.1258505  15.7099819
  30.9376044  89.7463516  15.3400600  32.2028203  89.6741727  16.1677063
  65.3542519  16.1124325  60.5890894  65.9598064  16.6064727  60.0364017
  64.9339962  16.7757940  61.1364174  24.9398418  97.0792070  32.4500918
  25.1205821  96.2672899  32.9237533  25.6345267  97.1333537  31.7938066
  47.7383089  29.8590827  44.1265631  46.9155502  30.2218986  43.7984371
  48.3026934  30.6217241  44.2533636  32.8479004  29.7048521  36.3788152
  33.7875438  29.8865819  36.3955140  32.4435043  30.5030060  36.7188835
  70.1729536  33.5816598  25.8939314  70.2961922  34.1096759  25.1051068
  69.3693447  33.0884910  25.7289028  74.7475910  25.8654928  24.2443800
  74.5826769  26.5787411  24.8610735  74.1247129  26.0150218  23.5331154
  38.0155277  20.4271936  31.4713144  37.0881605  20.4704523  31.2381816
  38.4078550  21.1830759  31.0343337  60.6126928  21.2184525  37.4114466
  61.2975264  20.5503893  37.3810291  60.4246473  21.3264108  38.3437634
  58.8572598  13.8986814  62.2494221  58.1903028  13.3329093  61.8604374
  59.0787935  14.5197701  61.5555859 109.3358802  44.0612971  81.5858958
 110.2587508  44.1243821  81.3398025 109.1884707  44.8145783  82.1577958
  70.2974033  24.6317005  45.8094788  69.8466396  25.0740004  45.0901651
  71.1575317  25.0500822  45.8464527  40.9238715  83.9042393  28.7902880
  40.7926030  84.8304001  28.9933276  40.2154966  83.4551731  29.2515612
  55.2163458  25.4160953  54.5864010  54.2640162  25.4012632  54.4911194
  55.4786062  24.4983697  54.5140934  37.9855013  16.2729084  29.0587091
  38.0285621  15.4962552  28.5008669  38.8089037  16.2632382  29.5467138
  38.5129876 103.8964639  12.7042055  37.9362483 104.6590157  12.6582074
  37.9469009 103.1858379  13.0055094  60.3107309  32.4851322   5.2748364
  60.5366373  32.2046113   6.1616886  61.0432768  32.1872497   4.7355038
  45.9241009  15.2198827  35.3765607  45.1790524  14.6189630  35.3710580
  45.8991146  15.6402469  34.5169663  64.0719460  97.1493351  66.5871862
  64.6341275  97.6512539  67.1773199  64.6575116  96.5057623  66.1882356
  62.5841475  48.1899214  13.1233847  62.3588657  47.6816607  13.9025819
  63.0581236  48.9495993  13.4617221  92.0366478  34.1007042   8.1610960
  92.4514103  33.6950445   7.3997498  92.6686954  33.9815831   8.8700098
  50.2408934  13.4559882  22.9072976  49.7893429  14.2707837  23.1273913
  50.8811665  13.7090802  22.2422934  63.2748175   4.4445771  41.1111212
  63.8069630   5.2098727  41.3287830  62.9557323   4.1266644  41.9557238
  96.3493537  57.5447303  69.8136858  97.0865153  58.1211608  69.6123055
  96.5936421  56.7014074  69.4324211  68.0733608  75.5662024  80.1875297
  67.3031329  76.1066424  80.0117353  68.0834245  74.9251401  79.4767777
  49.2932463  53.1811380  29.3176508  50.1501989  52.8461123  29.0537763
  48.7241888  52.4114609  29.3156290  96.1555099  10.7181191  29.3337464
  96.4055920  10.1584816  30.0689340  96.7918587  11.4329910  29.3496227
  17.5025029  89.3304244  59.6490431  17.2957511  90.2301494  59.9019861
  17.9758210  89.4170085  58.8215733  52.4679804  19.2632329  39.3352032
  52.3685312  18.5901344  38.6619425  52.4163008  20.0904369  38.8563561
  56.3036680  45.5937719  14.6741509  57.0743418  46.1565304  14.5993412
  55.5623055  46.1832857  14.5359993  62.7430916  33.7942934  36.9532132
  63.4908676  33.2528949  37.2061086  63.0777979  34.6907735  36.9761729
  44.6090174  23.4892058  34.6671319  44.8011160  23.6706734  35.5871296
  44.0828228  24.2356849  34.3805647  46.7440410 100.5463034  39.9418545
  47.4450584 101.1023754  40.2818298  46.1581702 101.1509955  39.4865131
  10.5619378 104.2488757  61.1907005   9.8448034 103.6324996  61.3391352
  10.1739593 105.1098558  61.3469648  58.6135769  27.0781636  23.3393717
  57.7345514  26.7383981  23.5070276  58.9592886  26.5162897  22.6458216
  85.5741215  19.4202161  31.7979455  85.9911060  20.2629519  31.6186285
  86.3030148  18.8056636  31.8832207  27.7706618   7.7061959  80.6391815
  27.7158160   8.5531350  80.1965526  27.1610685   7.7797910  81.3734904
  29.6823688  97.0744583  53.0722237  29.0413470  96.8130359  53.7332678
  30.3486819  96.3878128  53.0999947  93.9162731  43.2992506  12.4755359
  94.3009186  43.7634754  13.2190228  93.9189434  42.3793602  12.7401614
  72.7130222  21.7542148  33.0717707  71.9847488  22.3661089  32.9648399
  73.4750223  22.2282887  32.7388477  56.8148708   5.6868809   4.6266925
  56.2846279   5.3358519   5.3421295  56.6470051   6.6290849   4.6441203
  74.0545988  21.6483331   8.9539671  74.6989584  22.2207451   8.5375828
  74.5571566  21.1520147   9.5999819  84.3287086  26.2216449  52.4719524
  85.0684357  25.6148481  52.4428606  84.2431736  26.4508176  53.3973694
  93.2070065  34.1844964   5.3221911  94.1448784  34.2944002   5.4789096
  93.1471634  33.9168572   4.4051191  45.6077051   5.1912516  25.0192022
  46.3008785   5.1781362  24.3592262  45.5550385   6.1069244  25.2930689
  40.8732462  43.4930658  67.7084398  40.1748276  43.9181328  67.2106838
  40.4702950  43.2761145  68.5491514  28.9809918  43.3096647  49.0791607
  29.1592216  43.5722589  49.9822140  28.1891060  42.7750587  49.1370296
  26.3264747  97.8778735  18.4779525  25.4255290  97.7356759  18.7683129
  26.5843291  98.7015489  18.8918376 109.5851182  94.4682991  86.6156406
 110.4254531  94.8095619  86.3096911 109.7738122  93.5674250  86.8784103
  61.1270523  25.4636788  14.1874659  60.7128572  25.5123949  13.3258963
  61.9661283  25.9104872  14.0754461  85.1141644  33.1087422  35.2889729
  85.0143719  33.3412766  34.3658257  84.2178059  33.0013132  35.6071568
  28.9172692  94.8725012  50.2686405  29.6151920  95.0933442  49.6519089
  29.0742536  95.4418698  51.0219049  87.2105885  24.5846725  24.4780993
  87.1646595  25.4938912  24.7738147  86.4966106  24.1459942  24.9407339
 105.9344101  34.2178321  30.6864119 106.2216663  34.7960901  29.9797773
 105.8333111  33.3621407  30.2695155  81.5037346  18.6953652  48.1981993
  80.6149387  18.3651662  48.3295250  82.0649433  18.0500698  48.6281681
  30.2111044  56.9257521  83.8567344  29.6738711  57.1084818  84.6275941
  31.0708418  57.2867956  84.0729109  63.1081533  50.9005976  15.3039610
  63.1429815  51.2711859  16.1858249  63.6104822  51.5131855  14.7667181
  82.7143955  54.7927999  16.3094807  82.6764774  55.6052017  16.8142545
  81.9385529  54.3039036  16.5838504  27.7126069  95.9359912  16.9565463
  27.3994060  96.7669240  17.3138833  28.6516233  95.9341738  17.1422184
  25.1103711  23.9387155  59.2139435  24.9841237  24.8479533  58.9426804
  24.4096565  23.7778068  59.8458767   4.3779702  97.1419499  24.1020894
   5.1258416  97.7391491  24.0854740   4.7491307  96.2871686  23.8834119
  74.8210192  39.6476674  32.7309370  75.4164600  38.8998318  32.7801657
  74.5836115  39.8251200  33.6410904  58.9216280  29.8358774  22.3138976
  58.8502264  30.3012729  21.4805079  58.8813210  28.9097738  22.0752764
  41.7199707   1.3613527  32.8675652  41.5973234   1.5200913  31.9316220
  42.3810863   2.0001414  33.1342244  87.3903465  11.5840876  25.2209568
  87.9346275  12.3634291  25.3333044  87.9765892  10.8525920  25.4145217
  79.7486496  89.1387177  57.7724648  80.0507832  88.5404205  57.0891047
  78.7959051  89.1458321  57.6804876  41.2316084  38.4518957  73.9211750
  41.6112614  38.4927225  74.7989178  40.4444218  38.9937901  73.9752626
  49.9715090   4.6244138  24.2938638  50.1950026   4.8875186  25.1866436
  49.0388060   4.8233563  24.2119241  62.8682852  21.3831973   4.5946065
  62.7347898  20.4354930   4.5781422  63.4813213  21.5511870   3.8789299
  53.0278063  31.3645840  12.8718138  53.5970306  31.8697333  13.4523630
  53.5496807  31.2322164  12.0803881  51.5739489   1.9733946  42.4232721
  50.9432077   2.2738607  41.7689657  52.3875046   1.8521395  41.9337225
  75.2202082  18.1288505  32.0572782  75.9821081  18.4562814  32.5353241
  74.9871922  18.8408148  31.4614248 104.9891758  32.1065784  32.7173328
 105.7670307  31.7737460  32.2696829 105.2844810  32.2845936  33.6102676
  64.4854212  31.5905690  36.9960141  63.6301899  31.3582325  36.6343093
  64.9774551  30.7695150  36.9938493  16.9280381  90.4449597   1.6778199
  16.6670079  89.5379070   1.5185975  16.7047734  90.9040931   0.8681399
  91.8661213   4.8465261  47.4144554  91.6877556   4.1400987  48.0352449
  91.5972996   5.6423080  47.8734732  77.4775743  33.3613563  18.3446515
  78.1216335  33.5800791  17.6711655  76.9478750  34.1534138  18.4357357
  93.1041527  30.0685096  46.1574984  92.6786232  30.8675981  45.8466721
  93.8788986  30.3769755  46.6274405  37.1781917  90.0741259  51.2789631
  37.2384401  89.3789176  51.9341660  38.0529638  90.4622868  51.2604809
  70.3234625  27.5342917  33.4030795  70.5789423  27.5912905  32.4823666
  70.8715677  26.8359017  33.7609363 101.1148167  35.1682258  40.9088326
 100.3428173  35.7330251  40.9440851 100.9332275  34.5587540  40.1934290
  68.6755991  48.0933285   7.1793532  68.2589293  47.9446030   8.0281740
  69.4629765  47.5494289   7.2004688  84.4687939  32.3844671  30.0432920
  85.1455021  32.9788804  30.3672814  83.8543892  32.3007870  30.7724953
  94.2111968  73.5346448  80.1058618  94.6181439  72.8120005  79.6279398
  94.9465226  74.0112173  80.4910937  55.8940983   5.2819955   1.9729133
  55.5505085   4.3908542   1.9093230  56.1701632   5.3677070   2.8854230
  84.3715191  26.5271854  37.3541999  85.2191257  26.8869996  37.0928168
  84.3455219  25.6590152  36.9519138  74.8225355  34.8099494  37.5857997
  74.5522213  35.7275128  37.5506234  74.0244770  34.3337727  37.8151178
  50.2274609  22.0148945  52.1695614  49.9465990  22.2881913  53.0428648
  50.5188084  22.8232479  51.7477703  84.3845177  30.3575563  18.1773400
  83.4389305  30.5047607  18.1563365  84.5443630  29.7267413  17.4753761
  80.4960537  13.3253217  16.7304409  80.8533287  12.5609076  16.2784922
  80.8997059  13.3009470  17.5980294  59.6776009  41.9229889  26.0853243
  60.5086184  42.3387384  26.3151050  59.6128321  41.1737394  26.6774869
 104.9575615  18.4918022  33.6005163 105.5008030  18.3780861  32.8206491
 104.0614510  18.3654189  33.2887006 101.2620926  54.8560858  42.6243114
 102.2191048  54.8737574  42.6174450 101.0146046  55.5307436  43.2566261
  68.8106823  14.3913984  28.3058238  68.6790323  15.2175426  27.8406501
  68.0830050  13.8380980  28.0219579  55.3708172  44.4614744  27.4302602
  54.9719000  45.1375341  26.8824959  56.0284138  44.0537834  26.8667150
  65.0847816  33.7393761  34.2503047  65.1141453  34.5916653  33.8155937
  64.4401693  33.2379389  33.7510371  46.0181665  30.4331970  15.5361509
  45.3356934  30.8866882  16.0309327  45.7776976  30.5661607  14.6192384
  40.9378386  25.3576159   8.4594142  40.9860277  26.2968302   8.2811326
  41.4727116  25.2349472   9.2436951  67.3075199  26.7369509  55.2667761
  68.1051064  26.8344092  54.7465897  67.1817303  25.7906795  55.3373480
  70.5664158  23.3816051  32.5653934  69.9131250  23.6914659  33.1926370
  70.0829840  22.7901912  31.9885445  70.6774282  44.1705847  14.4014585
  70.8583975  44.6319675  13.5825515  71.1938810  43.3668089  14.3426907
   7.3683825  63.1757736  80.6986526   6.6584959  63.5515594  81.2193057
   6.9396296  62.8550565  79.9052147  92.4859715   9.9839669  14.5328259
  92.8097153  10.8521867  14.2927873  93.1577396   9.6306598  15.1160324
  71.6351032  73.5759497  23.5701442  70.9148026  74.0170813  23.1198144
  72.4134207  74.0758085  23.3239770  42.7671194  22.9997087  48.1097507
  42.0945835  23.6505842  47.9090309  42.9117584  23.0874634  49.0518808
  57.8790140  10.1960385  32.8854990  57.7070189   9.4203162  32.3517370
  57.3818111  10.0482774  33.6899781  24.5141292  32.9401922  60.2357149
  24.2752314  33.3692336  59.4140768  24.0785789  33.4587741  60.9121752
  48.7335014  24.0563297  48.0723619  48.9579344  23.4097004  48.7414885
  49.5309734  24.5742726  47.9627848  95.3473854  31.4512134  25.8252883
  94.4635010  31.0862041  25.7834387  95.3139400  32.0773864  26.5484881
  49.3710327  30.7280445  78.5266447  49.8314285  30.8709669  77.6996994
  48.6688423  31.3785505  78.5253716  59.4061470  30.6655908  40.5215311
  60.0365591  31.1527014  39.9909306  59.8671484  30.4924059  41.3423347
  76.3549232  30.5813313  33.3721209  77.2728348  30.4358411  33.6012578
  76.0177755  31.1368752  34.0749264  56.3200903  66.7332363  34.6982694
  56.4439297  66.8192434  35.6435204  56.5101385  65.8132601  34.5145369
  56.5006781  36.7381001  16.4908981  56.8524408  35.9985733  15.9953213
  56.7642641  36.5675282  17.3951435  77.4412155  19.4510484  39.1364646
  78.0395412  19.2966378  38.4054375  76.6182566  19.7099710  38.7218237
 105.0010680  74.8584735  90.0862801 104.7198199  75.4844772  90.7535510
 104.4838380  74.0724718  90.2620867  54.4887538 100.1229090  22.0671558
  54.8057552 100.0519005  22.9675460  55.2161308  99.8063598  21.5314794
  84.2477417  50.4281855  18.4895718  84.4710064  50.3277922  17.5642049
  85.0848675  50.6003523  18.9206243  16.3442183  38.5593390  27.0493722
  15.4687226  38.8994718  26.8648505  16.7374337  39.2118359  27.6289082
  27.9316306  20.0848126  27.4394035  28.8611889  19.8796368  27.3391104
  27.9051256  20.7423306  28.1345296  86.1206245  19.8842311  36.9046855
  85.6321621  20.0337791  37.7141738  85.7923031  19.0465045  36.5781140
  79.0439463  24.5693946  45.1991272  78.2750988  24.2748523  44.7109222
  79.0262365  24.0556335  46.0065746  91.8015099  32.7924013  57.2938204
  91.9345379  31.8721032  57.5209475  91.9666767  32.8329134  56.3518476
  75.9615564  44.5741940  11.2401605  76.2707520  43.6957455  11.0189104
  75.1277351  44.6581793  10.7776451  64.1627026  19.6644330  28.9057803
  63.7742615  20.0304389  28.1111813  65.1011658  19.8269534  28.8103914
  20.4803172  85.8168828  89.6773597  20.9459963  86.2364828  90.4007613
  19.6135607  86.2230026  89.6828361  68.7518978  11.6704535  15.6805193
  67.8099775  11.6850972  15.5108130  68.8261366  11.4016736  16.5962040
 106.2070465   0.5605407  20.0974011 105.8219528   1.3144539  20.5441093
 107.1466637   0.6385435  20.2625489  98.4243964  86.9865834  85.3098080
  98.0451011  86.2069475  84.9041758  99.2362498  86.6768062  85.7112596
  90.7028389  53.0692911  18.2829523  90.8545113  52.2904730  17.7475357
  91.1667538  52.8915262  19.1011310  55.5807066   9.0451616  34.0776920
  55.8058882   8.2314223  33.6267447  54.7316170   9.2942190  33.7126613
 106.3699055  11.8657911  34.0252662 106.3427544  12.0325315  34.9674416
 105.7386589  12.4825299  33.6545992  12.3903191  24.5017099  25.9752893
  12.2993207  24.3953013  26.9221950  13.1629109  25.0568748  25.8698082
  50.3631973  12.9606223  41.4782095  49.8677492  12.1466565  41.5688896
  50.7390356  12.9155695  40.5990362  34.1934915  86.5665248  21.2093019
  33.8531871  87.4605492  21.2431192  33.8412709  86.2068108  20.3951907
  82.4594307  14.4215548  25.5562711  82.8489017  15.0524151  24.9508333
  83.2072449  14.0274382  26.0053468  57.3076677  30.3214383  25.0682616
  56.8137646  30.3885102  24.2510772  58.0183649  30.9552646  24.9712896
  96.5879250  14.0792012  31.0110354  95.9167576  14.7096574  30.7497168
  96.9335461  13.7410820  30.1849294 106.7189407  68.3603334  56.6637993
 107.0527172  68.4423685  55.7704306 106.9668293  69.1815853  57.0884466
  63.6696005  40.2459860  88.7700939  63.7833023  39.3510032  89.0899563
  63.3943033  40.7425833  89.5407009  10.0001378 102.7580388  73.7821722
   9.5221133 102.8306841  72.9560661  10.8085962 103.2489375  73.6350441
   3.8162651  93.3940947  70.1216463   3.9717188  93.2292091  71.0516349
   3.9713660  94.3326723  70.0156120 107.8854846  81.3136613  84.6788183
 107.8591107  82.2534096  84.8588482 108.8181018  81.0986125  84.6645138
  65.8856964   7.6147479  28.4066248  65.8536577   8.5176998  28.7226677
  66.1507463   7.6910716  27.4900246  31.0970354  11.0018909  40.7850599
  31.3420582  10.8389676  41.6959143  31.9210625  10.9444392  40.3014183
  78.9361238  47.4860001  31.4677858  78.5709429  48.3363056  31.2231302
  78.1714153  46.9430256  31.6591763  65.6114721  14.5380926  31.3332033
  65.1259995  14.0340424  30.6801486  66.5244770  14.4777524  31.0521173
  65.8799505  66.6918421  22.4945378  66.2118149  66.3061571  21.6837692
  66.3945580  67.4909592  22.6078057  29.6972366  86.2173811  40.1926088
  28.7593074  86.2665144  40.3772879  30.0501247  87.0432643  40.5237007
  79.6325350  63.0603695  13.8806021  78.6851263  62.9586983  13.9717734
  79.8611641  63.7468100  14.5073032  49.9983597   5.6222111  41.7830992
  50.9287548   5.6831056  41.5665674  49.5618868   5.5191350  40.9374619
  62.9218435  40.0488281  23.5241771  62.0557690  39.6581364  23.6404109
  63.4952068  39.5333910  24.0914607  45.1506472  22.2378182  17.6519144
  44.8616838  22.3576117  16.7472696  44.5620203  21.5706825  18.0050182
  84.5821857  36.9003010   2.2230235  84.2468739  37.4381161   2.9403463
  85.0042725  37.5244975   1.6327292  62.1197939   9.7011280  13.2301569
  61.5722513   9.4047683  13.9572024  61.5071630  10.1148450  12.6220846
  57.7669048  34.5092654  15.7855916  57.6853037  33.9383197  15.0216591
  57.5896931  33.9371204  16.5322363  74.4786787  61.7033672  10.2698958
  75.0382853  61.5708399   9.5047098  74.9267006  62.3778582  10.7803512
  91.4695740  54.7319126  13.1507838  91.2013626  54.3001842  13.9618957
  92.3983288  54.9253511  13.2782137  77.2699165  48.9713335  20.9682631
  77.7577782  49.2195797  21.7535019  77.6825953  49.4691849  20.2625179
  84.4371510  49.4273663  21.2446618  84.0950394  49.6339798  20.3748894
  85.3866386  49.5077753  21.1538792  66.1415386  49.6736860  18.1414199
  66.5960836  48.8317394  18.1686771  65.2272367  49.4468784  17.9715967
  98.4171581  32.9086113  39.8116755  97.9723167  33.4171844  39.1336632
  97.9187393  33.0854893  40.6094980  82.0156956  25.2505469  36.1431026
  81.0883808  25.4728270  36.0599613  82.4077988  26.0136557  36.5675497
  74.0942621   9.9718392  50.9999704  73.2174492   9.9952042  50.6167173
  74.4995308   9.1907102  50.6233692  57.6945543  14.2380154  13.5030210
  58.0958319  13.3889508  13.6882222  56.8408060  14.0226507  13.1275773
  78.0343771  19.2324984  32.4739575  78.1719208  20.1290512  32.7797461
  78.4066629  19.2204106  31.5922046  65.3724194  58.0521250  16.7832744
  64.4830608  57.8720236  16.4785886  65.4521179  59.0050125  16.7398286
  94.4331169  20.1947141  64.2432213  94.5903206  19.5966256  63.5125971
  93.9216805  19.6804941  64.8679113  11.1522098 104.5431930  36.6836047
  11.2457080 103.8906419  37.3776269  12.0339818 104.8969350  36.5670800
  52.1918774  32.1826124  25.3247547  52.2948074  31.7709041  24.4667721
  52.0149088  31.4543486  25.9201932  50.2150679   5.7403845  21.4421177
  50.6238413   5.0854492  20.8762598  49.8897362   6.4085823  20.8388734
  87.5883865  23.0615163  42.1326685  86.7290401  23.2460213  42.5117636
  87.6923466  23.7181473  41.4440060 102.9003429   5.9173805  54.2673397
 103.6764908   5.7919568  53.7213659 102.2425365   5.3361398  53.8856506
  71.3344288  56.0423994  22.5957179  71.5150547  56.9017887  22.2148490
  70.6611729  56.2094498  23.2553029  51.5287828   4.5929101  16.3338745
  51.7779970   4.2340767  15.4821932  52.3545980   4.6720636  16.8113601
  81.2369156  33.7105513  18.9252651  81.4045620  34.6146011  19.1913962
  81.1655807  33.2277799  19.7487187  70.8403921  35.6797862  31.5071034
  69.9924564  36.0573936  31.2733459  70.6876469  35.2508712  32.3490858
  80.9248160  75.1028239  80.1580874  80.7809876  75.7561195  80.8427397
  81.3060426  75.5966460  79.4321123  86.8148326 101.3772213  86.1168752
  86.4870643 100.6831324  85.5449996  86.5356587 101.1162722  86.9944868
  23.5677428  10.6485053  86.1119432  23.8207288  10.8191415  85.2046863
  24.2619844  11.0507937  86.6338865  86.9916534   8.3386368  25.4184508
  87.8676414   8.6755419  25.6065178  87.0248508   7.4209780  25.6886983
  14.0391150  68.0773556  85.2793852  14.6475878  68.6739802  85.7153181
  14.0505495  68.3514809  84.3623487  36.1608243  22.3496914  55.7283592
  36.6077304  23.0238271  55.2164507  36.8101859  22.0686460  56.3730097
  81.2930965  53.8363171  26.0966611  80.3623390  54.0441084  26.1788130
  81.3613701  52.9255533  26.3831663  71.3768625  18.4742701  28.3706117
  71.2182236  18.1183589  29.2449069  72.0545578  17.9083061  28.0009604
  67.0786858  23.7476707   8.9983380  66.2559557  23.6294532   9.4730717
  67.1860027  24.6969056   8.9377797  58.4793282   3.8538292  48.2419348
  58.2941389   3.7248474  49.1721535  59.4287157   3.7546849  48.1707382
  21.7191215  97.2614006  45.2644777  22.2910590  97.6741800  44.6173859
  22.1724887  97.3850778  46.0983801  77.2986984  10.0216472  45.5897713
  77.8642273  10.6910980  45.2047491  76.5923929  10.5154359  46.0063553
  65.2055693  35.1679707  15.9029007  65.8848858  35.4933619  15.3122377
  65.5948973  35.2334809  16.7748904  41.5820885  25.6480742  56.2966156
  41.7759418  26.5643311  56.0988140  42.2683239  25.3850698  56.9099188
   9.5137683  32.3684764  38.0371904  10.2649108  32.6738930  37.5285220
   9.1867534  31.6117835  37.5506639  47.4823666  36.7662954  14.8382187
  46.7300415  36.4084697  15.3096020  48.2389593  36.5127301  15.3668988
  84.4577599  52.1032190  27.8896642  84.3938351  51.1491203  27.8467464
  84.8214626  52.3572969  27.0414901  72.3872137  37.1988583  38.1127119
  73.3031034  37.3772550  38.3261466  72.1395636  36.4838314  38.6989164
  85.3853321   3.2306352   6.4209372  85.0369453   3.1050205   7.3035944
  86.2439156   3.6312833   6.5570974   9.1257850  17.8562009  25.1375818
   9.9069969  17.4296677  25.4897213   8.9738933  18.5984635  25.7225657
  30.6597185  28.0688977  37.0616698  30.0921130  27.8988242  36.3099170
  31.4437675  28.4678459  36.6843915  50.5321264  59.0297318  16.4191270
  50.8029127  59.9416637  16.3128805  50.4287195  58.9191532  17.3642778
  89.9420166  32.8694510  24.1231918  90.0473213  32.0315313  24.5737839
  89.9489021  32.6437187  23.1930137  93.3658600  14.2637599  21.1111259
  94.1291332  13.6874425  21.0723138  93.5185337  14.9101722  20.4218698
  90.5513668   8.5086185  35.5411315  90.7983589   7.6310837  35.2493119
  90.5353260   8.4477365  36.4962578  57.0270061  38.1269526  24.5992398
  56.8882704  37.3003054  24.1370320  56.5032291  38.7639189  24.1132760
  38.9824953  89.7482955  68.6001757  38.8341036  88.8117969  68.7312535
  39.0283957  89.8528087  67.6498059  34.9863052  33.1761599  48.7587976
  35.5838394  33.4558249  49.4523191  35.5089450  33.2247043  47.9583454
  30.0673814  96.5687564   9.0656489  30.6700893  95.9244779   8.6943316
  29.5192189  96.8368391   8.3281636  53.9865351  38.1621575  26.1184621
  53.7249470  38.1250596  25.1984453  54.9433899  38.1728029  26.0951638
  65.3659582  40.6265593  17.0895529  65.7870674  39.8046017  16.8379998
  65.4324484  41.1781025  16.3100576  74.9329424   7.6384574  36.4015985
  75.6166744   7.2862852  36.9714379  74.7537708   8.5105228  36.7532110
  69.8940134  57.0957422  24.9456716  68.9546108  57.2007751  24.7949553
  70.2427387  57.9865980  24.9141049  71.6497183  29.3391013   8.8132346
  71.1811972  29.6423650   9.5908916  72.0551872  28.5153627   9.0839458
  12.4414912  82.3237836  82.6612065  13.0686846  81.6350662  82.4409119
  11.6030398  81.9976890  82.3342619   7.6503936  13.6818087  43.2685757
   7.3449603  14.3027925  42.6072741   8.4872619  13.3636451  42.9299688
  92.0333481  34.9590158  23.9075685  92.4455261  34.1136742  23.7294078
  91.2292671  34.9475861  23.3883739   2.2937384 103.8834917  78.7165550
   2.3092213 104.5944702  78.0758551   1.6362467 104.1532051  79.3577985
  96.4828682   1.2726122  20.9737968  97.3052597   0.8831470  20.6767821
  96.1938667   1.8122256  20.2379107 105.0821828  69.4534969  72.1732334
 104.8217296  69.3501174  71.2579695 105.3297280  68.5721457  72.4528245
 101.8499374  40.2879715  16.6500616 101.1797237  40.8932114  16.3326728
 102.2452068  39.9300313  15.8551586  57.1615310   6.3107224  76.1868576
  58.0161758   6.6510602  75.9223012  56.5690417   6.5790006  75.4845623
 106.2885571  25.8227587  25.5877614 106.3298512  25.5664277  24.6664476
 106.8040276  26.6278791  25.6357074 105.1299619 101.6983997  90.6936546
 105.3856038 100.7856142  90.5605955 105.3638934 102.1345198  89.8743212
  59.2179108  43.4700489  14.5874691  59.1471720  44.1370296  13.9045596
  58.4237623  43.5779619  15.1108372  53.2097912  14.5690751  37.0718074
  52.5686026  13.9229763  36.7757201  53.7255955  14.7699058  36.2908816
  84.5038318  94.6849787  67.3061565  85.2915334  95.1212084  66.9813970
  84.2765569  94.0583765  66.6191724  87.5735664  45.0260210   2.9396701
  88.2699871  44.4955683   3.3267838  87.7259731  45.9072781   3.2808259
  65.8132744  38.0525541  17.0429766  66.3226604  37.8434610  16.2600088
  65.8148670  37.2426200  17.5531125   5.6838313  55.7674599  50.0254488
   5.5918304  56.2421656  50.8515406   5.0689308  55.0375652  50.0988722
  40.8642721  30.8870792  38.4486437  41.5433264  31.3253641  38.9615035
  41.2761068  30.7173085  37.6014113  93.0255699  39.5218778  22.2669697
  92.1473885  39.8565650  22.4486637  92.8766632  38.6826205  21.8314147
  20.8842746  82.4846458  24.4954038  20.7586948  83.2709885  23.9642406
  20.5254928  81.7754650  23.9619637  84.9575138  27.9991603  50.5943727
  85.8031845  28.2395625  50.9728861  84.5604420  27.4192047  51.2441587
  56.3251400  34.2369843   9.1077858  56.8770266  33.4828186   9.3148708
  56.9257832  34.9822497   9.1141015  77.0000696  36.7548990  21.8261170
  77.5359964  36.0580564  22.2048330  77.2802925  37.5478387  22.2832346
  69.4363260  39.0199018  30.6385875  68.6954165  38.4214616  30.7342649
  70.0563431  38.7432480  31.3133264  78.3458042  52.3353434   2.2610584
  77.5983143  51.7393255   2.2136229  77.9611683  53.1853533   2.4749970
  46.2058735  59.3447590  14.0512776  46.1592722  60.2825356  13.8651741
  46.0200739  58.9244223  13.2116187  92.4349785  51.0558271  43.6583948
  92.3970604  51.9951344  43.8386536  91.5823078  50.7234812  43.9389801
  73.6042690  37.4197102   4.7686940  74.1591072  36.6400504   4.7914252
  73.6881924  37.7473783   3.8732490  61.1504412  32.2016788  38.7636399
  61.5831757  32.8815651  38.2471871  61.2116146  31.4144874  38.2225132
  63.3496141  21.1580610  34.3529344  62.6332283  21.5864038  34.8214960
  63.6112881  21.7914653  33.6846852 101.9461441  20.8179498  45.7551003
 101.8747234  20.1396847  46.4267349 101.6149426  21.6100025  46.1784077
  95.4932690  37.6208663  28.2503533  95.0441170  37.8495622  27.4366021
  94.7948170  37.5679183  28.9027214   7.0250407  79.0371430  81.3919727
   7.9784384  78.9838373  81.3255939   6.7833319  78.3064043  81.9610343
  77.8110456  99.7955513  17.5921285  78.4516716 100.1994514  17.0067215
  77.1290016  99.4635582  17.0083237  65.8972406  15.2772892  24.7914886
  65.2056360  14.6871102  25.0908351  65.4330921  15.9751105  24.3290567
  95.7022953  44.3026352  55.9298325  95.7595634  44.6267223  56.8286753
  96.5786266  43.9677906  55.7396746 104.2028808  93.9524853  79.5757703
 103.7555169  94.2993033  80.3476599 103.4993648  93.7708628  78.9526251
  58.5030127  44.9076223  12.0704079  58.9011478  45.0776005  11.2166929
  57.7330303  44.3741083  11.8736422  80.2378273  10.0828290  13.5953736
  80.5941105  10.3271258  14.4495475  80.3903198   9.1399121  13.5330439
  84.9377632  53.3904982  14.9911046  85.4969883  53.0360365  15.6823802
  84.2837048  53.9122438  15.4561019  85.1111698  15.8339417  18.8416684
  85.7864571  16.0996807  18.2174945  84.3411446  15.6580067  18.3009803
  81.8267918  41.2287664  29.8166752  80.9173584  41.5101337  29.9166536
  82.1132565  41.6311932  28.9967871  46.5943098  21.1311984  38.3940125
  46.8042183  21.1702943  37.4609303  47.4015045  21.4001417  38.8325739
  72.8227711  46.9011545  27.3178101  73.1929111  46.2731218  26.6974878
  72.6036692  47.6646471  26.7836738  70.9327698   7.2050983  15.3478444
  70.0230837   7.3338252  15.0792754  71.4463329   7.4424708  14.5757413
  73.8713741   2.1987623  27.2323537  74.4704437   1.6680996  26.7072368
  73.4920359   1.5825287  27.8589225  81.2123108  52.3196745  15.8212352
  80.5286217  52.9825020  15.9185004  80.7839584  51.4971638  16.0583436
 107.1811199  21.8478584   9.2944002 107.6807976  21.0449576   9.4424087
 107.7303600  22.5422764   9.6582067  62.6014853  73.3644152   5.0622672
  62.7348518  72.4935675   4.6880046  62.7217770  73.9629412   4.3250251
  86.5402699  49.0906048  39.6352887  86.4225006  48.1406784  39.6373105
  85.7846260  49.4266605  40.1172638  67.8557682  24.9261022  43.8672829
  67.7934551  24.0356827  43.5215950  67.9463720  25.4786420  43.0909300
  81.0214806   9.8254770   8.3376569  80.5646420   9.8523080   7.4969351
  81.8322849  10.3108716   8.1852651  90.2522469  16.4116287  21.1262321
  89.3815994  16.7958021  21.0232115  90.7635117  17.0913088  21.5654111
  68.1627464  79.4640684  12.8484619  68.7096310  80.2287674  13.0284119
  67.2743130  79.8146057  12.7848661   7.4169914  41.8526220  39.6031260
   6.9386569  42.6773596  39.6882057   8.2729904  42.1066809  39.2582369
  29.8703575   8.0835968  18.9484310  30.6017804   8.3364457  18.3851194
  29.5926356   8.9010751  19.3617475  43.3663607  11.6516197  37.4591303
  42.6770592  11.1924016  36.9793224  42.9416609  12.4433541  37.7893138
  84.1246510  56.7279959  13.9542615  83.8571262  56.5645695  13.0498564
  83.3231831  56.6150331  14.4652522  78.0285311  23.9253831  15.9249616
  77.3526621  24.5837045  16.0863459  78.8522100  24.4104028  15.9753931
  81.7634964  36.5130472  28.4954548  81.3492680  37.2889900  28.8730240
  81.4669800  36.5021205  27.5854039  10.2339832  40.3002024  16.6014040
   9.4231025  40.7621241  16.3885117  10.1237861  39.4318771  16.2139785
  37.8823037  88.6091295  36.8308854  37.0929237  89.1388777  36.7191887
  38.0451675  88.2363502  35.9644318  81.8777561  10.6029868  27.6719117
  82.0955563  10.8840513  28.5606170  81.6734314   9.6718657  27.7584934
  67.2336054  29.5628524  48.3855200  67.5939226  28.7365484  48.7074327
  66.5366888  29.3018746  47.7834940  58.3190250  50.9927416  23.5905027
  57.4827528  50.6888723  23.2376027  58.9655352  50.3850651  23.2313561
  93.8888454  39.4536972  48.2994604  94.5877743  39.1224837  48.8634014
  93.1063938  38.9826322  48.5860014  79.9129677   9.9156672  48.4693432
  79.8557615  10.5019403  49.2238235  79.9713039  10.5015469  47.7146435
  80.8852954   9.1462775  86.9609231  80.1887412   9.6015283  87.4339870
  80.7114978   8.2175418  87.1141488  74.0728855  53.7719011  21.0917497
  74.9626017  53.9036608  21.4192796  73.7538481  53.0047369  21.5670466
  93.5803318  44.7790289  26.2645960  93.3842087  45.7109356  26.3611102
  92.9931164  44.3453169  26.8837142  55.1460648  59.3872213  17.6872361
  54.8231506  58.6712122  18.2343066  54.5503664  60.1143026  17.8681529
  34.9162188  78.9796149  88.9600839  34.7704115  79.7150957  88.3650724
  34.0436926  78.7581837  89.2854973  60.2343130  86.4376545  16.6180444
  60.2313662  85.7851601  15.9177029  60.8779001  86.1111641  17.2468758
  72.7655602  33.6546445  30.2365613  73.6283112  34.0406346  30.3879166
  72.1829033  34.4060946  30.1267362  79.6996403  27.7012110  44.6933413
  79.5708036  26.7560863  44.6135044  80.0541210  27.8210378  45.5743742
  51.1396551  48.3884811  31.6806817  51.5821266  48.5178852  30.8418107
  51.8496943  48.3368587  32.3205328  87.2261238  79.8263407  35.7677579
  87.4559593  78.8972473  35.7816339  86.9988441  80.0304222  36.6749120
  53.0488682  44.1698503  16.7069805  52.6580811  43.3105612  16.8655372
  53.7003756  44.0141916  16.0232139  80.4785728  85.9419155  29.1395831
  80.0971508  86.8080044  29.2831945  81.4239311  86.0914993  29.1519380
  86.4961624  38.1311679  44.0554619  86.1666203  38.8080049  44.6466684
  87.3183823  38.4870744  43.7185287  94.5176792  24.9678659  52.0592976
  93.7008476  24.8521304  52.5447035  94.3843365  24.4804049  51.2463808
  59.2802525  30.7267785  14.3511450  59.1495657  30.7395911  15.2992952
  59.5282507  31.6247964  14.1313922  92.8671074  35.9754252  45.3105307
  92.2022247  35.4532671  45.7594442  93.2928371  35.3596091  44.7140741
  91.7754745  88.3340454  24.1622806  90.8247280  88.2924557  24.0593910
  92.0636559  88.9422989  23.4816837  42.6482773  55.1513863  23.6156940
  42.5441837  56.0990524  23.5301089  42.1605968  54.7890902  22.8760052
  96.5038013   2.1885988   8.4939259  96.0214901   2.2829369   7.6725167
  97.2963905   2.7101922   8.3675510  93.2435894  54.3927670   4.8576123
  93.1988144  54.8822403   5.6789762  92.8053284  54.9554873   4.2192519
 109.2155933  47.8858900   6.6827422 108.9421082  48.8029385   6.6612417
 108.4013653  47.3957443   6.7968482  64.6170950  17.0456719  12.6636064
  64.4242525  17.7866292  12.0891285  64.4123602  16.2737978  12.1358502
  80.3354454  44.6562290  25.3117371  79.7591496  43.9009285  25.4285431
  79.9147987  45.1746321  24.6257710  59.2637730  49.5237970   0.7369044
  59.6025467  48.9197302   0.0761700  59.3144989  49.0339661   1.5577112
  80.5558777   4.5008174  12.3846579  79.7428036   4.0693820  12.6473451
  81.2251472   4.1150600  12.9498935  98.4161472  38.6779976   8.0686074
  98.1257820  39.4342613   7.5587207  98.9484310  38.1677151   7.4582642
  75.2464008  39.7077394  28.0166793  74.8118305  39.4742775  28.8369679
  76.0076237  40.2214289  28.2866740  52.8182173  58.4021235  34.0943146
  53.2077312  59.2568588  33.9101052  53.4472609  57.7716398  33.7435579
  75.7610941  52.6255465  27.9237723  75.6984234  52.8117657  28.8605881
  75.6646109  53.4797668  27.5027919  52.8359652  23.5042953  34.6030116
  52.9580975  22.6100588  34.2841744  52.2956085  23.4072971  35.3871274
 102.3108959  46.2578154  40.2001333 101.9803143  45.6041861  40.8163452
 102.6550388  45.7450342  39.4687939  55.2070189  24.2593408  45.7390118
  54.2599726  24.1723180  45.8474350  55.5456734  24.3211365  46.6321707
  68.0812640 102.9299106  37.8289580  68.6981769 102.1986917  37.8600669
  68.5171600 103.6317644  38.3123064  73.9379644  49.3317747  13.2438588
  73.1508350  48.9295626  12.8765869  74.6613407  48.9074993  12.7823985
  91.2585163  66.4526320  24.0446496  91.6991615  67.1133232  24.5790243
  90.6154346  66.9462061  23.5356593  72.9067373  26.8542409   9.0344554
  73.3378172  26.5339208   8.2421196  73.4955502  26.6025352   9.7459137
  82.3678493  41.8098831  36.9541502  82.2164249  41.4217854  37.8159380
  81.4906597  41.9671154  36.6047978  71.1706686  35.7229495  27.3091030
  70.8845472  34.9647760  26.7996502  71.9445944  36.0441780  26.8464088
  92.7900028  26.2005329  36.4648032  92.2211456  25.5582786  36.8892312
  92.6611233  26.0525274  35.5279374  80.3076077  40.7247925  25.9861064
  79.8534298  41.3044739  25.3746128  79.6111870  40.3588343  26.5313625
  19.0067096  18.8114520  82.4467514  19.5770354  18.0433341  82.4157987
  19.3601031  19.3435880  83.1596163  74.7309589  24.3469357  33.1389356
  75.1053476  24.8439980  32.4116158  75.1977968  23.5114384  33.1234646
  98.1665421  20.7988739  41.3665676  98.9996433  20.9089923  41.8248701
  97.7826881  20.0118518  41.7532015  80.9247303  44.0006065  12.9841161
  80.6044960  44.8990965  13.0640996  81.6542912  43.9504814  13.6017394
  80.0291920  37.3358631   6.3753659  79.8648691  36.4382267   6.6642940
  79.1886759  37.6329207   6.0267544  67.2571421  11.3952255  31.3176537
  68.1169844  11.7559159  31.5339971  67.0666552  10.7859111  32.0308733
 110.5754662  40.8595228  30.4000497 109.8110390  41.2051487  29.9391389
 111.2936306  40.9491968  29.7736144 109.1269207  48.1814146  11.1635625
 109.0114880  47.2366905  11.0615373 109.2009258  48.3129644  12.1087861
  98.0002880  66.0935497   9.9921304  98.7111378  66.7098713  10.1683998
  97.2255993  66.5057087  10.3745174  80.5813217  43.9990854  33.7941265
  79.9988794  43.8910007  33.0422568  80.5799961  43.1433821  34.2230844
  64.8239946  46.9706631  15.6418037  64.0332890  46.8483067  16.1672056
  65.4443932  47.3913479  16.2370872  69.1460466  45.8081198  16.3940239
  69.3488455  45.5067444  15.5084312  69.9526548  46.2262630  16.6953158
  99.6517467  59.0988350  41.0821390  98.9346313  59.6417046  40.7546282
  99.8625469  58.5152626  40.3532791  59.0502930  39.9293089  28.0382872
  58.2024097  40.3194857  28.2506442  59.3473911  39.5397758  28.8606215
  87.1730804  35.5002785  53.6625957  86.6707134  35.4069757  54.4720125
  86.5946960  35.1581693  52.9809380  76.7218304  42.2291231  28.1523061
  76.1980438  41.9892216  27.3878956  76.0915136  42.6072216  28.7654710
  92.4468231  10.3504622  57.4854326  91.7878151   9.8066068  57.0539665
  92.9527092  10.7293200  56.7665577  68.0184174  62.3429823   8.5943204
  67.7734470  61.4541245   8.8515294  67.6087093  62.9043007   9.2525643
  25.6531139  82.2588364  19.0323901  25.1736875  81.4660874  18.7917054
  25.0597091  82.9753104  18.8070762  62.5371456  31.2658095  32.6521802
  62.2382402  31.4053202  33.5507488  62.1687365  30.4172707  32.4062324
  76.2463093  38.7922239  36.1968231  75.7954741  38.4443069  36.9661975
  75.5817032  39.3115497  35.7442403  73.4598112  56.3846302  14.2463899
  74.1373062  57.0484686  14.1177154  73.4103584  56.2737846  15.1958621
  92.5403023  43.0403996  41.3692760  91.6720486  43.3474398  41.1083364
  92.9626179  43.8108206  41.7491865  92.3701286  28.3051515  60.6620550
  91.7662144  28.3862114  59.9238491  92.0559788  28.9459276  61.2999821
  93.0630016  55.7636547  54.9274921  93.0623531  56.3620806  54.1804171
  92.3034859  55.1993132  54.7829819  88.8960933  69.8450768  87.4881453
  89.1187238  68.9164507  87.4224276  89.7354459  70.2986598  87.4108232
  10.4115096  55.9082890  16.0320020  11.0284320  56.6202497  16.2015831
   9.5644847  56.2528372  16.3149583  66.4240313  42.3003244  29.9170280
  66.7351151  43.1983042  29.8026037  67.1738338  41.8320370  30.2840900
 104.7121334  40.7780838  41.4858675 105.2195740  40.2872896  40.8394480
 104.9365807  41.6939402  41.3213587  59.2828321  19.6156788  24.2493343
  60.1962614  19.3599856  24.3777728  59.2764282  20.0648355  23.4040833
  91.0308552  55.3646040  50.1217699  91.6006184  54.6402931  50.3805733
  90.3092480  54.9458361  49.6525669  91.7310715  47.5926065  53.9108133
  92.4338531  47.1222925  54.3592930  92.1557140  47.9892969  53.1501913
  69.9589252  39.3694448   8.3248562  70.6002426  39.2913628   7.6185650
  70.1749992  40.1972485   8.7541354  36.5608163  96.5356890  42.1740866
  35.7647557  96.0341475  42.3500967  37.1665187  96.2748865  42.8678703
 103.7226295  29.1133642  16.7216444 103.9719105  29.5817161  17.5183499
 102.7910805  29.3047214  16.6128564  92.9507065  43.2693577  37.6891947
  93.8264942  42.9211140  37.8563666  92.7373600  42.9673338  36.8063021
  98.0595684  27.1630883  31.8830013  98.2885551  26.9694376  30.9739923
  97.3745918  27.8287983  31.8208408  61.0080619 104.2296821  51.9621420
  60.6818576 103.7552196  52.7268028  60.3631969 104.0525161  51.2773037
  95.8233643  83.1535149  30.6293988  95.5494785  82.2898769  30.3206134
  95.8001137  83.7057590  29.8479152  55.6401057 101.2808559  10.7089651
  54.7053237 101.4352984  10.5727363  56.0313506 102.1543712  10.6975162
  73.2455444  75.9038734  27.9734063  73.9880228  75.8398104  28.5741186
  73.3636284  75.1721001  27.3677683  78.3195925  41.9179201  15.7445145
  78.0658531  40.9998846  15.8396649  78.5928059  41.9974136  14.8305857
  66.8965340  44.8069048   8.9403701  66.4339876  45.2823305   8.2502604
  67.4519014  45.4670382   9.3551242  86.6910458  33.3202982  59.2905378
  87.5107861  32.9258060  58.9928198  86.6769886  34.1837859  58.8777113
 102.7044392  31.8497062  10.1164699 102.5914383  32.7662325  10.3683543
 101.8536758  31.5922952   9.7612667  19.5667640  67.6214361  40.2791166
  18.9318935  67.9915619  40.8924532  19.8186962  68.3577299  39.7217727
  77.0703220  55.4681540  13.6962831  77.1448946  56.3998365  13.4897876
  76.3121319  55.1712370  13.1930709  46.9879198  39.3462849  10.8345425
  46.3721752  40.0411415  11.0674894  46.7802715  38.6308432  11.4355910
  91.8440723  57.6140451  11.7153120  92.5970268  58.1115532  12.0343566
  92.1406269  56.7039442  11.7160439  61.7220879  38.2961655  26.3741875
  61.4695120  38.2113194  27.2935581  60.8917713  38.3670449  25.9032512
  67.9729033  13.9388442  33.5674477  68.0570364  14.0605307  32.6217484
  67.8937721  14.8264003  33.9170361  90.8696365  33.2892203  17.7848756
  91.0599899  32.3950195  18.0684328  90.3017807  33.6419725  18.4699571
  20.3044215 101.9210302  85.9026650  20.7690707 101.1018383  85.7316176
  19.7728434 101.7376387  86.6772765   8.9672175 102.8508484  89.1309298
   9.4413557 102.4014723  88.4312973   8.1530657 103.1416809  88.7200648
  88.7810707  54.5136309  48.4863091  88.1868267  53.7634230  48.5034418
  88.2032299  55.2765846  48.4708166 107.8949070  72.2048569  16.8049622
 107.4370193  71.7988777  16.0689235 107.3107338  72.0742464  17.5518966
   0.9248343 104.6344053  86.2363920   0.8436623 104.1353237  87.0491407
   1.7994776 104.4215262  85.9109432   5.9845821  71.6028500  42.4252605
   5.9361259  72.2825813  41.7530632   6.6475669  71.9195414  43.0387640
  41.9503164  86.5085697  23.4955311  41.5086460  86.5093517  22.6463199
  41.7996550  85.6295109  23.8430572  81.0166931  46.8587399  17.8243279
  81.5941811  47.3064899  17.2060609  81.1934853  47.2800970  18.6654198
  38.2190366   2.6306506  86.2638647  38.0633016   1.6929217  86.3762972
  37.3623939   3.0341788  86.4037425   3.5939208  75.5656290  10.6956410
   3.9963237  74.9882078  11.3443971   4.0829936  75.3983450   9.8900050
  86.2171650  39.3791485  28.9038205  85.9431076  40.2962732  28.9054751
  86.4112091  39.1855001  29.8209238  97.2244072  53.6395645  21.0472345
  96.9503021  52.8799200  20.5333900  97.5163460  54.2769003  20.3954625
  63.9113951  65.0582743  26.5627098  64.2471457  64.1635895  26.5075636
  63.7483454  65.3093719  25.6535363  99.2729759  69.3582439  39.0136981
  98.3522511  69.4102526  39.2701721  99.7506618  69.7157955  39.7621655
  95.3982735  55.4022646  36.4715290  95.2231216  54.5426035  36.0887313
  94.8232365  55.9992695  35.9928346  70.7724047  32.6516366  18.3697200
  70.3199530  31.8432832  18.1287122  71.6867113  32.3906279  18.4799516
  66.7820692  86.3700867  33.0127311  65.8957005  86.1229992  33.2764149
  66.6813231  87.2348881  32.6149988  10.0947467  33.7160349   0.7359708
  10.1639358  34.4167686   1.3843662  10.3826610  32.9303503   1.2007716
  95.4052353  67.8631020  24.7094584  96.0852432  68.3793783  25.1422071
  95.0258827  67.3318768  25.4095483  71.7458057  43.8334274  36.0135651
  72.2683716  44.1648769  36.7438364  70.9605789  44.3808270  36.0130692
 101.9483948  42.5711393   4.7415757 101.1513042  42.0742941   4.9260154
 102.5674725  42.2894001   5.4150748  93.8970852  61.0388613  31.1053824
  93.0193043  60.7226562  31.3192916  93.8880634  61.9614315  31.3603592
  78.1294012  61.0899782  32.6357126  78.5782576  61.3484049  33.4406829
  78.7802553  61.2204885  31.9460869  78.4637356  52.1293497  31.1179686
  79.0008497  51.8676376  31.8657994  79.0484715  52.0513916  30.3641510
   4.0568630  64.2497683  40.9039211   4.1595928  64.7892284  40.1199198
   4.6273128  64.6604252  41.5536690 107.7573872  84.3034172  21.7324543
 108.1469917  83.6852264  22.3507380 108.4948635  84.8290253  21.4224648
  88.9323425  41.6809750  41.0228300  88.4071922  41.7242908  41.8219376
  89.3605995  40.8259010  41.0637236  82.8954792  55.2153969  38.7356472
  82.2600746  55.6748533  39.2846441  82.5620079  55.3200340  37.8445315
  90.7308102  81.4161205  15.8161652  90.5438519  80.5143738  16.0771847
  91.2118340  81.3323212  14.9928665  68.9617682  34.6852851  19.1203296
  69.6428156  34.2534256  18.6046720  68.8466597  34.1213703  19.8851705
  86.5776253  52.8039455  39.2432880  85.9459400  52.3872042  38.6571765
  86.1273766  52.8503704  40.0867033  92.8731155  62.9255581  40.1082516
  92.3313999  63.5064650  40.6424046  93.7000847  62.8626204  40.5861616
  78.4041452  72.0823812  38.0059385  79.1671324  71.7117119  38.4494328
  78.0982733  72.7737379  38.5930490  86.0753441  56.4898205  15.7586360
  85.4849720  56.7462683  16.4671099  85.5230427  56.4841509  14.9768651
  72.2175550  72.2621679  27.6344466  72.6202536  72.7437449  28.3570433
  71.9932795  71.4106178  28.0096793  77.3869038  28.6700153   3.3724076
  77.6556396  28.2029605   2.5812870  77.3410368  27.9922414   4.0467584
   2.6815788  37.9138255  33.4128237   2.5709239  38.5499072  34.1194963
   1.8919460  37.3741174  33.4505463  77.8595638  51.0634470  26.8677545
  77.2905445  51.7509937  27.2137785  77.5738001  50.9496880  25.9613156
  10.0943080  69.9954128  49.6388292  10.6657401  70.4721212  50.2408648
  10.5458728  70.0377321  48.7959003  92.3494053  42.6042175  35.1117301
  91.5541935  43.0827475  35.3460050  92.1672726  42.2482252  34.2420578
  83.0387211  86.1329174  15.4910004  82.4748135  85.3921318  15.7134295
  83.8996220  85.7421398  15.3414035 100.4473972  49.1082716  10.2066946
 100.2728176  49.8569536   9.6364057 101.0974121  48.5912180   9.7309184
   6.0229961  66.5559435  28.8081813   5.1518337  66.6753197  28.4299588
   6.2270442  65.6336689  28.6532474  97.4340248  64.2935038  33.6533284
  97.3609734  64.8237419  34.4468927  97.7094841  63.4316444  33.9656591
  62.9198647  38.6429024  19.6659279  62.5881672  39.5194840  19.4714618
  63.2831001  38.3346319  18.8357115 100.3209591  73.0417156  44.9954081
 101.1682415  73.2599592  44.6071863  99.7698307  73.8022089  44.8106337
 109.3890762  55.4010963  37.9106379 109.1766739  56.0647678  38.5668826
 109.1854095  54.5687294  38.3371520 107.6281548  29.9919796  33.3351445
 107.6045322  30.6389570  32.6300955 106.8059731  29.5100713  33.2456470
  65.9879780  69.8790550  26.6714835  65.1460695  69.8048973  27.1208429
  65.7577324  70.0430822  25.7569814  72.1915150  78.7011147  21.8645477
  72.7104521  78.5730219  22.6586056  72.8396320  78.7723827  21.1637640
  71.2435675  87.7121639  27.2007108  72.0973444  87.2812939  27.1602249
  70.9001207  87.6474476  26.3095951  95.2242470  38.3893967  68.0819273
  95.1957035  38.4037137  67.1252584  94.8114872  37.5596499  68.3214712
  93.6350822  62.4691677  24.9980092  94.1154099  62.1552849  25.7641673
  94.3164921  62.7313137  24.3789816  90.3856659  56.3019037  15.9931684
  90.4741859  55.3488159  15.9887993  91.2831974  56.6261530  15.9188735
  88.0458641  73.7356567  49.7842407  88.6748409  73.5793209  50.4886389
  87.2323895  73.3401155  50.0973511  63.2537127  36.1878276  14.3106258
  63.9540529  35.8719325  14.8815608  63.4169674  35.7580853  13.4710419
  85.6164265  59.5404339  50.5623341  86.2437344  60.2116156  50.2935743
  85.8189678  59.3785238  51.4837456  75.3015184  38.3484268  23.9062905
  76.1856079  38.6758471  23.7407088  75.2556133  38.2532930  24.8576450
  90.9881115  86.1375427  55.7250261  90.7233143  86.8595123  55.1550436
  91.8080044  85.8211899  55.3456402 102.8471184  44.8020649   0.7856897
 102.8134441  45.3330326   1.5814120 102.5255108  43.9424753   1.0575439
  81.1540890  35.7087755  22.6014781  80.2239990  35.4872227  22.6469803
  81.5954113  34.9806976  23.0389309  88.5454082  63.6223698  57.1284342
  88.5074997  63.4782410  58.0739641  87.6346016  63.5621834  56.8402719
  87.3335648  71.7075682   5.5294609  86.8903065  71.8150330   6.3710082
  88.1056023  71.1788940   5.7311922  98.4756565  51.1697149  25.9128642
  99.3561172  50.8956385  25.6561279  98.4401226  51.0087824  26.8557692
  68.0736256  65.0227308  39.4223380  68.1867838  64.4227076  40.1594925
  67.2021627  64.8215103  39.0813208  85.1279354  25.2134848   2.3813824
  85.8010864  25.8892250   2.4618262  84.4848824  25.5865765   1.7784542
  95.5315781  40.2906609  35.2965188  95.1728439  39.5260119  34.8461223
  96.4074802  40.0183678  35.5701780 101.5251350  71.0642099  26.5625429
 101.1888027  71.9592190  26.6081071 100.8260632  70.5264235  26.9344497
  75.5462551  69.1455793  24.0229511  75.4636669  69.0336657  23.0759120
  76.4356041  69.4765806  24.1483641  34.1783090  11.3161822  87.6096339
  34.5321460  10.6092187  88.1493000  33.4658714  10.9082051  87.1174777
  85.8036709  38.1877255  12.3805106  85.2669430  38.9675474  12.2389960
  85.2622509  37.4639249  12.0655441 109.4549370  71.5370226  33.1729984
 108.5413551  71.6739702  32.9223275 109.9598312  71.8914032  32.4410653
  18.5405150  85.0208699  64.0351442  18.4359255  85.8351624  64.5273021
  18.8671866  84.3922364  64.6788338 108.0540657  59.5793200  35.7029891
 108.1474400  59.5408678  34.7511292 107.7544975  58.7043476  35.9498048
 106.1175346  47.9904127  32.8933644 105.7914639  47.8939772  31.9985962
 105.4363346  48.4895086  33.3440351  74.7382116  73.1502056   1.8541183
  75.1843834  73.9964437   1.8864745  73.8409233  73.3419561   2.1267639
  73.2435083  54.3427753  24.4231796  73.0278063  54.4935369  25.3434920
  72.6471615  54.9151850  23.9405274  90.3540039  44.8349953  24.7664905
  89.4576836  44.6406507  25.0404906  90.5771828  45.6412268  25.2316928
  92.0064545  89.1435719  44.8077440  92.5233936  88.5577393  44.2547369
  91.2101078  89.3086910  44.3029833  97.8630829  60.5325747  64.1851807
  98.6571121  60.8402348  63.7480307  98.1493664  60.3056669  65.0699329
 108.5741901  40.9474564  47.9872656 108.4345055  40.0077391  48.1041384
 109.1989994  41.1838102  48.6728239  85.5569363  76.6294146  43.6320686
  86.2896061  76.3580751  43.0790806  85.4511738  75.9130287  44.2580414
  53.3203979  12.8396102  79.1793529  53.3910651  13.7475606  79.4740776
  52.8444476  12.8931685  78.3506027   2.3098365  86.7569351  36.9580030
   2.0901672  86.5766621  36.0439587   1.7424957  87.4886322  37.2008562
  80.5398273  67.3576069  21.0599971  81.1262608  67.3393488  20.3036976
  79.9594545  66.6073942  20.9312272  88.8934135  91.4097595  60.1632738
  88.0999660  91.3334084  59.6333313  88.7280655  92.1590519  60.7355118
 104.8728751  91.4252841  90.4201629 105.4450129  92.1143782  90.0824649
 105.3178166  91.1083519  91.2061723  89.7518158  25.7537293   1.1568757
  90.6163311  26.1555886   1.2425743  89.4272137  25.6899834   2.0550993
  15.9848491  31.7836237  33.8169312  16.5200130  32.4800801  34.1974330
  15.7033531  31.2606335  34.5675802  85.8351231  53.8030434  54.2178202
  86.1316109  53.1482887  54.8499727  85.8471298  53.3464622  53.3766174
 100.2684498  38.6021972  10.4010606  99.6663284  38.6015773   9.6569562
 100.0032425  37.8458738  10.9243917   4.0732471  41.4807463  69.6515274
   4.4419376  40.6067324  69.7795820   3.1295387  41.3604450  69.7571993
  63.6283731  61.5581465  24.3712926  62.6993895  61.7806005  24.3102169
  63.8724995  61.7928410  25.2665877 110.5123520  69.3537474  45.0921631
 109.8958683  69.8780346  44.5809937 110.6162167  68.5468578  44.5878029
  25.6430240   0.2333184  81.4971898  24.7786565   0.0281592  81.8535695
  25.4706378   0.8663198  80.8001784  87.6967716  24.7745657  10.1485157
  87.3337555  24.4775558   9.3141085  88.1240654  25.6057167   9.9415267
  63.2878590  75.0052786  15.7068479  62.8362179  74.6972942  16.4925969
  63.8943577  75.6736660  16.0256648 100.8104897  27.2873282  14.6040714
 100.7895374  27.5559831  13.6855841 101.0574245  28.0802774  15.0799799
  88.0282307  76.2105131  32.7244878  88.9189053  76.2407970  32.3751950
  87.4881554  76.6012955  32.0375776  86.2178993  93.5800552  75.8170319
  86.1597729  94.0211773  76.6645336  86.6661644  94.2079544  75.2504396
  61.9836521  78.8657713  40.6852674  62.4840927  78.1007385  40.4015112
  62.5689363  79.3248558  41.2876987  89.6142387  64.4579840  59.5451689
  89.9170208  64.8369551  60.3703547  90.3940010  64.0501070  59.1685486
  11.2821284  97.2038948  86.9976476  10.8638373  97.2124874  86.1367247
  10.9525385  97.9906571  87.4319339 105.6582832  54.5193243   9.5049214
 105.8108044  54.0160513  10.3047264 105.8351612  53.9013243   8.7956774
  94.8996353   4.9190909  26.7041469  94.0830135   4.4917166  26.4458537
  94.9816418   5.6609923  26.1049080  70.5375385  72.7628374   6.8369025
  71.4020777  73.1254959   7.0299983  70.7184458  71.9574118   6.3523453
  23.1774131  85.5502987  24.3104243  22.9682533  85.1114845  23.4858465
  22.9798309  86.4726448  24.1477346  78.3837891  42.6288176  25.2250290
  77.7984810  42.5639486  24.4704175  77.9893351  42.0574093  25.8839154
  67.0121241  61.2469339  22.7028084  67.4510193  61.5055323  21.8924189
  66.7770338  62.0744896  23.1224656  23.0759803  49.1775942  27.4878860
  22.9586975  49.3851995  26.5608621  22.8367702  48.2534647  27.5585055
  84.8748684  73.8411665  57.4689722  84.8556519  74.7806168  57.6514339
  84.1943932  73.4736681  58.0329990 108.5674477  44.3127251  41.9209194
 109.0384388  44.5805550  42.7100134 107.6703262  44.1599751  42.2176933
  71.6214514  15.2683640  30.7303309  71.4470291  16.1889493  30.9261131
  72.4462318  15.0803411  31.1782336  92.5673485  36.8979025   5.7169384
  92.0621777  36.5554738   6.4543504  92.8017902  36.1227226   5.2066767
  81.0175133  73.0172920  46.3079453  81.0866451  73.4855938  47.1399021
  80.1199722  72.6849508  46.2940264  79.2413235  35.9293962  30.8385658
  79.7265005  36.4424324  31.4848065  79.2306042  35.0417256  31.1965561
  94.1162109  19.4844699  33.0220199  93.1877995  19.5144761  33.2530594
  94.5734310  19.5224297  33.8620996  13.6231510  46.2906742  49.2544127
  12.8548805  45.7329369  49.3765783  14.0407745  46.3150406  50.1153564
  10.8559410  48.6656904  38.7213063  11.3731853  48.7378073  37.9191279
  10.9029857  49.5365810  39.1157293  68.6754179  80.7906532  51.4331150
  69.4607401  80.2857494  51.2220049  68.4514856  80.5236626  52.3246336
 106.3858986  52.7150965  54.3896389 106.8226528  53.4239435  54.8618793
 105.5262280  53.0710506  54.1649485  96.2043285  46.3654661  48.1715441
  96.4243889  47.2814608  48.0019760  96.2862682  46.2711716  49.1205597
 104.2835522  75.7827425  20.7521224 104.5085144  74.8594952  20.6370568
 103.9252186  76.0492659  19.9054873  92.4121666  45.1420879   3.5194692
  92.5302315  45.3642988   4.4430035  93.2089233  44.6668720   3.2837093
  74.9988985  51.2267971  36.2675810  75.5399561  51.4525843  37.0242238
  74.1633701  50.9508705  36.6443896  91.2577724  87.2819328  17.7074540
  91.3476181  87.7054119  16.8537414  91.8277454  86.5146923  17.6554000
 106.8093014   8.4964257  40.9919596 106.8215084   8.9068168  41.8566322
 105.8808994   8.3540148  40.8075190  74.3275356  90.5223560  66.6798544
  74.9567938  91.0675621  66.2075949  74.2340851  89.7395134  66.1370325
  64.1587543  71.2929010  40.0233746  64.6801662  71.3067722  39.2207742
  63.4037352  71.8479252  39.8281169  82.2198296  53.2658911  53.3673048
  82.6495361  52.4673510  53.0608416  81.8351460  53.6486101  52.5787830
  70.8605623  45.3623581   5.4425395  69.9037266  45.3760672   5.4651338
  71.0979939  44.5316315   5.8545429  88.6400700  55.3632021   5.3092754
  89.0076923  56.0209084   5.8996236  89.0423679  54.5403099   5.5871886
 109.2654133  25.2906322  39.5445871 109.8558998  24.5382047  39.5069718
 108.7251663  25.2106547  38.7584805  71.5689945  52.5622511   2.3467460
  72.3688698  53.0875349   2.3241708  71.0175276  52.9936028   2.9994699
  80.1984692  77.3994398   3.1110868  79.5510006  77.2778797   3.8055253
  80.0293922  76.6839981   2.4980719  14.5999327  86.8964469  74.1079811
  14.7021380  86.4589440  73.2627729  15.1185027  87.6969778  74.0275589
  97.0562172  53.2948637  43.7420559  96.2378979  53.3730602  44.2324305
  96.8470287  53.6333418  42.8714800  74.6042728  90.9272861  50.9519482
  74.2467117  90.2658367  50.3596020  74.4315672  90.5826378  51.8280888
  77.4507093  64.3276119  15.4267144  77.5602579  65.0258780  16.0722005
  77.6812744  64.7349501  14.5917606  95.0391674  72.2964144   5.1216948
  94.9949741  72.7493668   5.9637821  95.2394962  71.3882875   5.3484315
  57.3317242  68.6125326  10.1511407  57.0475531  69.4816160  10.4342794
  57.9196215  68.7808704   9.4147515  96.1687851  69.3047571  39.3103600
  96.3457870  68.4431028  38.9329267  95.2709770  69.2434978  39.6365809
  91.9192219  22.2758508  22.8097391  91.9805622  22.9380417  22.1212840
  91.1694145  22.5487781  23.3384514  81.5443707  28.0299449  34.9221230
  81.5325451  28.5999751  35.6909895  80.9406948  27.3200679  35.1409483
  49.1275501  82.7898026  73.2321739  49.0731716  82.5399017  74.1545773
  48.7831545  83.6824894  73.2051706  79.3465471  71.1904907  13.3316815
  80.0416183  71.6630316  13.7897348  78.9060450  70.6885481  14.0174258
  54.0434599  61.3361883   9.4672590  54.6807337  61.4788246  10.1670969
  54.5754433  61.1650801   8.6901188  70.6633997  43.1444502   7.3752755
  71.3192940  42.4774218   7.1725416  70.1268959  42.7513790   8.0636710
  75.8173370  67.9111385  21.4675856  75.8134937  67.4842405  20.6108618
  75.8911896  67.1909189  22.0937347  81.0778427  45.0430870  30.1947427
  81.1631680  45.9769917  30.0029874  80.5358505  45.0089598  30.9829760
  58.1168699  48.1514454  21.0336304  58.6881208  47.7236128  20.3957701
  57.5750446  48.7427950  20.5111742  11.8743698  58.3971500  32.2793698
  11.2810794  58.4246159  33.0300212  12.6951114  58.7629223  32.6092601
  79.4965124  57.6628399  34.6488166  78.7604427  57.6174974  34.0385938
  79.6580982  56.7526722  34.8972392  70.4347420  74.3790340  30.6878257
  69.6810055  74.2323732  31.2593174  70.0565767  74.7078848  29.8722982
  94.2210674  52.0746326  25.1960230  95.1616192  51.9387960  25.3106332
  94.0115738  52.8040409  25.7793832  56.7706390  20.2689525  57.7387766
  56.0036082  20.1076385  58.2882050  56.4662452  20.1003715  56.8470601
  88.1406593  68.9471245   9.5845175  87.2959900  68.9171505   9.1352206
  88.2070541  68.1006432  10.0264394 100.6977558  72.4547243  29.7405481
 101.0703373  71.6793871  30.1604009  99.7854233  72.4686527  30.0298309
  97.0974064  30.6383967  55.5796432  96.9186687  29.7320271  55.8301973
  96.4263248  31.1489177  56.0326862  98.4142017  64.2419338  65.6859589
  97.9633427  64.8601961  66.2610292  99.0574551  64.7748947  65.2186203
  64.4619226  71.5357876  24.8267198  63.5992575  71.1241007  24.8772836
  64.3706274  72.2000694  24.1436195 108.9947319  66.7684364  10.7461560
 108.4867573  67.1734810  10.0432098 108.4638119  66.8998766  11.5316987
  81.4396858  25.4621983  24.3322873  80.7186222  25.9816480  24.6879172
  81.6054153  25.8417177  23.4693074 100.6236172  44.3596601  63.1999159
 100.9490776  44.9186087  62.4943113  99.6847439  44.5424604  63.2365751
   6.6363899  43.7345123  24.0084481   6.1155692  43.3676577  24.7228694
   7.1986667  43.0128527  23.7268686  97.0626068  73.7076187  23.8213992
  96.3821220  73.1469059  23.4488893  96.5851021  74.3367958  24.3620944
 108.4544659  53.0172539  31.7635036 109.1654682  53.3403111  32.3169827
 108.8484573  52.3061323  31.2582302  86.8868160  53.2774878  45.9472132
  86.1014271  52.8960991  45.5548620  87.6035595  52.7269030  45.6319952
  75.2378464  58.4762383  15.0627899  74.9213076  59.3781710  15.1133430
  75.9570408  58.5098076  14.4320238 109.1204739  46.2297630  47.8210592
 108.7494087  47.1002674  47.9651737 108.5274601  45.6371403  48.2829714
  79.0544415  42.0028353  12.9680872  79.7200346  42.6750088  12.8217816
  78.4677696  42.0789003  12.2155821  76.1057849   5.5838557  83.9735476
  76.5125556   4.8642369  83.4909258  75.1651855   5.4294177  83.8860974
  91.6431904  51.3402605  56.9081068  92.1531773  50.5471373  57.0727158
  92.2982883  52.0330620  56.8238258  99.6500683  60.1347446  36.1994410
 100.0789738  59.3357897  35.8929420  99.3649006  59.9272346  37.0893002
  58.9574289  67.9786634  28.6946487  58.5924149  68.7858295  28.3320546
  58.2349300  67.5891018  29.1870594  97.1578121  74.7491646   5.4746985
  97.2950554  75.0016975   6.3877273  96.2067890  74.6918583   5.3824115
  90.8730888  78.5748863  35.5515695  90.8909225  78.5731888  34.5945358
  91.6121483  78.0223036  35.8058786  78.4817405  15.2624770  81.6540692
  79.3936820  15.4521724  81.4336035  78.1886001  16.0314008  82.1430007
  59.9585867  77.3428774  21.0322118  59.1080999  77.3982859  21.4679098
  60.3440857  76.5310764  21.3617539   1.4242927  44.7358322  51.1207581
   1.5645114  43.8086510  51.3128614   2.2835628  45.0562191  50.8464622
  93.0452538  78.5337639  37.6141620  93.7580872  78.9096594  38.1306958
  92.2540092  78.7412214  38.1112814  16.9686023  72.0768595  29.4833040
  17.1011821  71.1289549  29.4718218  16.0376827  72.1861601  29.6774173
  96.8336391  21.6473985  10.7254803  95.9045124  21.7700076  10.9202182
  97.2869110  22.1968770  11.3648915  71.4029408  44.0895367  39.9246955
  71.3800907  44.7650766  40.6024551  71.8234730  43.3405733  40.3471184
  95.2214813  68.2491159  33.2152772  94.5044899  68.8155937  33.5003352
  94.7882271  67.4613047  32.8868318  94.6614170  59.4997597   4.9327937
  94.4204235  58.8822079   4.2423013  95.4153538  59.9719095   4.5794001
  73.9535141  56.5627861  36.4224720  73.9894915  55.8351278  35.8016229
  74.7596788  56.4827156  36.9322968  99.5475006  52.4106121  38.6379814
  98.9196396  52.7844810  38.0197144 100.4038048  52.6072502  38.2581115
  98.6604023  24.5107031  21.2693286  98.2530403  25.1200104  20.6536698
  99.5843029  24.4995117  21.0193276  14.4581028  12.8336533  35.0264597
  13.8298699  13.3459672  35.5354691  14.9594971  13.4864339  34.5378757
  85.9339137  19.6709224  90.6867087  85.6316085  20.0360843  89.8551456
  86.6650386  19.1016599  90.4466341  78.5744476  47.3721886  16.5651488
  78.6918116  46.9626856  15.7079649  79.3067646  47.0464897  17.0884717
  68.8726902  64.0678740  35.1179790  68.6134958  64.4679928  35.9480143
  69.4786119  63.3700848  35.3673506  69.5711803  48.1153154   2.6551738
  69.1353416  47.9655361   1.8162198  70.3617334  47.5772238   2.6138172
  75.0130606  66.8677044  32.9077363  75.8813047  67.2705460  32.8977394
  74.4398689  67.5241661  32.5118327  70.7493544  79.0284681  45.7284498
  71.0459709  79.0301752  44.8183680  71.0149050  79.8829079  46.0685158
  69.8371458  39.7611523  18.5514784  69.8522329  39.5451736  19.4838715
  69.2749739  39.0927029  18.1598520  88.8837910 100.2805710  40.9081221
  89.6414089  99.8221874  41.2716103  88.5119438  99.6651173  40.2763128
  76.9045401  54.5773125   7.4185014  76.5312958  54.9464941   6.6181123
  76.2914848  54.8317385   8.1081820  17.1647159  99.9790955  23.3840442
  17.9942695 100.0142384  22.9077697  16.7128459 100.7862282  23.1379223
  65.0594325  33.8014337  87.6251200  65.4728122  33.9474698  86.7742274
  65.7409568  34.0151902  88.2623458   2.3460666  51.2114525  20.1364493
   1.6707317  50.5543566  20.3049159   2.0190421  52.0050621  20.5600882
  76.5339708  51.8054056  38.3826661  76.7957544  52.1048498  39.2533159
  76.7021990  50.8631563  38.3928347  93.5426140  59.0597868  46.8977261
  92.8634262  58.5725927  46.4312840  94.1870785  59.2768669  46.2240934
 102.8495693  58.7325525  49.9046469 102.5009727  58.2757378  49.1391182
 103.5694981  59.2613840  49.5607328  93.4030437  75.8629322   3.2761219
  92.9248905  75.5028725   2.5291577  92.9699898  76.6969061   3.4582621
  85.4807281  22.3965192   2.5560540  85.4715824  22.1524310   3.4815645
  85.3094196  23.3382654   2.5550193  53.6858320  86.4154911  42.3292589
  54.4933510  86.9121838  42.1971941  53.8740683  85.5508518  41.9642925
  92.5036335  53.2903814  50.9048080  93.1086636  52.5655127  50.7475376
  92.0116901  53.0272818  51.6826248  19.0974608  77.2152292  89.5749909
  18.2406130  76.7899620  89.5404381  18.8988009  78.1494343  89.6384609
 107.6286507  59.0296316   1.9429512 107.0962048  59.8190546   1.8451971
 108.3496761  59.2961597   2.5133142  10.9400741  45.4066086  23.4888697
  11.7742721  45.7408524  23.1592751  10.6190673  44.8345089  22.7918124
  53.8879776  38.8973975  23.1984091  53.5473680  38.5054064  22.3943210
  53.1082106  39.0979004  23.7160921  14.4603626  59.7092009  31.7652559
  14.9501697  58.8911295  31.6811061  13.9478198  59.7655249  30.9588075
 100.6080532  44.5673466  58.3282948 101.5197468  44.7693872  58.1179905
 100.1618290  44.5647287  57.4814701  90.9456062  97.7404404  75.3503704
  90.0044823  97.8837490  75.4502964  91.0838413  97.7085304  74.4037390
   0.9100238  84.3855381  58.9468670   0.9914199  84.1716385  59.8763037
   0.8493511  85.3405762  58.9253139  32.5490943  70.6072235  36.4615273
  32.2923652  71.4474773  36.8413925  32.6237956  70.0178862  37.2120833
 107.8537941  84.6958637  53.0689383 107.0458698  85.0625896  53.4281015
 108.4693813  85.4288578  53.0669355  54.0893551   0.9085187  10.5182838
  53.2290360   0.9908971  10.9297502  54.3760105   0.0220498  10.7379258
  15.3313247  67.6204920  29.2092252  16.0088817  68.2027864  29.5528531
  15.7671539  67.1315670  28.5112023  92.1065140  66.4819288  50.6737328
  91.7490673  65.9609413  49.9546814  92.6936531  67.1066618  50.2480412
  20.1928993   2.4576386  40.2443981  20.1506420   1.8640813  39.4946384
  20.8303066   2.0542058  40.8336306  12.8131095  40.4478312  62.5576925
  12.7707855  41.1030483  63.2542038  13.7399475  40.4086256  62.3217392
  96.8823147  75.6864214   8.0656481  96.3543797  76.4342308   7.7858257
  97.7576447  76.0488892   8.2021862 100.8180809  52.8803968  26.6304183
 100.5117989  52.5319958  27.4676967 100.8648586  52.1163177  26.0557675
  97.9535675  71.3620424  42.5485468  98.8440132  71.0804844  42.3386383
  97.4284363  70.5644417  42.4829626  71.0396290  80.4623127  49.6757984
  71.4405870  79.6087360  49.5118618  70.9560347  80.8582401  48.8083410
  -0.1043042  74.8299313  45.5471849   0.5892459  74.1806173  45.4305410
  -0.2962407  75.1371670  44.6611786  78.3895254  66.1490631   2.3016280
  79.1224146  66.7278576   2.5116375  78.4152651  66.0662556   1.3483642
 109.6561909  74.2276907  56.6880560 108.7469101  74.4050074  56.4472294
 109.9568367  73.5930490  56.0376120  81.5196800  93.2818794  54.7621250
  81.0841942  93.3183098  55.6137466  81.3436031  92.3976135  54.4407034
 107.0881844  76.4156246  26.3948989 106.3535595  76.4596176  25.7828355
 106.9591045  77.1635437  26.9781542  97.0160866  88.6892319  35.6377816
  97.9535103  88.5583019  35.4952192  96.7073441  89.1058159  34.8331857
   5.0678245  74.5225143  36.8369412   4.4348804  74.3124294  36.1503029
   5.0271408  73.7773275  37.4363351  37.2409673  17.4155303  85.0548158
  37.1081109  18.3607265  84.9827955  36.3665004  17.0625707  85.2189825
  86.7883587  50.6025743  32.0598173  87.3500443  50.3779793  32.8016400
  87.3874855  50.9636450  31.4064431  15.4242031  75.6145334   8.4917086
  15.5426017  76.2849045   7.8187907  16.1349002  75.7711697   9.1134924
  64.8992825  79.9512720  19.7565818  65.5963230  79.6282673  20.3275728
  64.4955778  80.6643772  20.2512884  98.2430267  61.5975666  73.5444927
  98.5664940  62.4551916  73.8203239  98.3432674  61.0434818  74.3185568
 107.7843857  47.2589445  44.5519400 107.6190853  48.1671572  44.2988491
 108.7018681  47.2494936  44.8246384  72.0907259 101.5834045  28.9997983
  71.9252062 100.7978439  28.4785175  71.3847303 102.1834564  28.7595034
  96.1330032  68.7162256  35.8333611  95.7200909  69.4915533  36.2136316
  95.6375408  68.5499954  35.0314140  95.4233932  46.6610909   9.6415222
  94.4868469  46.7995167   9.7827780  95.5786037  45.7614422   9.9292284
  10.2878086  63.8227940  13.4246182  11.2358467  63.7013483  13.4767854
   9.9776641  63.0719852  12.9183316  63.2040974  15.4601678  64.4418192
  62.2539326  15.5626592  64.3878412  63.5357281  15.8796700  63.6479235
  87.2158432  61.8680763   6.5269351  86.7934608  62.0630789   5.6903952
  87.1847057  60.9137583   6.5942574  34.5617954 100.4827785  22.0235491
  34.4904033 101.1399937  22.7157950  35.5024711 100.3295231  21.9348693
 108.3832741  80.5497551  36.6161895 108.4736443  79.8060131  37.2119403
 108.6688328  80.2125549  35.7670832  93.4717655  92.9735374  39.1136551
  93.3764744  92.3315811  38.4100652  94.2790890  93.4423923  38.9023733
 104.5539093  89.5197392   6.2245345 104.1953850  89.4950485   5.3373587
 104.6926212  90.4502487   6.4009953  99.1001034  63.4741545  45.3198099
  98.1563377  63.6258888  45.2697754  99.3005657  63.5183287  46.2547398
 102.2850513  92.8563786  49.4613647 102.8089809  92.5070381  48.7404680
 102.8670502  93.4751701  49.9025011  62.5965305  20.9377929  86.1168293
  62.8024001  20.0192472  86.2903926  62.5427432  20.9950706  85.1628593
 107.8406811  61.8357372  21.3744378 107.2924900  61.9233894  20.5946708
 108.0091858  62.7364159  21.6512322 107.1231651  41.2054110  37.8447175
 107.8013611  41.8251991  37.5761056 106.3953781  41.3723040  37.2457981
  82.5107670  84.2224312  52.3212957  81.9108391  83.6767960  52.8298283
  81.9810581  84.9720955  52.0499372  74.0753078  53.9891148  35.7149482
  74.1266108  54.1042662  36.6638088  74.8238659  53.4324551  35.5004120
 100.6360626  87.4065208   9.2862058  99.7146034  87.2248173   9.1014647
 100.8681297  88.1089497   8.6787862  97.1596432  71.5600777  52.4642086
  96.4239597  71.0099125  52.7331161  97.9016399  70.9578466  52.4095106
  11.4456073  60.0040150  59.1191006  11.9380084  60.7994747  59.3216372
  11.8994132  59.6267843  58.3654499   1.6604606  93.7875080  33.2995248
   1.7520133  93.6983395  34.2481542   1.5610591  94.7286415  33.1559110
 107.9372406  63.1267834  57.1406364 107.5481987  63.5063362  56.3527203
 107.1986866  62.7372217  57.6086235  27.2702590  77.5699568  74.6969652
  26.5404693  77.2829247  74.1481066  27.8882972  77.9686928  74.0843725
  92.1568103  16.5356608  87.9712669  92.6885791  15.7446166  88.0590171
  92.1791930  16.7367383  87.0356927  87.1326160  47.2610188  10.6741858
  86.7822456  46.8860197  11.4821744  86.8593693  46.6511393   9.9888992
   3.4751216  84.2051029  47.1041918   2.9086677  84.6443367  46.4698076
   4.3336288  84.1800117  46.6816330  60.9315009   0.3067657  83.3395669
  60.2380939  -0.1852683  83.7792531  60.7125755   0.2500936  82.4094651
  79.8525000  58.5453939  14.9389482  80.2540207  59.3281031  15.3162789
  80.5850887  58.0588579  14.5610321  88.1369686  77.2775459  19.1433060
  88.4052086  78.1757021  19.3371952  87.2552872  77.3638725  18.7807941
  73.9010334  60.6616688  13.1912613  74.3609142  61.4164352  12.8237474
  73.3764696  61.0249567  13.9047623 109.7136784  92.8735542  48.0529976
 108.8905621  93.2226372  48.3948326 110.3883839  93.2632351  48.6090136
   2.8150932  77.0887947  13.9836574   2.7360240  77.6409817  13.2057941
   1.9214336  76.7951441  14.1607726  50.3713508  33.3515473  81.9274507
  50.6071563  34.0872499  82.4925778  49.7348018  32.8515168  82.4383346
  83.9066124  43.9236164  10.2963519  84.1767883  43.2743120  10.9456956
  83.4230709  44.5787430  10.7995629   8.2293884  15.5684471  23.0916286
   8.2208434  16.3555670  23.6362386   9.1582385  15.3787959  22.9593396
  11.3163177  71.1239529  17.8788614  10.6919948  71.5355349  17.2813296
  10.8885948  71.1602020  18.7344146  32.3729130   2.3124894  49.5512295
  32.2161385   2.5588235  50.4628086  33.3246323   2.2351178  49.4843197
  86.0573769  59.9990845  27.8546667  85.8974457  59.2220116  28.3902144
  85.4918289  59.8842096  27.0910025  93.1035614  62.6899099  52.8632545
  93.1915569  63.5939360  53.1652927  93.7901115  62.2135162  53.3300829
  85.4311085  76.7699432  21.8573165  85.3789806  77.5568056  21.3147593
  85.4160213  76.0459566  21.2313390   5.3281585  68.3137989  37.7759147
   5.0352851  68.8506985  38.5122538   6.0166446  67.7591705  38.1428075
  48.7986846  26.3535806  77.2426180  49.1418262  26.8648072  76.5097216
  48.2300944  25.7009431  76.8339733  18.0026714  72.6924467  34.3090010
  18.3313075  72.1046352  33.6287737  18.4008495  73.5390854  34.1067934
  84.9746323  54.0760326   7.9162359  84.0757751  54.0750265   7.5871718
  85.5124569  54.2480850   7.1433324  17.4662582  49.2433119  44.9862814
  17.7980510  49.9257278  44.4027996  17.9584209  48.4594297  44.7422695
  90.9921360  79.6291256  39.8632002  91.0268497  78.8109255  40.3587580
  90.1379585  80.0035667  40.0786209  13.4357540  81.8448448   6.0297686
  13.9478389  81.3289642   5.4069769  13.4727851  81.3430023   6.8440259
  98.0906773  57.0740604  34.6997094  98.0695438  56.3350296  34.0917468
  99.0205097  57.2816372  34.7921681  91.0981846  98.8899040  46.2055302
  91.6258907  99.6815777  46.3104963  91.5966797  98.2082844  46.6562080
 102.9207325  56.1015129  61.8160391 102.8833580  56.5627193  60.9781075
 102.7525234  56.7795944  62.4703646  96.8572140  89.4421959   0.5241748
  97.0522308  88.9357662  -0.2643232  96.9092655  90.3551960   0.2414092
  37.7805562  44.2505570  86.8432111  37.9900165  44.1062089  85.9204329
  38.2722707  43.5742303  87.3090733  80.1938343  74.6700478  31.8618608
  79.7563839  75.0191736  31.0853434  79.5601130  74.7917652  32.5688338
  11.0150138  41.4728212  55.8400536  11.4216796  41.1654043  55.0299025
  10.4684917  40.7410097  56.1263895  84.9503994  92.8338146  56.6520739
  84.2322350  93.0368805  57.2514486  84.5321751  92.3736095  55.9243870
  87.7870083  58.8945723  60.9157038  88.6022949  58.3999109  60.9985399
  87.5640202  59.1408396  61.8134022  83.9194870  65.1295805  33.0226779
  84.3793678  65.6569481  32.3695159  84.5753765  64.9605942  33.6990499
  67.9549599  74.7555351  43.5208893  67.3279858  75.2804995  43.0233479
  68.8117790  75.0842571  43.2487965   9.1447917  88.0023479  28.9501739
   9.1688816  88.9349365  29.1645098   9.7471801  87.9106140  28.2119656
  36.7938132  30.9076997  84.3181441  36.1800857  30.3552362  83.8340501
  37.5017400  31.0801812  83.6973981  93.7362766  88.9110947   7.2366410
  94.3649483  89.0265846   7.9491544  94.1380405  88.2553768   6.6666830
  59.5192289  15.1300371  10.5966222  58.9573383  15.2490294  11.3623559
  60.2875471  15.6717479  10.7768273 108.5463905  88.4142303  15.9407139
 108.0347157  87.6881123  15.5840945 109.2593575  87.9921436  16.4200425
  47.5480648   0.5282029  49.5631599  48.4808441   0.6791791  49.7160006
  47.1725460   1.4054879  49.4883156  95.9945583  73.7429523  30.2823281
  95.1454735  73.7957907  30.7210803  96.1468315  74.6268606  29.9480367
 107.3959541  56.9450045   5.8712792 107.6349831  57.8585815   6.0277045
 108.0900478  56.4399338   6.2947941  12.8759090 103.4070396  34.2961931
  13.2733718 103.3345604  35.1639485  13.2988063 102.7201080  33.7809134
  79.3983984  64.3120766  27.3896670  78.7463331  64.1965199  28.0808187
  79.9101734  65.0716591  27.6677895 110.2635002  65.3508377  41.4636135
 110.3076553  64.4977808  41.8955564 110.8389378  65.2645350  40.7035780
  79.8992395  82.8763008  26.6980362  80.0907040  81.9424820  26.6111612
  79.0902662  83.0020905  26.2020779  85.3318882  73.7939405  42.2393751
  86.0060883  74.4503736  42.0639181  84.9224567  74.0831614  43.0548191
  21.4440528  68.4909773  27.8793240  21.4026634  67.6678276  28.3660936
  21.0982982  68.2747698  27.0133328  77.9161501  66.6416454  30.8743143
  77.5480604  66.4643240  31.7399335  78.5351515  67.3572302  31.0192680
  90.3546238  61.6465855  48.4736633  91.1334991  61.6478586  49.0300608
  90.2183247  62.5673294  48.2503176  81.0701942 100.8392811   3.5820433
  81.3839149 101.0639095   2.7060556  80.9599876  99.8886871   3.5605314
  11.2976066  45.8137798  16.9146657  10.7245246  45.1700735  17.3311424
  11.1513606  46.6201401  17.4092567  14.9989883  85.7002068  60.5240345
  15.5675498  85.1521969  61.0650110  14.3207828  85.1031303  60.2081871
  81.1140537  82.6553059  68.6170340  81.3336086  83.0321121  69.4691181
  80.8929253  83.4099197  68.0712461 105.2837467  66.7002010  16.8003666
 105.1943111  65.7473421  16.8174684 106.2180042  66.8556070  16.9390881
  84.5936584  80.8968925  28.3195758  84.9026585  81.7409611  27.9904962
  83.7189102  80.7988834  27.9434896  94.3811131  99.6544743  30.9762669
  94.9228573  98.9400196  31.3113809  93.8944626  99.9645710  31.7399716
  96.0985374  51.7529917  19.5055735  95.4502106  51.2215424  19.9675989
  95.7166290  51.8976593  18.6398673 105.1879787  66.7315865  41.4874458
 105.0099659  67.6373100  41.2340689 106.1192989  66.7233038  41.7083454
  99.2048168  83.9231396  56.8325281  98.9882851  84.6866322  57.3677111
  99.7566795  83.3829403  57.3980856   4.1623298  80.1301193  24.8287892
   4.4080631  80.3445625  23.9288664   3.5478679  80.8197117  25.0800776
  70.8673477  66.8390179  41.4336300  70.6609821  67.2149515  40.5778742
  71.4577246  66.1110401  41.2393618  95.4628563  25.6984067  39.0329742
  95.6814289  26.6214252  39.1613984  96.2734604  25.3026032  38.7128520
  81.5079403  82.7774048  34.3050861  81.2947941  81.9849396  33.8123417
  81.9653797  82.4596310  35.0835443  95.5134869  64.5964146  50.9070873
  94.7273636  64.5888901  51.4531469  95.4389191  65.3990793  50.3909492
   8.2039920  69.4176388  36.1375189   8.2430164  69.7193861  35.2299643
   7.7702896  70.1294279  36.6081452   7.4613182  63.5643244  62.0020247
   7.4246971  64.5170975  61.9176817   6.6339485  63.2589626  61.6299391
  88.9355564  93.2348156  87.3480892  88.7873840  93.5953522  86.4738560
  89.8882008  93.2032871  87.4358749  83.3215618  67.6724625   9.7776753
  83.1475163  66.8126917   9.3946201  82.4541283  68.0514479   9.9196792
  93.9067554  67.1046782  44.7396564  93.0990505  67.6181126  44.7244978
  94.2055035  67.1549368  45.6476498  91.7854404  76.0699272  71.8193054
  91.7126369  76.9820642  71.5383434  91.4808083  75.5625343  71.0669851
  18.2782074   8.9227303  17.1521413  18.8007447   9.6508511  17.4883246
  18.9121433   8.3556279  16.7131019  60.6087446  89.2118073   7.8689593
  61.2114334  89.6823883   7.2931534  61.1501360  88.9365005   8.6087823
  78.6473513  96.1120415  39.4293380  78.3779812  96.6656685  40.1622534
  79.5209789  95.8039379  39.6703506  80.9518147  41.8009233  23.1340694
  81.7862511  41.8461561  22.6672649  80.9975243  40.9820080  23.6275458
  87.7752018  75.1886415  53.2300425  86.9260311  75.5234003  53.5182858
  88.2171345  75.9494352  52.8530502   5.7514755  73.8867521  41.0289717
   6.1760417  73.7763405  40.1782131   6.0780231  74.7263718  41.3524437
   9.6417705  52.5686216  34.2914796   9.1193763  53.2684755  34.6833086
  10.4160015  53.0126238  33.9455581 103.9435577  85.0257587  47.5106335
 103.3923626  85.2661037  48.2553864 104.7161865  84.6212482  47.9051638
  59.2229509  51.0454702   6.8934768  59.9117804  50.3808308   6.8947935
  59.0970373  51.2617445   7.8173834  85.6524754  88.5369205  41.0190773
  84.9001789  88.2161617  41.5164614  86.1597538  87.7504349  40.8182049
  25.8339588  84.4865894  74.1876078  26.3013069  84.4425678  75.0218010
  25.9870140  85.3779411  73.8740730  58.7751627  81.6227055  16.7830014
  59.0347624  80.7329655  17.0221686  59.3526649  82.1870518  17.2970378
  91.2887001  60.4907513  35.2075768  91.0110760  61.3688993  35.4683661
  90.5516148  59.9269581  35.4422569   3.3002654  73.9095211  26.0715008
   3.7001506  74.2496395  26.8719029   2.5155441  74.4440126  25.9499979
 102.6399136  83.7379646  44.1528511 102.3023987  84.0987492  43.3330011
 102.2922134  84.3175411  44.8306704   3.8261691  60.5252790   4.0504169
   4.4674674  60.0557470   3.5170245   3.9537136  60.1827669   4.9350911
  69.9444532  60.5486059  15.0912213  70.3113127  60.8352661  14.2548788
  69.3171406  59.8649979  14.8558640  84.9783230  45.4630852  18.6480975
  85.7718086  44.9433279  18.7764204  84.8438072  45.9057093  19.4860840
  71.5878005   9.1034242  83.4735784  71.5693946   8.4759542  84.1961936
  72.4971671   9.3999787  83.4369758  74.3076658  66.6378593  29.6415210
  74.2151213  67.3171186  30.3095579  73.4360313  66.5637493  29.2529416
   0.4445068  88.9007950  20.2803016   1.0313503  88.4476566  19.6748972
   1.0255424  89.2725945  20.9439230  26.8581954  93.2179832  38.9468479
  26.8839446  93.7928200  38.1819081  25.9266750  93.1289959  39.1483212
  89.8944092  60.5992270  45.7568741  89.9886608  61.2867165  46.4162016
  89.4288063  59.8957777  46.2092066  55.2363920  76.1086655  45.8811855
  55.9796953  75.6135702  46.2256002  55.6281853  76.7405367  45.2783012
   5.0303928  81.6092873  43.6579752   5.6774799  81.6594887  42.9544210
   5.3973094  80.9773254  44.2762136  98.2929230  59.0916967  48.0659533
  99.0022850  58.6817122  48.5608864  97.5120068  58.5952330  48.3107328
  32.6302902  44.7922468  13.4490216  32.1040622  45.3693056  14.0024817
  33.5336582  44.9635458  13.7151122  76.3801952  48.2441827  83.3132628
  76.2944408  48.8828393  84.0210710  76.9217773  47.5472947  83.6837718
  16.2253276  70.0856972  35.3487611  16.3346569  70.1494217  36.2975574
  16.9108478  70.6494236  34.9902749  14.3941971   4.9136266  32.1988106
  13.8536450   4.8313054  32.9844642  15.1997753   5.3302392  32.5049210
  63.3365536  76.9480848  22.0098829  63.1939602  76.3204813  22.7184105
  63.3644438  77.7996063  22.4461889  97.0219040  83.3496284  42.0483589
  96.9654846  84.2514992  42.3640776  97.9087639  83.0710125  42.2765827
  94.8786449 101.1857224  12.0635855  95.4909897 101.3504219  12.7806270
  94.0465260 101.5443802  12.3720908   8.8857452  93.7761784  39.3239045
   9.7281352  94.2306995  39.3205571   9.1114036  92.8527260  39.2118669
  51.5583611  63.3544350  11.6719913  51.4590359  63.3612108  10.7199824
  52.3214960  63.9081335  11.8371296  83.7338257  72.9805040  35.3893137
  84.4511986  73.5705280  35.1580667  83.0167866  73.2363510  34.8091173
  17.0494457  24.3527135   8.1285620  16.5860459  24.4566735   7.2974885
  17.9166313  24.7245130   7.9673928  14.7909442  51.9986153  44.8570824
  15.0837795  51.1075163  45.0479269  14.6125118  51.9958544  43.9166641
 108.9093781  35.8680129  10.0351846 108.8358498  36.0463452   9.0976220
 109.8515129  35.8146930  10.1956904  22.7062408  66.2197065  19.8491931
  23.0489913  66.9550610  20.3571415  23.3412544  66.0996962  19.1430891
  92.8190899  59.2715073  49.5763159  92.7137852  60.2077579  49.7453451
  93.1991482  59.2277908  48.6988878  83.3455276  88.9220905  32.7661395
  83.8720131  89.0074158  33.5609770  82.5680637  88.4381199  33.0446339
 107.4312401  61.8391848  48.7402773 108.1058693  61.4594412  48.1773329
 107.8433228  61.8971252  49.6022844 104.7095966  71.2657833  11.8990684
 104.4540977  70.3693342  11.6814959 105.3995132  71.4775133  11.2702525
  88.1391425  16.6348716  83.9916489  88.7193675  17.2061034  83.4883932
  87.4263854  16.4256640  83.3879653  60.3749943  62.5335550  27.6206875
  59.4298697  62.3831844  27.6018023  60.4675961  63.4841394  27.5570917
  83.4753227  65.4198551  21.6014957  82.8842354  65.4202509  22.3543930
  82.9374886  65.1051140  20.8749199  93.9830685  62.7185440   4.5745543
  94.3453503  62.2085428   3.8500658  94.7011566  62.7838945   5.2040797
 102.1515846  81.8816280   3.7136480 102.7973270  82.0453930   4.4009891
 101.4197826  82.4594784   3.9299256  71.4911032  62.1955442  54.6156931
  72.3567629  61.9430876  54.2945480  71.5826702  62.2056532  55.5684471
  96.0055542  68.1238508  47.6541853  96.2447834  68.5847712  48.4582710
  96.8354321  67.9988050  47.1938515 105.7815456  92.5327301  19.4367445
 105.2565861  92.2340870  20.1793504 106.2313652  93.3133888  19.7599494
 103.4575939  82.3447323  24.0072012 102.8212261  81.9035625  23.4445047
 103.6811352  83.1459808  23.5336256  99.4413662  87.3608875  34.5826817
  99.7175980  86.9884300  35.4200673  98.9505482  86.6574001  34.1579127
  94.5315552  62.6226187  60.6120205  94.2471790  61.8195772  61.0484695
  93.7686253  63.1993818  60.6508350 108.5328197  59.5966101  54.0937948
 109.2252731  58.9432716  54.1932535 107.7210903  59.1078711  54.2296600
  90.1577950  72.2171402  41.1092281  89.7923756  71.3358212  41.0319376
  89.9277782  72.4948883  41.9958925 109.5642567  69.9855423  72.5858450
 109.8147392  69.8249769  73.4956312 109.3344212  70.9144115  72.5610590
 102.0789337  67.9426813   7.3180664 102.4316788  67.2414017   7.8657955
 101.2682343  68.2032442   7.7552164   2.8781406  87.8426647  26.3740230
   2.6849357  88.5024071  27.0400858   3.6425010  87.3767662  26.7130232
  84.9647427  61.8980217  42.9474211  85.0188255  61.6024733  42.0385981
  85.7721519  61.5797853  43.3512163  17.5471679  56.5140772  40.9630728
  17.5195686  55.5669785  41.0989857  17.1984378  56.8827724  41.7746639
  49.7390834  93.0741596  21.3311791  49.7799770  92.1870804  20.9738898
  48.8483707  93.3683300  21.1405516  86.8135929  71.5266609  41.6794872
  87.0542336  71.9204617  42.5180817  86.0814571  72.0580292  41.3666630
  14.8651596   7.3839768  10.0193584  15.1986595   6.9112786  10.7819641
  15.5729481   7.9823121   9.7800773  56.9856787  77.5443077  32.9807734
  57.4431467  76.8025303  33.3766508  57.4332237  77.6840115  32.1462560
  94.8640251  57.9942131  51.0407209  94.3236160  57.4186325  51.5819216
  94.2535496  58.6512566  50.7063007  58.4057422  18.0064651  77.2071973
  59.0469737  17.6707860  76.5808026  58.0980201  18.8256141  76.8192092
  18.1753532  58.5820389  62.9246569  18.8660709  57.9196835  62.9040194
  18.0627910  58.7818384  63.8539791 106.3222885  87.9419613  50.6653118
 107.1563148  87.8590298  51.1276484 105.9409237  88.7524700  51.0027647
  80.9928608  40.6962490  11.2472034  81.0271740  41.0772085  12.1246552
  80.1650143  40.2161646  11.2267327 105.2795792  30.8284116  84.1339970
 105.0899315  31.2074876  83.2757568 104.8498917  29.9732161  84.1183376
 106.2688923  86.8511963   3.8769272 105.8834934  86.4553070   4.6585748
 105.9526062  86.3099670   3.1535545   4.4743625  72.4924898   3.9155880
   5.0816146  73.2323313   3.9263642   3.7575046  72.7792358   3.3497864
  90.9693050  53.2495070  27.8511262  90.0168705  53.2748556  27.9430604
  91.1743736  52.3214340  27.7377367  69.7904539  89.9810886  21.7481804
  70.0235939  90.4157829  20.9278679  69.5731544  90.6969738  22.3452663
 110.6288433  70.3584814  14.3795526 111.3805962  70.0981760  13.8472629
 110.6927109  71.3119793  14.4341862  24.7122566  68.1484413   5.6331921
  25.1737491  68.8034725   6.1568207  25.0907222  67.3129463   5.9069639
   2.6403610 102.5725746   0.4001951   3.4753219 103.0066967   0.5751467
   2.1034519 102.7675915   1.1682653  89.4953346  59.1478348  38.8899040
  90.3549671  58.8052654  38.6451221  89.1431046  58.4983492  39.4984531
  43.4576797 102.3020554  28.2093501  43.3045340 101.3574600  28.1863499
  42.8964567 102.6525974  27.5177002  52.1100712  82.4572277  27.2794127
  51.2721252  82.2792912  27.7065110  52.5110817  83.1419945  27.8146863
   2.3855869  40.6197548  15.1492918   3.0689899  40.9455204  15.7350099
   2.7311222  40.7724380  14.2697895  79.4125032  49.3395901   3.1831765
  78.4873486  49.5709658   3.2655793  79.8532677  49.8766375   3.8416129
  77.0236492  54.1409540  36.7952871  77.0821953  53.4708071  36.1143303
  76.7687082  53.6604548  37.5829148  73.1630707  49.3217182  16.0157979
  73.2323074  49.3067837  15.0612223  74.0278625  49.0496445  16.3229525
   5.5814067  84.3087578  66.8199110   5.9640113  84.6695232  66.0200977
   5.3964130  85.0746059  67.3635054  89.4359970  83.7721062  13.9960742
  88.9074326  83.0154037  13.7425673  89.1170979  84.0057755  14.8678148
  68.7681575  19.4523974  84.5480261  69.3678088  19.9680253  85.0872687
  68.4872432  18.7373372  85.1189974  99.5567131  69.5037413  56.3705349
  98.9981174  68.7958527  56.6916227 100.4488373  69.1790628  56.4927578
   4.1139213  96.0228729  28.6070919   3.4070102  96.5149879  29.0246248
   4.6342365  96.6874599  28.1556296  86.8494987  85.2309704  45.5435753
  86.3581371  85.2154541  44.7222567  87.7524853  85.0452614  45.2859974
  79.9932480  68.7944174  30.9134650  80.4939079  69.5197868  30.5400848
  80.5803299  68.0409813  30.8509755  -0.0168332  76.0932922  19.3664432
   0.8219234  76.3634348  18.9926219   0.2169792  75.4683399  20.0527334
 109.3715668  90.9277534  44.1414833 108.9200497  91.7618179  44.2706966
 109.7114563  90.9753132  43.2479286  42.5073714  19.1443082  83.9371345
  42.6453872  18.6105701  84.7196344  41.9118018  19.8374244  84.2219636
  14.3729965  64.8420429  77.7127218  13.4537975  65.0772381  77.5862741
  14.8603908  65.5223608  77.2481251  79.6240377  87.7210522  46.5337420
  80.4539585  87.7597618  47.0091057  79.8666477  87.4429989  45.6505346
  90.1668167  80.3187084   3.9208218  90.4470730  81.2336826   3.9436838
  90.0758934  80.0729942   4.8414662 100.5911255  71.1906862  73.6639977
  99.7637653  70.7846642  73.4054184 100.4283142  72.1313715  73.5944700
  94.8760700  63.3819056  32.6858115  94.3306828  63.3047771  33.4686470
  95.6958008  63.7621737  33.0015135  83.1663418  70.9272528  11.8037975
  83.0672836  70.2178574  12.4387610  82.3854733  70.8668947  11.2534881
  17.0308486 103.4200382  21.1972499  16.9653407 104.2709351  20.7637572
  16.4822856 103.5056114  21.9769859  47.5487324   1.3188943  31.0770130
  46.8872067   1.8445310  31.5268183  47.4862381   0.4551515  31.4847660
 103.3844471  59.2748833  20.5459738 103.1280613  60.0673676  21.0176420
 102.5573349  58.8350773  20.3492713  75.0188112  81.1405754  32.1932530
  74.8930931  80.3102207  31.7339754  74.6627283  80.9865761  33.0683112
 104.2733192  85.1407909  15.4315412 103.4546375  85.5532551  15.7070017
 104.0545368  84.2137146  15.3372037  24.1073219 101.1588001  25.0841832
  24.6454421 100.4746151  24.6859956  24.5965663 101.9673061  24.9319172
  92.3559380  99.1410923  33.0394483  92.1793175  98.2427311  33.3187175
  91.7854404  99.2730713  32.2822571  33.4765331  52.0861530  70.2698374
  34.3058483  52.5119734  70.0527000  32.8158752  52.5945616  69.7994328
  12.2413246  73.5041761  31.1488700  11.8667594  73.1154776  31.9393420
  12.9090301  74.1088390  31.4725637  13.5645095  76.3091230  33.8151908
  13.6631290  75.5975294  33.1826282  14.4509021  76.4639711  34.1416216
   7.9782478 101.3268948  51.2433529   7.8148357 102.0794201  51.8118954
   8.7499038 100.9046268  51.6208172 100.8481598  64.0875816  25.7109976
 101.7642021  64.1712809  25.9757590 100.4714298  63.4745979  26.3423085
  25.7381817   9.2635640  36.6523123  26.5880676   8.8946732  36.4117813
  25.8846947   9.6637067  37.5094318  81.9298363  63.9679146  30.7605886
  82.3749161  63.1449938  30.5582547  81.7122650  63.9002514  31.6902733
   1.0077754  72.2017956  18.4057283   1.5413658  72.9732466  18.2149959
   1.6393844  71.5334702  18.6715150  99.9123859  73.3835602  26.7730212
  99.7980118  73.5709047  27.7047133  99.9334431  74.2450333  26.3563108
  85.5424404  68.5868549   8.6126733  84.8523903  68.2617855   9.1909361
  85.5763340  67.9501629   7.8987372  15.7578746  85.1676178  23.7782264
  15.9012977  85.6451416  22.9611373  14.8371498  85.3236198  23.9883685
   0.1983348  55.3483152  57.8516150  -0.0281151  54.4297409  57.9971027
   1.0725204  55.3207922  57.4626732  15.6128398  86.9695759  32.9884791
  16.3884727  87.5301743  32.9697824  15.4108611  86.8093300  32.0666552
 109.9054718  98.3510017  36.5355158 109.9095154  98.7022972  37.4259090
 109.2475700  98.8722229  36.0753775   6.5117923  37.3759985  23.0623531
   5.8444587  36.7388582  22.8075123   6.3885681  37.4878693  24.0049744
   0.4235069  75.0248289  51.2658024   0.0464813  75.7930803  50.8369970
   0.0506488  74.2800999  50.7940149 101.6429424  89.6612358  24.9631500
 102.4783421  89.4505119  24.5461011 101.0770702  88.9177990  24.7550035
   6.3977043  88.5198879  25.0802922   5.8321277  87.7482700  25.0494552
   6.9535057  88.4405994  24.3050289   9.4467346  90.8027363  43.2730913
   9.9780456  91.5779018  43.4549046   8.6057750  91.1524582  42.9786110
   3.2205860  80.1294231   7.3378253   2.5736896  80.7166004   6.9467062
   3.9193527  80.7098389   7.6396221   9.3833152  69.1409111  22.0199752
   9.1385166  68.2466888  21.7819142   9.1597644  69.2114162  22.9480314
  92.4815655  89.4820786  49.7868395  92.0291710  89.9807930  49.1065025
  92.6008224  88.6117935  49.4065571 100.3553772  97.0963478  54.4533539
  99.9740601  97.9723835  54.3951893  99.8107529  96.5593719  53.8777924
 103.9735222  51.9799042  46.2434721 103.0828857  52.1134090  45.9191608
 104.0422916  51.0338831  46.3720989  95.5603123  55.9877300  45.8838940
  95.4349518  55.0395250  45.8461761  96.0329151  56.1344433  46.7032528
  10.4164501   4.0932092   5.6815207  10.7760807   4.9486073   5.4465848
  11.1067864   3.6766538   6.1974180  42.1000000   9.3743714  21.6534519
  42.5486084   8.6737069  21.1801052  41.5736195   9.8151406  20.9864688
 102.8256607  93.2876110   9.4886565 102.3616982  92.8582287  10.2074039
 103.0487537  94.1532707   9.8308492  15.8494941  82.1244907  33.9448595
  15.1634685  82.0914459  34.6115732  15.3945819  82.3915672  33.1461382
   9.0960199  81.2360477  51.9018316   8.1496441  81.3181019  52.0196152
   9.2587614  81.5798759  51.0234642 109.4646072  95.2826595  44.9958086
 109.6103382  95.4831123  44.0712500 110.2624226  95.5791092  45.4338026
  98.0106068  80.0340652  61.4432192  97.9043579  79.7330236  60.5408239
  97.6682186  79.3169451  61.9768286  12.4334995  76.0739136  36.5133810
  13.0510417  76.3651371  35.8425164  12.6622764  75.1573801  36.6678452
   0.9978191  86.3856602  61.4522028   1.6807739  85.7155037  61.4260340
   0.7550708  86.4443016  62.3762512  93.9101219  83.7570095  19.7212005
  94.5750046  83.6866760  19.0362048  93.0771732  83.7251568  19.2506647
 108.5635185  96.0803699  52.0308161 108.9170170  95.2567005  51.6948748
 108.1964302  96.5151024  51.2610865   9.9927322  93.1447697  28.7509942
  10.5135337  92.8621292  27.9992557   9.1127864  92.8139687  28.5707211
 109.3083000  53.5756683  27.1281123 109.3849182  53.5910416  26.1741066
 108.6993504  54.2857838  27.3309588  11.7938133   5.8427533  22.1238589
  10.8405586   5.8185109  22.0404458  12.0244595   6.7589673  21.9702625
  10.1519004  69.6643734  44.1916466  10.9743110  69.2093420  44.3728304
   9.6989910  69.6852970  45.0346565  87.9271317  83.6228085  18.7565219
  88.1262970  83.3620930  19.6557391  87.2660732  84.3091393  18.8469732
  54.6238805  21.2299812   9.6509191  54.3755723  20.3295553   9.8602411
  55.3425790  21.4261187  10.2519533 102.7380943  36.1277413  27.9981709
 102.6077747  35.1825285  28.0744863 101.8536282  36.4934325  28.0130005
   4.7884170  51.7768574  21.4974999   3.9914409  51.7778730  20.9673476
   5.0839797  50.8665371  21.4838791 109.4281101  88.2839012   5.6039965
 109.7481060  88.1440735   4.7127700 109.3418026  89.2340755   5.6811714
  23.7263099  85.6292057  15.9463131  24.1747753  86.3796520  15.5565155
  23.0166046  85.4305553  15.3355026 108.4652042 102.0797825  27.9647398
 109.2917728 101.6917324  28.2518625 107.9700661 102.2138596  28.7728810
  82.1351719  97.5496101  65.0241041  82.3773956  97.6982784  65.9381342
  82.9576683  97.3173237  64.5930910  22.9730216  89.3108463  32.2074509
  22.5468913  90.1574230  32.3414040  23.9006225  89.4810200  32.3712683
  96.1425018  56.0148096  17.8805494  96.9598961  55.8270931  18.3419263
  96.0370731  56.9631672  17.9562795  12.8357974  84.0422916  52.6558971
  13.0763427  84.4066429  53.5077286  13.0419818  84.7375584  52.0311451
  19.4008914  60.0266027  30.0530910  18.6068908  59.6442127  29.6795058
  19.0976802  60.8137608  30.5055070  81.3876724  79.6712637  55.4298687
  82.2705841  79.5628595  55.7833290  81.3784409  79.1321659  54.6389675
  13.2516281  73.4607553  24.9892974  13.4363166  73.0160189  25.8165383
  14.1142455  73.6292934  24.6101832  54.9064727  17.8489467  85.1527522
  55.1164336  18.7611600  85.3527985  55.0089069  17.3910781  85.9870750
  97.1927547  64.0385771  12.9850245  96.7841816  64.1395140  13.8447428
  96.5246582  64.3334866  12.3662281   7.3147003  51.2214947  33.2112861
   6.7610065  51.9859886  33.3700323   8.1871501  51.4945793  33.4949851
  43.8386151  25.0003823  67.4961472  43.6508557  25.1616677  66.5715027
  44.4252869  25.7131108  67.7492809  39.8501293  70.4629612  22.1032500
  39.5429889  71.3547182  21.9399405  39.3968765  69.9301100  21.4499044
  93.1994629  56.0506058  48.1285429  92.3006058  55.8767700  48.4079456
  93.1359768  56.1758757  47.1817017  54.2564387  28.4242364  63.4328846
  53.8106628  29.1039868  63.9382962  54.8651309  28.0243226  64.0540127
 108.2147217  85.9095001  26.3075995 108.1536102  86.6030312  25.6507039
 109.1484356  85.7035732  26.3523316 101.3329697  99.6291542  18.1645346
 101.5345287  98.7856770  17.7593696 100.4421520  99.5271301  18.4995973
   8.8772670  55.0472975  25.3652811   9.4827453  55.6096888  24.8822260
   8.4948532  54.4778872  24.6976256  79.9688435 103.5194302  40.5907345
  80.1281738 104.4594383  40.5056238  79.3476629 103.4464359  41.3153315
  91.3807774  64.4230843  41.6541767  90.4861546  64.5069170  41.9841194
  91.6634560  65.3239679  41.4969110  99.1493607  59.1378784  27.5551963
  99.7265434  59.8931360  27.6678014  99.1277504  58.9918470  26.6094470
  23.0795284   6.4731893  33.5926270  22.9158875   6.5783795  32.6554036
  23.7625881   5.8045110  33.6429358  96.6753769  89.1810703  43.2750702
  97.0825481  90.0022125  43.5510540  97.1988964  88.5002327  43.6977005
  26.5479561   1.1046418  40.2334833  27.2196671   1.0634812  40.9141684
  26.6319462   0.2749452  39.7636151   0.3515712  62.4820995  35.9590960
   0.4180805  61.6753244  36.4699030   0.9595863  63.0862093  36.3852382
  53.7575431  39.6854230  75.6908313  54.3115039  39.2115994  76.3111976
  53.2757564  40.3123590  76.2303296  87.2467136  95.0834751  36.3415551
  86.9238377  95.6490135  37.0430899  86.4767265  94.9103832  35.7999110
 110.7260513  71.7408228  27.0189238 111.4617920  72.2145414  26.6309643
 111.0809422  70.8767176  27.2277570  77.2349453  49.4213200  30.6267309
  76.2938690  49.5158482  30.7739472  77.6017523  50.2718639  30.8681035
 109.4984679  13.1660470  44.8876381 110.1580863  12.5710687  44.5310736
 109.7367530  14.0248307  44.5384312   2.2039215  75.0509310  88.2351875
   1.5487567  75.5864525  87.7877522   1.7209522  74.6222973  88.9417648
  10.0109855  96.4837170  42.9282618  10.3346244  97.2135639  43.4562826
   9.2541305  96.8411732  42.4638939  76.3861275  78.2057333  37.0810413
  76.3583374  77.2578239  37.2111177  76.6839600  78.3149338  36.1779332
  17.5887481 100.9087467  44.1041279  17.7186195 101.8552876  44.0456581
  16.7156116 100.7638264  43.7396336  78.4455252  88.6666870  42.5084162
  78.2968521  88.0299759  41.8093300  78.9700174  88.1943703  43.1549931
   6.6575328  56.9609976  47.7682114   6.4266101  56.5170288  48.5841751
   6.8524639  56.2512684  47.1562386  13.5892673 104.7789966  15.0149894
  14.1100927 104.2895009  15.6516719  13.1450076 105.4495515  15.5338562
  64.3690391  82.1491519  21.5065861  63.6044498  81.8954650  22.0235729
  64.9876018  82.4972788  22.1487808  53.3917284  42.4996710  25.2504134
  52.5848293  42.0008135  25.3780437  53.7718678  42.5684309  26.1261988
  51.8789434   3.9930716   2.3486704  52.5157738   4.6815148   2.5402984
  51.5519285   4.2058590   1.4745918  35.2997041  20.7494712  49.0190506
  35.9577203  21.4429688  49.0670824  35.7643247  20.0044298  48.6379051
  57.4973869   7.7329516  31.3525629  57.4773359   6.7795527  31.2697339
  56.7341471   8.0323869  30.8585668  81.6432667  14.9105418  36.7634630
  81.1670971  14.2692626  37.2909641  80.9650803  15.3487432  36.2493801
  63.5552788   6.7189157  38.2395959  64.1625500   6.9407958  38.9454484
  62.6878357   6.7957962  38.6369205  69.7045565  20.9181666  35.5038214
  70.1471758  20.1961398  35.0577331  68.9083958  20.5260587  35.8624411
   2.6340766  99.2776308  22.5095868   1.9022174  99.8673407  22.3283195
   2.3888130  98.8340703  23.3215785  29.1435666 103.2180396  19.4914222
  29.0549178 103.4685851  20.4109883  28.3852143 103.6132105  19.0613329
   9.3707362  51.2166653  58.5728553  10.0370207  51.4034037  59.2342404
   8.6216536  50.8919716  59.0725306  48.0337520  83.2432381  60.6178045
  47.7269454  82.4983278  61.1347246  48.8365932  82.9308191  60.2005911
 102.6421689  65.0142026  85.8717627 102.8467559  65.9492492  85.8796168
 103.4683513  64.5863580  86.0967130  38.8925834  91.4620188  56.0392189
  39.5741124  90.8014206  56.1631632  38.5769172  91.3160769  55.1474333
  23.7371965  91.2659076  17.0284307  22.9754539  91.4413825  17.5808728
  24.3638892  91.9514350  17.2598135  83.8870430   0.4542062   2.4878269
  84.4051552   0.5669731   3.2847464  84.0694141   1.2386945   1.9705723
  96.2197971  41.1990166  53.2844353  96.9886303  41.7659235  53.3455992
  96.1175156  41.0344601  52.3470545  53.0049658   4.0466923  57.9456472
  53.4829330   4.5353198  57.2755575  53.4424543   4.2745262  58.7659693
  56.2324710  87.0264534   4.5351821  56.7490764  86.4303092   3.9930043
  56.2919612  87.8701655   4.0870267 109.0161780  85.8162371  49.2390442
 109.7034601  86.4186457  49.5236111 108.2089690  86.3267878  49.3021536
  91.5590477   3.8705122  32.0156026  91.1755276   3.8015398  31.1413097
  91.0724735   3.2356384  32.5413537  63.2417917  42.8491259  22.5185895
  62.4706841  43.3564711  22.7720261  63.0509949  41.9591951  22.8149796
   1.4119907  88.6403612  31.0516858   0.8604212  88.2473603  31.7281127
   1.3557239  89.5820240  31.2139773  89.9468517   4.5628378  35.0578904
  90.8859921   4.6460238  35.2231693  89.8587418   3.7329388  34.5891285
  95.2751922  43.8724857  80.6985549  95.7689332  44.6713250  80.5133287
  95.0628184  43.9327204  81.6299525  50.8071089  24.5181680  43.9552498
  49.9628639  24.5180106  44.4063377  50.7091999  23.8638067  43.2635450
  66.3718843  35.3742075  18.1941879  65.8472300  34.9593329  18.8789141
  67.2623158  35.3803515  18.5453618  97.7311611   7.7636206  33.5706925
  98.3060551   8.4658808  33.8749337  98.1557465   6.9597697  33.8703299
  78.6613941  22.6828575  24.8966193  78.8595772  21.7905569  24.6124554
  77.7515268  22.8214550  24.6336269  67.4270248   3.1871891  14.8104763
  67.6509571   3.8368902  15.4767907  67.7950382   2.3679307  15.1415551
  12.7900024 103.0754543  30.1596808  12.5321908 102.9399160  29.2478728
  12.0213123 103.4721977  30.5694890  11.7242093  86.2827710  21.0651970
  12.1566959  87.0865038  20.7767510  11.5229888  85.8149365  20.2547216
  23.3104506  43.5781049  80.0940672  24.0236655  44.0511983  79.6654121
  23.4732714  42.6583767  79.8847297 109.4026164  96.3328365   2.3506340
 110.3217915  96.0747847   2.4196242 108.9869908  95.9469638   3.1217295
  16.6699739  91.4360849   4.3905893  16.6158815  91.0946969   3.4979752
  17.3780103  92.0794264   4.3584722  78.0040121  13.3399892  20.3490233
  77.3728323  12.6269591  20.4461360  77.9022741  13.6280310  19.4418788
  32.9715533  96.0230050  26.6035891  32.4190660  96.8040750  26.5733123
  32.9083152  95.7198611  27.5093150  84.4493580  14.8261690  36.4896131
  83.6163807  15.2622914  36.6690207  84.2190170  14.0978348  35.9128070
  82.4419212  29.0279770  27.5745630  83.0911350  29.7293997  27.6270461
  82.4432755  28.7688112  26.6531181  99.7360877  82.6940123  20.9082627
  99.2467121  82.2193686  20.2363586  99.2964748  82.4693957  21.7283344
  95.0439358  10.8015656  18.0454075  95.7574940  11.4049852  18.2526398
  94.3114662  11.3697267  17.8068483  34.9252391  33.5879874  34.0375876
  34.6379876  34.4953418  33.9354563  34.1133285  33.0821991  34.0723729
  48.5560222  75.1207367  34.1389132  49.4218440  74.7257486  34.0361619
  48.0845065  74.8746077  33.3430958  14.3801775  81.5907943  86.3320402
  13.4486094  81.3837349  86.4064810  14.4361487  82.5224936  86.5442554
 104.3430237  75.4547134   8.3254415 104.1152934  74.5439449   8.5121769
 105.2878240  75.4388801   8.1726950  72.3801184  21.0395718   1.1485399
  72.8924131  21.2338519   1.9334218  71.5029240  21.3666272   1.3480385
  48.8407660  14.9516582   3.4537563  48.5806036  14.1124511   3.8335985
  49.4276142  14.7174716   2.7347302  28.4290786 102.0715869  59.9512053
  28.9147277 102.1935261  60.7669926  28.3542962 101.1220107  59.8566294
  32.4875732  93.5694305   4.1776070  32.1867843  94.3644849   3.7375554
  33.4217544  93.7164537   4.3256778  29.4526811  67.8536192  38.6862803
  29.9772639  67.6023856  39.4464970  29.1522880  67.0229665  38.3174801
  42.6186085   4.7933769  11.4537132  42.8436708   5.6812721  11.7315984
  41.6643190   4.7567287  11.5186870  75.3915930  11.0425711  47.5433302
  76.0023975  10.6993580  48.1955242  74.7638702  10.3330469  47.4063110
  73.5347939  33.9044809  25.1607561  73.2496500  34.1703534  24.2865515
  73.0268145  33.1152534  25.3486681  89.4655560  38.6313796  90.2282890
  90.2039098  38.1999766  89.7982294  88.6931466  38.2902550  89.7774500
  84.6540546   9.2465293  30.4019713  85.0648212   9.5175844  31.2229657
  84.6772003   8.2899356  30.4269648  46.8672557  88.5578374  51.7522717
  47.0289798  88.6740402  52.6885271  47.6765914  88.1735996  51.4152813
  49.8592663   2.1197832  16.7780268  50.2469158   2.9501718  16.5015948
  50.3347015   1.8872558  17.5756001  81.6920280  47.2368479  10.3722465
  81.1889076  47.5250435  11.1338556  82.4196053  46.7361975  10.7413101
  19.1636653 103.0057247  17.8597152  19.4133229 102.2087682  18.3274364
  19.7378774 103.0239399  17.0940900 103.4876918  50.1629084  76.0677413
 104.3500709  50.5781927  76.0764054 103.1545352  50.3211154  75.1844481
  68.2179737   6.1387992  62.9668474  67.2633553   6.1846179  62.9136229
  68.4211397   6.4085293  63.8625050  27.4915171  35.6184745  41.5368605
  27.1529078  36.5136695  41.5510559  26.7866087  35.0898099  41.9108200
  30.2079053  95.8631912  18.0148506  30.6938071  96.4635936  18.5802245
  30.2426047  95.0228760  18.4719038  59.9259520  27.4297667  16.1078763
  59.9864769  27.3829913  15.1537371  60.3287601  28.2685041  16.3325906
  34.3083072  25.0289249  62.9369259  34.8923159  24.3395185  62.6208830
  34.8628664  25.5764604  63.4927130  37.4778028  92.2158543  10.9570992
  37.2044606  91.9549981  10.0776279  36.7337175  91.9910852  11.5157104
   6.3895698  99.8804459  20.3630471   7.2357173  99.9306184  20.8077431
   5.7814927 100.3239140  20.9544921  57.3751545   5.1200867  30.7223344
  57.9231739   4.6538937  30.0910091  56.8406582   4.4364646  31.1263204
  45.4916954   2.8259957  13.3192742  44.8542023   3.4708789  13.6257958
  44.9856758   2.2355843  12.7610731  33.3778334   6.6949117  20.2313709
  34.3086028   6.4731282  20.2580309  33.3525515   7.6402891  20.3792048
  83.2432078  38.4285616  75.3135697  82.3329305  38.7180662  75.2518669
  83.2252358  37.7163875  75.9528783  38.8683796  15.1714253  17.7736259
  39.7833896  15.0520265  18.0280519  38.6325836  14.3531418  17.3365402
  37.5116916  80.9414378  11.3609099  37.3932262  81.5188256  10.6067085
  38.4607120  80.8495036  11.4454365  24.9593778  90.7457296  55.9705496
  24.4868512  91.4065937  55.4643822  24.9156757  89.9553636  55.4323673
  91.3567208  67.9873621  87.3371533  92.2225522  67.5861501  87.2623152
  91.4592933  68.8536417  86.9431091  90.2037621  27.0026517  14.9576819
  89.7661114  26.5846348  14.2160964  91.1371326  26.9227791  14.7610164
  82.1903324   7.4223435   6.9350922  82.1978664   7.8633738   7.7846020
  82.1002197   6.4935327   7.1482164  61.3485765  17.3701084  16.2997985
  61.4371586  16.6049802  15.7315004  61.7456484  17.1005690  17.1279991
  63.6748266  15.7257724   9.6967167  64.3868399  15.1467431   9.9687302
  63.1553507  15.1980114   9.0902114  81.5766715  38.3590483  79.5552055
  81.1867856  39.0340638  78.9997092  82.2194671  38.8283288  80.0870112
  71.3863420  18.8884461  25.4473066  71.1041498  18.5134053  26.2815380
  72.2125292  19.3275619  25.6493711  89.8919487   6.0719985  25.6651449
  90.5286503   5.7675272  25.0185108  90.3634548   6.7322236  26.1730909
 106.3542651  54.0710607  89.7423524 106.6820430  53.9460761  90.6329552
 105.5557345  53.5445822  89.7049366  69.0941143  25.3552914  17.9112864
  68.7737799  24.4710302  18.0893421  69.1521406  25.4013729  16.9569588
  25.2439733  92.6300911  12.2768104  26.1715789  92.8318862  12.3995316
  25.0298495  92.9993085  11.4200366  80.1953793  15.0755811   3.3519217
  80.7457924  15.5755711   3.9546534  79.6656752  15.7369351   2.9066592
  76.2756275  57.7820557  89.0941361  76.5051722  57.5801420  90.0012043
  76.3039302  58.7376725  89.0469452  52.1753597   7.0972967  28.2887197
  52.9298544   7.6749063  28.4041905  52.4152899   6.5340739  27.5528932
  71.9741726  10.4205310  28.9988160  71.8480062  11.3693416  29.0073633
  72.1100760  10.1886976  29.9175191  67.9330397  16.7808127  33.8817072
  68.5069370  17.3803401  34.3586206  67.8643322  17.1608794  33.0058885
  91.2112426  50.0139816  74.7210816  90.9400319  49.1336023  74.4610647
  90.3904103  50.4894769  74.8490134 101.8296288  67.0956504  83.7178258
 101.6047143  67.9859459  83.9880506 102.3403644  67.2104025  82.9164449
  78.9956856   0.8175235  11.9572413  78.5481215   1.6063911  11.6512895
  78.8166094   0.7898302  12.8971338  54.5218611  12.2165942  28.6504340
  54.6843910  13.0028212  29.1716480  54.0989399  12.5398183  27.8548861
  78.4751606  21.9772792  42.4906445  77.8611612  21.3330007  42.1383047
  77.9793835  22.4339151  43.1702900   0.4456606  73.5073125  89.6897955
  -0.0945053  73.9357364  90.3538011  -0.1803026  73.0389368  89.1375056
  75.9136677  16.0421765   5.3594404  76.4630222  16.6021347   4.8109072
  76.5277147  15.6163037   5.9576154  65.0381899  43.9313602   6.2248790
  65.3189802  43.1499672   6.7011309  64.5274496  43.5929823   5.4894364
  73.2392502  47.5033712  23.2813954  73.0158234  46.5781593  23.3828497
  72.5322056  47.8631735  22.7458072  14.7423450  33.7882447  47.7926970
  14.7554199  33.9866495  46.8563747  15.0712673  32.8912997  47.8520823
  68.9285274 104.0697312  31.0356021  69.0414710 104.6770137  31.7668247
  68.9899821 103.2014215  31.4337134  66.9495010   0.8375913  43.9332676
  66.5176487   0.5761802  43.1200027  67.1103668   1.7753236  43.8283300
  45.6833172  14.0231586   9.1505396  45.4174662  14.8940539   9.4456625
  45.3255129  13.4275758   9.8089397 106.3212441  79.7428381  82.9186848
 106.8161963  79.4058001  82.1719209 106.9217681  80.3514397  83.3490387
  43.6379714 103.6288213  36.0400414  43.9826865 103.5138876  35.1544929
  42.7655215 104.0008578  35.9110308  71.1642933   5.9434074  39.9307990
  71.9447756   6.4410174  39.6869516  70.9414005   6.2610668  40.8058119
  17.3592467 103.0581859   6.3146418  17.5046201 102.5838018   5.4960704
  17.0810790 103.9316511   6.0391194  95.1288509  39.2791891  17.8263450
  96.0504532  39.4401240  18.0287981  95.0322151  39.5547557  16.9147766
   1.5534965  32.6229692   1.6728157   1.2901966  32.2634506   2.5199577
   1.9123355  33.4858584   1.8799202  41.1974096  16.3324261  11.3773477
  40.7297468  15.8647561  12.0693076  41.1570930  17.2519338  11.6402400
  40.9367175  82.1281043   4.7984380  41.8344970  81.7961899   4.8055196
  41.0334916  83.0800453   4.7724405  43.4044833  96.1900387   8.8959479
  42.5255151  95.8979246   9.1374552  43.4551044  96.0418418   7.9516459
  16.6291895  17.4501383  71.7948357  16.9969836  16.7113912  71.3098482
  16.8670264  17.2804701  72.7063612  89.5433998  12.9087973  63.0581665
  89.9427032  12.0959830  63.3682013  89.9630833  13.0750775  62.2141027
  53.1995678  10.1521957  29.8547029  53.6965322  10.7523239  29.2987323
  52.3127317  10.5123067  29.8630619  94.4021225  14.7084057  12.8056443
  93.6900997  15.3345788  12.9366505  94.4426346  14.5867968  11.8570650
   1.6324563 104.2558676   3.1039563   1.0385080 104.3635272   3.8468337
   1.6019292 105.0974664   2.6489714  46.3454008  10.1684701  18.8744354
  47.2594213  10.2573013  19.1444504  45.9427452   9.6388537  19.5626247
  64.6368122  45.9141970  21.8994880  65.5658293  46.0682917  21.7279887
  64.4449425  45.0884581  21.4549971  72.6141357  54.7051716  33.6436701
  73.2321882  55.1726532  33.0817938  73.1379318  54.0186882  34.0567088
  55.1945682  87.0176200  57.0293140  55.7126231  86.7507843  56.2699413
  55.0065704  86.2000481  57.4902534  86.5805626   8.9134943  19.4794047
  86.3346386   8.3226871  20.1912355  86.9647408   8.3413035  18.8151467
  56.2949419  44.7977877  20.2981114  56.3092184  45.2055597  21.1639929
  55.9854126  43.9062881  20.4582763  84.9764441  81.7155921  75.3765801
  84.7457599  81.2419831  76.1757735  85.8930444  81.4886534  75.2198068
  66.9467640  26.3553691   8.2273781  67.7558279  26.5057921   7.7384818
  66.4187241  27.1366072   8.0628395  93.5915470   8.6387503   4.7759062
  93.4274006   8.6016560   3.8336158  93.9854145   9.4997251   4.9167019
  65.4828835   2.5476062  25.3815937  65.3702545   3.4550169  25.0984812
  66.3029289   2.5507715  25.8753014  94.4949006  97.9577648  84.1363183
  95.0700997  97.6366722  83.4418557  94.9899768  98.6652243  84.5493958
  74.1509390  14.0746522  18.9381623  74.9791241  14.0086555  19.4135404
  74.2252398  13.4276891  18.2366276  86.3485622   4.5633599  45.6427860
  86.6577625   4.0906414  46.4155531  86.9172955   5.3313547  45.5883551
  86.6188049  32.7841425   0.0634738  85.7692528  33.0842566   0.3866211
  87.1007442  33.5890484  -0.1265084  94.9800109  68.1999254  79.5428184
  95.8068084  67.7546215  79.7281340  94.3061589  67.5694024  79.7969857
  34.8435870  83.1929028  78.9156893  35.5350199  82.6147353  79.2379943
  35.0835982  84.0594375  79.2439381  62.4674702   0.7649938  38.1374812
  62.2240734   0.1656332  38.8429999  62.3251438   1.6374561  38.5046101
  41.0156107  28.2009554   8.5051280  40.2530384  28.6610079   8.8559407
  41.7284107  28.4290910   9.1018713  60.5939765 104.1082869  46.9942856
  61.4510245 104.0882799  46.5684795  59.9879165 104.3685597  46.3006210
  92.8478622  38.4287429  29.2474794  92.0929909  38.7333226  28.7438655
  92.4673939  38.0070806  30.0179839  83.2660103  19.4383991  11.6157389
  83.3869743  20.0628543  10.9004378  82.3164558  19.3651009  11.7116761
  49.3957329  19.5981646  63.8201332  49.9957275  20.3231120  63.9953232
  48.8221931  19.5715201  64.5860100  68.9724016   8.9256173   7.7547956
  69.8291063   9.3320143   7.8856725  69.0017653   8.1289589   8.2846111
  71.6718912  46.9917345  16.3000989  72.2320366  46.2620974  16.0353398
  72.2275257  47.7657509  16.2084806  84.1952896  20.8111143  26.6858935
  83.4674072  20.8415318  26.0650206  83.9753914  20.0916505  27.2777081
 107.1425866  62.6692533  85.9904299 108.0865144  62.5346744  86.0748122
 106.8487596  61.9563245  85.4233060  71.5288019   9.7949576   8.3906144
  71.9367504   9.2000937   7.7613699  71.8216705  10.6656694   8.1216884
  52.2030349  86.0711793  19.3501711  52.8009792  86.0506335  20.0973439
  52.4265094  86.8783120  18.8866794  65.6400251  18.5742462   8.9244992
  64.7711277  18.8540542   9.2125237  65.4796648  17.7775645   8.4187168
 102.6942635  38.0472326  12.2964668 101.8745136  38.3627248  11.9160593
 102.4980640  37.1548772  12.5818467  73.7531805  26.0626912   0.2020962
  73.7528944  26.8552828   0.7387812  73.4160423  26.3482785  -0.6470271
  69.6740103   9.3420142  22.7430344  70.5438662   9.6410996  22.4782085
  69.8226213   8.8674581  23.5609245 102.2357082  12.1400547  23.5390258
 103.0536175  11.8470788  23.9407897 102.4845409  12.9042089  23.0190444
   4.0783925  59.4576636  32.1074367   3.7145181  58.5906163  32.2864962
   3.6003633  60.0438396  32.6940513   8.8132658  83.5626137  77.8252796
   9.1615191  82.7785408  78.2497624   9.5890799  84.0665114  77.5794593
  91.0377644  65.0583541  81.4301023  90.1732825  64.6687209  81.2993774
  90.8957385  65.7423150  82.0845166  31.3765569  94.6652905   7.7831274
  31.7269035  94.4103995   6.9295955  31.6751285  93.9785639   8.3793616
  65.4689884  10.3714061  29.5451999  64.6331692  10.2162147  29.9851489
  65.9757566  10.8902526  30.1698709  32.4835992  31.9976187   8.5255194
  32.0196772  32.2959423   9.3078303  33.1867170  32.6360297   8.4059721
  74.6150541  10.0346136  10.0383890  74.3182373  10.7911730   9.5326734
  75.3187990   9.6556449   9.5117378  35.7256503 103.6694442  46.6544771
  35.9883113 102.7510900  46.5922928  35.1908631 103.7124528  47.4471855
  83.5415268   0.3711388  22.9367328  83.6897469  -0.1544105  22.1505642
  82.6668835   0.1184856  23.2323503  80.4932594   9.1130042   1.2564267
  81.4281464   9.3030256   1.3345324  80.3832817   8.2682085   1.6928394
  80.6312561  38.6808324  23.7713504  80.4841137  37.9358768  24.3541241
  81.5819836  38.7192225  23.6670637  61.2447162  98.5386309  27.8403711
  61.4255424  98.2780251  28.7434864  61.7578311  99.3367485  27.7140808
  96.7208672  36.6764736  16.9227409  95.8336258  36.6462445  17.2806787
  97.2643948  36.2651801  17.5947869  44.7191615  92.2545520  36.7708731
  43.9832492  92.8625420  36.7001104  45.2355857  92.4105218  35.9801698
  53.4414954  90.5373124   6.3556701  53.5143180  91.3296059   5.8235049
  52.4992175  90.3960732   6.4472604 102.4798203  12.2635329  20.5697536
 101.8754292  11.5278983  20.6686759 103.2328796  11.8944311  20.1083493
  58.1529570  24.8832321  25.5319500  57.8712559  24.4394064  26.3318825
  58.8212156  25.5029583  25.8245230   2.9185763  59.1045975  76.1629823
   2.2319641  59.0332728  76.8260888   3.7360945  59.0515005  76.6580335
 101.7703103  38.3410930  83.7241403 101.3358020  39.0824782  83.3024976
 102.6614474  38.3555746  83.3750043  93.2783604  13.3786011  38.8872695
  93.1177425  13.9621472  38.1457114  92.4304962  13.3101797  39.3262291
  54.9775600  42.2875261  32.3659706  54.9183464  42.8922081  31.6263175
  54.5187950  42.7339697  33.0776286  64.4639778  31.4142251  17.2785127
  65.3801680  31.6913629  17.2740376  64.2867804  31.1875319  18.1914437
  12.5993529  40.7889008  53.2353452  12.9394427  40.6403517  52.3530177
  12.5989142  39.9219000  53.6409835  92.3837232  73.0736172  50.2907971
  92.4393128  72.4452543  49.5708684  91.4729546  73.3679878  50.2819899
  99.3818091  51.0846637  90.5031474  99.6835803  51.9918599  90.4566715
  98.4312104  51.1527320  90.5923715  54.1299529  96.3769433   3.7567228
  54.6130271  95.8016703   4.3499601  54.6934886  97.1439842   3.6551905
 108.5790776  69.3541646  49.6174601 108.8766860  68.6081206  50.1381186
 108.0707597  69.8860347  50.2298001  80.2827930  38.5862064  29.5373535
  79.9820185  38.0962157  30.3026485  80.4403114  39.4711947  29.8663163
  98.6418438  23.1101632   8.9500695  98.0326748  23.6701846   8.4689051
  98.0794239  22.5253439   9.4579130 103.3335972  23.5150266  49.2379665
 103.6535549  23.4249187  48.3403349 102.6219654  24.1521549  49.1757536
  43.4638214   7.4260026  19.8862445  43.0738926   6.6651314  19.4558251
  44.4055271   7.3217797  19.7500062  97.4135971  46.6625547  27.0545769
  97.7034187  46.8449640  26.1607313  96.4771366  46.8606043  27.0478392
  28.6630149 102.3961664   6.7036247  28.1431575 101.6005823   6.5894812
  29.4754453 102.2216323   6.2285221  65.4835272  44.0424252  12.0666850
  65.2778292  44.9772596  12.0658553  64.9392653  43.6780453  12.7647138
 108.5979318  60.4778504  83.0330828 107.9166030  60.6991922  83.6679301
 108.2916783  60.8592581  82.2103015   6.8026724  62.8164601  73.2396284
   7.3291293  62.9141950  74.0330545   7.3643008  63.1449556  72.5375620
   7.6217981 103.5486877  52.7078962   7.1275325 104.1933011  52.2015285
   8.4078117 104.0168445  52.9893970  76.0875654  51.3144779   7.1006799
  76.1426020  52.2166204   7.4158657  76.9728994  51.1119652   6.7983454
  96.7368221  12.6370621   8.9303416  97.3223591  12.6850152   9.6860427
  96.8891811  11.7658794   8.5641980  75.2431774  31.9761443  23.8561106
  74.3891287  32.2725487  24.1707206  75.8339405  32.1202445  24.5953417
  48.4294510  49.0403461   2.5364569  47.5737429  48.6116314   2.5223160
  49.0095043  48.4324455   2.0779441  53.8232279   5.7916802  26.3393140
  54.6631432   6.0550678  26.7153406  53.8625908   4.8357001  26.3113141
  82.4170685  54.2476511   6.7091954  82.7126884  54.7484255   5.9488875
  81.9007397  54.8707914   7.2204071  67.5840092  50.4503345   6.1068940
  66.7660141  50.5423546   6.5954125  67.9273796  49.5974541   6.3732004
  70.2400589  17.6473403  31.2733936  70.5011225  18.5376191  31.5089393
  69.3023109  17.6147497  31.4626026  27.2275915  52.9687794  89.6324217
  26.4724532  52.9421359  89.0448146  27.8930750  53.4546821  89.1453268
  14.8046584  80.6773678  15.8078992  14.4849010  79.9597660  16.3547409
  14.0862031  81.3097993  15.7984710  71.2635279  20.2177429  40.7146215
  71.8471432  19.9799609  39.9941444  71.1196661  21.1578202  40.6060362
  57.7906036  11.3677430   8.6150551  56.8801546  11.1093533   8.7584066
  57.8090191  11.6902387   7.7140063  97.2684383  57.6956272  21.8278432
  97.1538353  56.9597340  22.4291444  96.3773060  57.9515266  21.5898919
  49.2874332  73.7430063   9.1378355  48.6083312  73.4706751   9.7549981
  49.1768832  74.6908489   9.0629697  26.4537282 100.4645828   5.8883250
  26.7573352 100.7314787   5.0206721  25.5281253 100.2546704   5.7641029
  55.3900385  12.6303732  12.7428782  55.4161501  12.3177052  11.8385613
  54.7889900  12.0315814  13.1860733  54.3256664  10.0939941  13.0135310
  53.7611818   9.6752954  13.6633611  55.1569796  10.2274740  13.4688687
  68.2562208  52.7242327   9.1103154  67.6430845  52.6730537   8.3770478
  68.8497829  51.9849968   8.9782506  78.5351753  10.8320892   2.3440742
  77.7551222  10.2773702   2.3379238  79.2600775  10.2277863   2.1841791
  55.4977226   9.3668211   7.9718965  55.3014994   9.1037154   8.8710660
  56.3902473   9.0557516   7.8206742 110.5043172  42.5649601  83.6999915
 111.0949372  43.3059507  83.8353953 109.9283790  42.8446483  82.9884425
 102.8806305  52.7310419  22.0378375 103.1777763  53.2669735  22.7731657
 101.9315720  52.6760817  22.1496320  79.0744400   1.5807955  27.8344798
  79.9461317   1.4065041  28.1894612  79.1968679   1.5749872  26.8851590
  12.9258051  58.3898985  87.3647744  13.7328616  58.1724494  86.8983010
  12.4021616  58.8726437  86.7252496  69.0034246   9.1119719  37.0097280
  68.3228064   8.7810642  37.5958109  68.5928822   9.1177636  36.1450577
  55.2821064  38.0020928   8.2944471  55.6568050  38.8779306   8.2009536
  54.4239521  38.1498885   8.6918902  69.3331385  30.1313448  17.5283194
  69.8900080  29.4014645  17.7992523  69.2667580  30.0419068  16.5776217
 110.9383296  49.3035781  74.9397865 111.7265414  48.8893219  74.5885745
 110.5966186  49.8235309  74.2123846  36.5062900  99.3047002  23.9952731
  37.0690866  99.0787843  24.7358513  35.6233354  99.0786848  24.2877483
  95.8518791  69.0568018  12.7184606  94.9928379  69.1636515  13.1269419
  96.1113262  69.9442339  12.4707031 107.6191615  91.5871274  70.4753855
 107.4292849  91.8745005  69.5823029 107.9426049  90.6918132  70.3752354
  60.5580759  48.8586807  17.1952879  60.3774738  49.5909357  16.6058636
  59.7219753  48.6886358  17.6291752  87.7224636  21.4225268  31.7273974
  88.4515381  22.0003271  31.5019345  87.6772690  21.4556313  32.6829576
  83.7545586  41.7879820  21.5105534  83.7206650  41.9811726  20.5736661
  83.8490963  42.6439857  21.9283509  89.9049854  33.6157680  15.2587247
  90.2858353  33.1969333  16.0305810  89.7448349  34.5193362  15.5310273
  55.6912947  17.0579636  14.1645396  56.5328026  16.8773663  14.5834458
  55.5126572  17.9752743  14.3715739   5.9671011  51.4542693  77.0113484
   6.7961016  51.4311303  77.4893311   5.8926764  52.3579048  76.7045335
  41.4800925  99.2787835  10.4760337  40.6552835  99.6997670  10.7183075
  42.0566364  99.4331173  11.2243736  60.2652740  23.9393830   3.1932440
  60.0701284  23.1418204   3.6852223  59.6503401  24.5882940   3.5352975
  84.1950607  57.1013498  17.6853073  84.7008038  57.8804445  17.9165542
  83.3389950  57.4404192  17.4237633  46.0398765  92.8666237  60.0479937
  45.5821700  93.2701841  59.3105125  46.8041797  93.4250763  60.1901054
  58.3431812  83.9504829  18.9894223  58.6961360  84.1104427  19.8646760
  59.0434451  83.4872738  18.5297549  24.6077720   9.7643441  41.0944653
  23.7073127   9.7589296  40.7698441  24.9127952   8.8656813  40.9695816
  89.6583748   8.9305753   6.1855292  90.5836773   9.1676575   6.2475723
  89.2642784   9.2941767   6.9784421  34.7310443 100.7274664  16.1210930
  33.7943454 100.6735781  16.3106132  35.0350709  99.8205093  16.1561608
  89.2593861  52.4469614   6.3196981  89.3242455  51.5571165   6.6664028
  88.6371326  52.3771667   5.5957049  51.6022015  21.9079423  20.5405045
  51.2934542  21.0128546  20.4000497  52.3274279  22.0106173  19.9242783
  98.9556503  38.8192558  29.9790025  99.0070820  39.2327785  30.8407354
  98.7525177  37.9025340  30.1649928  50.1971812 103.0859696  22.8476858
  49.8839660 103.2964197  23.7273645  50.5864330 102.2157428  22.9338503
 102.2599696  47.9305109  88.1005398 103.0296706  48.3950558  88.4291594
 102.1706675  48.2259267  87.1944568  27.5529142 102.6149452   1.1829148
  27.7750297 103.2698802   0.5211306  26.6263480 102.7670232   1.3688672
  63.1637405  61.4892149  85.9260771  63.8000845  60.7835078  86.0412947
  63.6542820  62.1849537  85.4884145  83.8709450  78.5647154  12.8790963
  84.1557312  77.6732731  13.0802524  84.6842289  79.0614510  12.7893269
  21.3779874  92.7163664  22.2038484  22.2814508  92.4223772  22.3202777
  21.2393041  92.6950089  21.2569880  89.9548244  27.6058936  11.1923623
  90.4607201  26.8062973  11.0476077  89.3559074  27.3845887  11.9054878
  76.4418316  23.4446573  44.1491938  76.0612822  24.3048429  44.3266582
  75.7127380  22.8336382  44.2555523  52.1781778  28.6054730  31.2853336
  52.3738623  27.7394891  30.9275508  52.8164196  28.7237978  31.9888067
  53.4576797  15.3935540  17.7317011  54.0145540  15.2473700  16.9670081
  53.8167238  14.8141646  18.4037340  64.0603447  15.3915203   6.4936483
  63.2914686  15.2651715   7.0496142  64.0282249  16.3158190   6.2469220
 109.0087460  51.8395528  80.8873639 109.1395854  52.7078706  80.5063966
 108.0924558  51.8350456  81.1641792  74.3310213  20.1153684  16.1463356
  74.5336294  19.1826785  16.2189293  73.8724518  20.3248882  16.9599998
  70.8486223  26.6233230  40.4142427  71.2583447  27.4042273  40.7864666
  71.5827417  26.0515237  40.1898527  40.9875341  24.1786309  60.5583600
  41.1680741  24.0093108  59.6337155  40.0974841  24.5306989  60.5680469
  88.6358738  31.6037202  20.3183651  88.6247826  32.5202990  20.0427008
  88.4039783  31.1135554  19.5295715  92.7670335  72.5465762  85.6235561
  93.3386373  72.2385537  84.9202589  92.2665786  71.7725658  85.8817837
  30.4872413  97.8204105  50.0388718  30.4002185  98.0921820  50.9525442
  31.3764281  97.4715898  49.9763966  96.4869690  27.5662112   9.9181747
  97.0318508  26.7794108   9.9348509  95.8586693  27.4375343  10.6287444
  71.3156700  29.8606896  23.8500762  70.6893063  30.3885627  23.3548474
  70.8323383  29.5828414  24.6281672  71.8495369  23.7242365  27.8849554
  72.2786903  23.5458493  27.0481539  72.1469688  24.6019912  28.1243491
  39.2960167  22.5146031  23.5647607  38.7800741  22.0821166  24.2451954
  39.4410157  23.3993340  23.9001083  96.7457294  35.6917691  39.5682573
  96.0445118  35.0425601  39.5130658  96.4792252  36.3841844  38.9634705
  67.0106839  87.4245393  83.4929857  66.5508555  88.2494843  83.3372489
  67.3120831  87.4857533  84.3994311  74.5958185   0.1774217  22.3325753
  74.1696930   0.9272722  21.9174004  74.2219257  -0.5851988  21.8911624
 105.4985761  54.2138297  80.7027868 105.9150266  53.4170422  80.3742555
 104.6460437  54.2352117  80.2680901 100.7942486   1.3917644  18.5066414
 100.3671265   0.9409341  17.7782500 100.1135921   1.9583663  18.8698256
  34.7142720  15.2710867  14.9528420  34.4055271  16.0843205  15.3522909
  35.2106977  15.5547214  14.1851521  95.9650993  39.3067265  41.4390326
  96.6368198  39.5171094  42.0876980  95.6191635  40.1570892  41.1680317
  41.2248850  10.8037353   5.4745722  42.0782423  10.8088589   5.9081495
  40.6133223  10.5171347   6.1528629  57.3735423 100.1561758  18.6866868
  56.9854636 100.8967337  18.2206321  56.6412730  99.7602073  19.1591525
  37.5333448  75.8652583   6.6668296  37.1811576  76.5213815   6.0654175
  38.2158847  75.4210845   6.1637563  59.9426174  10.3731573  11.4821088
  59.4550037  10.9843826  10.9299600  59.2678928   9.8972052  11.9663107
  47.0690723  91.9742600  20.3199458  46.2395568  91.9313112  20.7956386
  47.2160525  91.0794297  20.0135016  42.5450320  99.8134479  28.2825351
  42.4434800  99.3940440  29.1369462  41.7201657  99.6376130  27.8298616
  52.3490615  99.4745627  15.6590879  52.8978725  99.9740291  15.0544679
  52.9429050  98.8310734  16.0457349  64.9035645  68.8734818  12.2461200
  64.0422726  69.2889023  12.2032773  65.0502586  68.7220335  13.1798089
  88.3448982  26.4598370  16.9732380  87.7796841  25.8735466  16.4702213
  89.0356255  26.7110682  16.3600457  64.2603540   4.1815686   3.7984052
  64.6936464   4.8020250   3.2122955  63.6334801   4.7132114   4.2889342
  70.6175609 101.0657156  54.9559927  70.5662246 101.8940980  54.4791508
  70.6419845 101.3212786  55.8781242  97.5986862  29.8172474   8.6183065
  97.1473312  29.0732622   9.0170491  98.2750988  29.4207573   8.0692226
  96.6357327  25.6034899  50.2212334  96.9972229  26.4829731  50.1113939
  95.9896183  25.6958294  50.9214115  70.2907991   4.5254967   7.4053693
  70.5499601   5.2976882   6.9025910  70.9870577   3.8890785   7.2428083
  96.8882656  10.9412217  21.2744021  97.5489807  10.6792104  20.6332779
  96.0872650  10.5042863  20.9850788  95.5525112   1.2360370  41.9625998
  95.8229160   1.8955468  42.6014757  94.6148014   1.3874701  41.8443108
  43.3804417  24.3271470  13.8534784  42.5870085  24.2719150  14.3860626
  43.2227755  23.7256694  13.1257439  90.0067992  96.1063150  25.6977892
  89.4446082  95.7518498  25.0089335  89.5579810  95.8812240  26.5127277
  12.6938811  33.2559514  75.5596021  13.4190836  33.7357330  75.9597520
  13.1106081  32.6906502  74.9092141  57.9568958  19.2276120  34.9994564
  58.1497097  18.7948704  35.8311963  58.8051081  19.5502913  34.6950746
 104.3128777  17.2248161  36.2317395 104.3246841  17.7089345  35.4060745
 104.6612549  16.3617134  36.0083175  83.8276672  12.3743749   4.5594501
  83.3613777  12.8511500   3.8728023  84.7531986  12.5390482   4.3791565
  92.6389980  23.9189482  18.2907081  93.4747696  23.8660455  18.7543070
  92.0314598  23.4172130  18.8341987  65.4082918   8.6433607   1.6770378
  65.2708006   7.9133797   2.2807397  64.7595644   9.2965090   1.9393025
  17.2523109  32.4936438  40.6344318  17.0781986  33.1960273  40.0078726
  18.0284397  32.7859521  41.1123466  21.5504737 104.7603307  18.8302898
  21.2476583 105.4007895  19.4739866  20.8129354 104.1593256  18.7251437
  38.3000608  92.8128985  31.7421603  39.1297956  92.4884180  32.0921302
  37.7496810  92.0331756  31.6690183  85.1156425  34.7116923  32.9383183
  85.9212208  35.1921320  33.1292772  84.8361683  35.0424170  32.0846534
  61.7992110  93.0033198   4.3028358  61.4533706  92.8824690   3.4185132
  61.0684867  93.3747963   4.7970852  71.4342641  61.1984551  80.8388576
  71.9996308  61.9491237  81.0207609  71.5713023  61.0150551  79.9094394
  63.3473825   7.9729891  33.1934905  63.4712601   8.5129774  32.4129152
  62.4434042   8.1407499  33.4597898  94.1049241  79.6629083  61.6789511
  93.3207845  79.1421663  61.5052108  94.7310780  79.0382063  62.0448927
  50.2905746 101.5881017  12.3274791  50.2841087 100.8692059  11.6955149
  51.2063117 101.6627136  12.5960040  72.2862864   7.6146221  13.1116188
  71.7694855   7.5004083  12.3140585  72.5717688   8.5278195  13.0833113
  87.6153851  16.9839263   3.7983066  88.3661366  17.1058834   4.3794459
  87.8414726  16.2165093   3.2727724  76.9887443  81.2683765  27.5644970
  76.7195983  80.4274312  27.1948934  77.4230189  81.0407010  28.3865666
  68.8805723  26.0725021  30.3632975  68.6142063  26.1145234  31.2817287
  69.2160225  26.9481087  30.1709008  97.3787880  43.8408279  14.2113793
  96.4244652  43.7791348  14.2527139  97.5618076  44.7772312  14.2880869
  27.0492215  85.2893928   5.6377017  26.7798133  84.3782011   5.7533813
  27.9366441  85.3239516   5.9947991  64.7237253  23.5434127  33.2801175
  65.4071856  23.7377119  32.6387453  64.9546146  24.0722585  34.0438223
  59.5830154  20.4823494   8.5913795  60.0263119  21.3261366   8.6793697
  58.9532471  20.6153822   7.8829116  77.5070190   8.9487767  22.1543980
  77.3316908   8.3993417  21.3904500  78.1796217   9.5623571  21.8588448
  86.7815208  13.2398665  17.1219528  87.4666882  13.8412130  17.4137700
  86.9893742  12.4117792  17.5547361  33.3105464  96.9943718   9.1977102
  33.8338323  96.2192074   8.9939380  33.1289430  96.9212291  10.1346743
 108.5033703  20.4679227  27.1972322 107.6808357  20.8239174  26.8611717
 108.9923477  21.2349725  27.4951744  65.9224892  26.0649800  14.7128129
  64.9940825  26.1758590  14.5078754  66.2208462  25.3830910  14.1109467
   4.7457210  43.6150217   2.9252830   4.6574203  42.7416086   3.3068427
   4.7451106  43.4646034   1.9799757  70.5307150  31.0226130  41.7751074
  71.0933876  30.2643251  41.9320393  69.6421528  30.6667113  41.7804098
  84.1463089  27.6561260  21.6595960  83.2888794  27.2338533  21.7120123
  84.0352631  28.3429074  21.0021520 102.5375462  32.9412389  14.4839394
 102.0660496  32.5320649  13.7583399 102.6223660  32.2462845  15.1366842
  88.3696365  56.4620829  17.5954533  89.1132641  56.4519739  16.9928420
  87.6006794  56.4090586  17.0278859  75.5619192  47.0634794  28.3428597
  74.7328424  46.7681932  27.9664779  75.4935122  48.0181742  28.3536696
 101.3136959  46.7633438  25.4790330 101.0315228  47.3432922  26.1863256
 101.7832470  46.0564566  25.9218359  74.4943333  52.0908785  13.1128001
  75.2242422  52.0950127  13.7320280  74.2266321  51.1731625  13.0642354
   0.1490585  40.5130196   7.4514222   0.2366344  39.6112776   7.7603346
   1.0248176  40.8863735   7.5508511 105.7803630  59.5840770  67.2015289
 105.4335545  59.9448931  66.3855842 106.0767030  60.3489941  67.6948026
  15.0605098  27.5728226  38.4825420  14.9017040  28.3359027  39.0381694
  14.3490592  27.5904202  37.8424144  88.4076405  77.6692915   3.9977485
  87.6867962  78.2279015   4.2885432  89.1520500  78.2647228   3.9108431
  84.5661068  10.7951272  12.5202036  84.4810772  10.7079172  11.5707850
  84.5687008   9.8944247  12.8441811  99.5384549 103.3509695  87.7197591
  98.8986443 103.7515461  87.1311939  99.2395591 103.5902369  88.5970524
  14.4094459  53.9713049  14.5750988  14.3484394  54.8710442  14.2541945
  13.5226814  53.7606764  14.8675382  25.6831446  58.4773880  87.2781444
  26.0605994  59.1364300  86.6955454  24.7709647  58.4038710  86.9975094
  88.5803890  47.6504230   3.4819770  89.4716930  47.6681089   3.1334284
  88.0249310  47.8548050   2.7296937  31.5346804  69.8565638  89.7907666
  30.6597128  69.8224783  90.1774087  31.4823237  69.2800045  89.0284876
  84.6021080  24.7987771  16.7748272  83.7764835  24.3608713  16.9817257
  84.5814991  25.6048679  17.2906029  10.1789752  26.5733624  10.0979924
   9.8319522  26.7892456  10.9635544   9.5189659  26.9006872   9.4868672
  63.2439990   0.3734990  85.0225738  63.3151336  -0.5584172  85.2292148
  62.3781867   0.4652234  84.6248398  37.8711319   6.0796463  24.7209215
  37.3442483   6.1909485  23.9295697  37.9000926   6.9519180  25.1140332
  10.8371440  39.8576355   8.5460722  11.6904823  39.4854021   8.7685275
  10.7032482  40.5520773   9.1910976  94.9903202   5.2593607   8.9776802
  95.1810837   4.3565357   8.7232232  94.8092937   5.7078576   8.1516582
  52.4574089  50.2945662  27.5665736  53.4042025  50.3566742  27.4402714
  52.0987272  51.0137796  27.0466638  21.4732542  59.4939464  89.5969436
  21.6311541  58.6746543  90.0660495  22.3257056  59.9290448  89.5811911
  70.3273487  34.9736810  23.3486557  69.9678659  35.8492184  23.2057023
  71.0269308  34.8932123  22.7003121  96.5828609  22.9187703  13.0459023
  95.6557465  22.9609370  13.2802629  97.0450783  23.0194402  13.8780391
  95.8189964  36.0968971  44.7798109  95.3128242  36.9022822  44.8864508
  95.2101517  35.4842043  44.3673182   2.7227679  93.8809406  85.9001932
   3.4941473  93.9653265  85.3397582   2.8827992  94.4898283  86.6212166
  82.9475403  57.4958658  23.5633802  83.3253098  57.2682476  22.7138472
  82.3037434  56.8077230  23.7313390 103.3537292  31.1380649  53.2406855
 102.4117374  31.0433221  53.3817863 103.6450291  30.2658510  52.9749441
  84.9510384  19.0007341  48.2411194  85.2198315  18.4479356  47.5073671
  84.3487263  19.6361518  47.8542089  88.5208511  32.0550680   2.3158267
  88.0259991  32.7226353   1.8407452  89.2851830  32.5202346   2.6558849
   8.6785213   9.9674273   2.1911862   8.7229625   9.1116416   2.6176685
   8.4308521  10.5713618   2.8912982  90.6509399   1.0490793  59.6288490
  90.4276371   1.5803847  60.3930998  90.9047985   1.6855940  58.9605379
  63.7496996  54.9073172  24.0945745  62.9046011  54.4691229  23.9944649
  63.6090851  55.5409670  24.7981024  47.0266342  39.3095398  35.8208704
  47.7980757  38.9479280  36.2571597  46.8835545  38.7328577  35.0704050
 109.5874023  28.5524654  25.3590250 109.4971371  27.6052046  25.2551651
 108.6874962  28.8746428  25.4100227  26.9157115  41.6008615   6.9174993
  27.7836696  41.2500954   6.7178768  26.3364021  40.8395720   6.8848360
  84.5265675  22.1701622  23.1293702  84.8871040  22.8958201  22.6197958
  83.9553738  22.5897884  23.7727141  61.6768503  15.5802882  18.8075614
  60.9871244  16.0348141  19.2912149  62.0134258  14.9302948  19.4243741
  77.6926804  42.4533939  10.3513050  77.4637079  41.7832136   9.7073638
  78.1097460  43.1457233   9.8384964  10.3247061  68.6635375  86.6134862
  11.1479273  68.5172295  87.0794651   9.6947470  68.0944907  87.0557231
  81.8768883  48.3603430  39.5132661  80.9547424  48.1922150  39.7071886
  81.8645859  49.1202593  38.9313698  62.2485538  84.1638652  -0.2163759
  63.0210204  84.7247902  -0.1465106  61.9660087  84.0315333   0.6885498
  65.4469538  65.7935476  33.6626625  64.6715355  65.2364683  33.5946846
  65.2629948  66.3707113  34.4037914  91.3053989  62.5875330   9.6012300
  90.8860874  62.8262568  10.4279256  90.7572460  61.8866873   9.2482668
 108.6561108  39.6304631  16.4623260 108.1424236  38.8254285  16.5276635
 109.3883324  39.4968677  17.0641911  82.9936218  53.6090040   0.9332860
  83.2536697  54.3202066   1.5187764  82.7212811  52.9033279   1.5198709
  94.1125774  38.3898544  45.5024529  93.5543728  37.6123381  45.4917622
  93.8915730  38.8321161  46.3220787  66.5823793  20.7027674  32.3989868
  66.4952040  20.8492851  33.3408809  65.6843233  20.5790329  32.0917106
  61.9040203  20.7888389  30.9589911  62.3146772  21.1606860  30.1784015
  62.5869322  20.2464867  31.3536048 104.6203232  30.2025723  49.6405411
 104.1824818  30.9504437  50.0470018 104.3573093  29.4523144  50.1736164
  97.9281998  23.1625247  54.6876097  97.2229862  22.8270316  54.1341257
  98.6822128  22.6127887  54.4743299  40.0754399   1.4766284  77.1511844
  40.2508731   1.4976855  78.0919341  40.9283490   1.6308280  76.7449800
  97.9589462  17.6866925  26.5422940  97.1381378  17.4664950  26.1018085
  97.6948547  18.2364273  27.2800517   2.7745334  17.8614557  12.5400817
   2.3229400  18.5041606  11.9930685   2.0798007  17.2806966  12.8503919
  90.3768253  55.0584412   9.9401301  90.1997566  54.1223717  10.0331604
  90.8827591  55.1271915   9.1304761  27.5667086  42.5715458  89.8921829
  27.2095385  43.1885141  89.2534255  27.1445837  42.8100502  90.7175062
  49.7531596  67.3468101  87.0417831  48.9866248  67.4660742  86.4810315
  50.2828589  66.6918039  86.5872342   7.5473491  12.8342617  39.8861861
   8.4884349  12.8550816  40.0598335   7.2626964  13.7410581  39.9998784
  82.7555561  45.1701117  35.6152320  82.1787930  44.9642992  34.8795533
  82.2115135  45.0351334  36.3911414  88.9065838  17.2262800  12.4159777
  88.6237621  17.0144844  13.3055770  88.0945206  17.4107444  11.9440103
  77.4154329  46.2070227   1.7638497  76.7213106  46.7888403   1.4541444
  77.0017338  45.3452015   1.8122888  43.3781290  22.0298004  30.0961280
  43.3579826  22.0918727  29.1411543  42.9063225  22.8065395  30.3966403
  74.7789097  48.6368513  20.2466083  75.6940985  48.7647486  20.4962277
  74.8058033  48.5001469  19.2996025   3.2307998  41.8733215  21.9251251
   3.7406627  42.6489973  22.1587992   2.3309604  42.0978975  22.1619344
   7.8105536  97.4197733  69.9594907   8.5186091  97.4002087  70.6033090
   7.0559874  97.7553904  70.4434518 108.6102009  56.3963175  17.0152366
 107.8995132  55.9147263  16.5918887 108.7404442  57.1665001  16.4619851
  31.4167014  82.2997796  87.9157398  30.4666224  82.3772585  87.8286496
  31.6902914  83.1312024  88.3031905  22.6669302  74.7885286  79.8869160
  22.5452319  74.2405498  79.1115848  23.5554304  74.5906841  80.1829735
  10.6370154  86.0596358  84.3216184  10.1823130  85.3812086  84.8208330
  11.5522375  85.7793581  84.3151007   8.2952300  36.8162036  47.3739004
   8.4302703  37.6258135  47.8663731   7.3735229  36.8429971  47.1170664
  10.8746806  58.0057978  89.2875705  11.1620798  58.3188849  90.1452467
  11.5391341  58.3296167  88.6794027  16.6444006  47.9704195  71.4960030
  15.7631674  48.2328146  71.7620972  16.6122237  47.0140904  71.4708821
  71.3302183  12.4163485   9.9970090  71.0453892  11.5348017   9.7562164
  72.2505379  12.4503362   9.7360677  10.1594630  51.6930350  85.9808508
   9.8584547  51.7073456  86.8893782   9.4852343  52.1706520  85.4976032
  21.6611095   0.9458467  77.4861542  21.9562907   0.0365039  77.4393288
  20.7198806   0.9010955  77.3178998  11.4471426 102.3941719  38.3037881
  11.9756213 102.6421892  39.0623645  12.0263949 101.8420899  37.7785233
  84.3963432  60.4302120  40.4216146  85.2310753  60.7528114  40.0819254
  84.3903542  59.4995308  40.1979446  24.8966399  87.1177852  69.8327378
  24.6321574  86.6515100  69.0397266  24.0904990  87.2002446  70.3422192
  55.4843521  26.4919877  50.6714058  55.8170128  25.5946708  50.6912613
  56.2538576  27.0364428  50.8377171  16.2443534  56.8651342  10.7586849
  15.7148353  56.8187237  11.5547323  16.4326087  55.9518242  10.5426633
  68.7225962  20.5145812  21.3706994  69.4070292  20.2180290  21.9705653
  68.1404781  19.7601938  21.2797523 106.7085599  68.7624538  66.4099673
 106.4111613  69.6126735  66.7338685 106.9071340  68.2610023  67.2007564
 103.9742564 100.5901253  70.4321078 104.8972463 100.4015505  70.6016949
 103.9765834 101.4620077  70.0370721  27.7828017  86.8375289  89.6608122
  27.9195395  86.2610519  90.4126144  28.2129088  87.6567995  89.9058498
  75.6174755  37.8113103  10.9567308  75.5766439  38.2261634  11.8183935
  75.3209543  36.9139647  11.1086440  81.6944790  32.4610662  26.3236070
  81.4253139  32.0838356  27.1611500  82.5079918  32.9254627  26.5204883
  68.5487986  43.1154013  17.2818041  68.0759382  43.9417553  17.1829677
  68.1909370  42.7287769  18.0809855  22.1768561  71.6525495  85.4207478
  22.2393790  70.7681584  85.7815460  21.8012705  72.1744918  86.1297939
  94.5386505  61.7252874  11.3457608  95.3107071  61.2368584  11.6314030
  94.8381042  62.6323986  11.2848365  71.5729427  28.8344097   2.0107907
  71.4584684  29.6442699   2.5080380  71.2918758  29.0565872   1.1231697
 105.8891772  87.3640596  89.4876455 105.7083701  86.4245450  89.5168439
 105.9732055  87.6204526  90.4060324 104.3224621  71.7545795  22.2544408
 103.9698887  71.7645264  21.3645983 104.2102432  72.6524687  22.5665855
  27.6471987  59.3833106  74.3049828  28.1937209  58.6386424  74.5560220
  27.0099440  59.4627744  75.0147823 106.5529823  25.0468826  22.8855920
 107.1819496  25.7400036  22.6850724 107.0243359  24.2347074  22.7000690
  89.6916103  42.3719168   8.7728995  90.3861618  42.4363661   9.4283909
  89.6823597  41.4477396   8.5238093  82.3382182 101.2434012  21.7708206
  82.5880332 100.8592940  22.6112294  81.4989562 101.6704151  21.9426632
  89.8079300  35.0334692  30.4020619  88.8694000  34.9244618  30.2487564
  90.2246666  34.4971085  29.7276163  91.6770649  21.6981745  19.9983227
  91.0879612  22.4259400  20.1971865  91.9064426  21.3350749  20.8537626
  76.4352703  27.2396016  11.1324644  75.5094147  27.0619583  11.2982059
  76.8399096  26.3736367  11.0814488 106.0547829  50.0349045  55.5442762
 106.8585968  49.7993565  56.0075569 106.2136173  50.9234047  55.2255678
  90.0126457  43.5273170  20.6148887  89.8632526  42.7183914  20.1254511
  90.6523132  43.2870293  21.2852049  55.2087775  80.2205121  81.6722593
  54.8088351  80.2942431  82.5387696  55.0328722  79.3189013  81.4032093
  74.3691397  43.3349991  37.6536131  74.1733265  42.3984432  37.6810145
  75.1125526  43.4068441  37.0549393  53.5150528  20.8312416  33.8898683
  53.3564377  21.0221601  32.9654098  53.6271334  19.8811829  33.9224267
 106.1553001  52.7873230  24.6309328 105.6499767  53.5544968  24.8998690
 106.1702156  52.8334284  23.6749601  57.8383780  77.2135782  22.7366495
  57.1494722  77.6107597  22.2038364  57.3723078  76.8108368  23.4693217
  82.5289440  47.4902391   3.6189589  81.9104195  47.8694725   4.2433256
  82.7664280  46.6450500   4.0003911 104.4544697   8.5434347  26.4034605
 105.2474880   8.3287561  25.9122658 103.7436771   8.4290832  25.7726407
  97.4550723  99.3103659  87.0266837  98.2454156  99.7017967  87.3986656
  96.7834758  99.9849331  87.1274618   2.6187412   8.2646912  19.2418790
   2.3724739   8.9722556  18.6461115   1.8175403   7.7520162  19.3489957
  75.1626921  35.0022197  18.6526287  74.9350214  34.4638920  17.8946042
  75.3975868  35.8523798  18.2807612  13.3113280  61.3764226  88.0418051
  12.5396910  61.4060294  87.4761883  13.5742178  60.4560315  88.0403117
  95.0331497  28.6942291  17.9819381  94.5716190  28.3060670  18.7252748
  95.2643967  29.5749640  18.2770061 105.6979846 103.0687916  72.5191728
 106.4063834 103.6887037  72.3456660 105.3827666 103.3034622  73.3919839
  52.8287458  15.3199160  29.6721101  53.5207987  15.9811080  29.6612954
  53.0327177  14.7720826  30.4300714 101.8723774  84.5758915  36.5440083
 102.5564957  84.6460915  37.2098017 101.1002064  84.2774677  37.0245600
  82.5403023  23.0435514  25.1729941  82.0568180  22.3553014  24.7160649
  82.2651863  23.8542151  24.7447848 106.9444275  62.1960831  45.3697920
 106.9241905  61.2405539  45.4226446 106.4104176  62.4881840  46.1085415
  23.4133620 105.1046051   7.2754961  23.9122768 104.3096228   7.0875543
  22.6816459 105.0795529   6.6588962  88.6924648  10.8520031  31.2845445
  89.0931225  10.3354764  30.5853295  87.9245853  11.2523210  30.8766985
  70.7684417   7.2278806  85.3304568  70.9002299   7.6056977  86.2000078
  69.8724361   7.4706956  85.0970981  61.3660383  41.0654402  19.3893850
  61.0121965  41.9239140  19.6218598  60.6935072  40.6716919  18.8336027
  85.2517509  22.8111267  46.1287785  85.2129555  23.7032771  45.7841063
  85.6155300  22.9098916  47.0086288  61.4797401   4.1039732  25.7372332
  60.6560087   4.5656407  25.8939433  62.1396685   4.7964746  25.7030082
  99.9806642  80.4571282  86.4926801  99.1586398  80.2967608  86.9561354
 100.6545495  80.3863442  87.1687711 102.3523235  57.7849770  38.8221836
 102.6165771  57.7745342  39.7421241 101.4044285  57.6536036  38.8437629
  26.9684262 100.6926689  19.0087664  26.9118829 101.5218708  18.5339415
  27.1279092 100.9474540  19.9175465  88.7129498  22.2879958   2.0204504
  88.6430740  21.4129376   2.4020585  88.5047531  22.8813386   2.7421349
  93.3365726  26.9853663  29.3145990  93.9751053  26.8096137  28.6234999
  93.7132549  26.5823531  30.0968528  14.2403213  82.7092075  21.9611812
  14.2922965  83.3813190  22.6407313  14.1515724  83.2006168  21.1445594
  72.0106411   8.3994514  27.1024823  72.8139067   7.8788769  27.1006870
  72.1998167   9.1297227  27.6916742  68.8920355  14.5452654  31.0022879
  69.8232031  14.7668278  30.9942150  68.6122179  14.6533871  30.0933075
  64.9237919  13.5756671  34.1662908  65.8504772  13.7857091  34.0506387
  64.6155214  14.2038584  34.8194170  17.7847949  28.2723546   0.5754514
  17.7949230  27.3155999   0.6029048  16.8572894  28.5035944   0.6253681
  85.5297279  52.3404169  51.8456697  85.5251503  52.5230074  50.9060574
  84.6339035  52.0651960  52.0405483  72.8694582  40.0124025  24.1337729
  71.9641495  39.7081566  24.1976547  73.2772779  39.4198442  23.5022736
  86.2690926  67.5061989  32.9238725  86.1772346  68.4498501  33.0554628
  86.2344933  67.1368361  33.8062596  87.1785831  23.6596751  28.1283927
  86.5398026  23.5515070  27.4237704  86.9911480  24.5255852  28.4907460
  87.1357441  63.7439871  12.5295579  86.3385677  63.3785820  12.9132450
  87.7682590  63.0263138  12.5627291  75.8140135  48.8615656  15.9919727
  76.1489058  48.1161928  16.4904690  76.5481806  49.4746780  15.9556031
  94.9284840  56.9429350  33.8844323  94.4929218  57.7934742  33.8288546
  95.8459282  57.1544886  34.0569735  11.3517467  42.9073286   3.0740947
  10.6071941  43.4934616   2.9387274  12.1110717  43.4143877   2.7867952
  88.6972904  39.5756650  48.3443403  88.6487389  40.4111862  47.8798199
  89.6336842  39.3836808  48.3946896 101.4941883  42.8271866  12.8107297
 100.9851456  42.2556543  12.2358787 101.8608856  42.2383308  13.4702873
 103.7318944  99.8854363  67.5582651 104.5174455  99.6736252  67.0540074
 104.0635156 100.2931749  68.3582667 106.8753338  74.8415041   1.2545738
 107.2041035  73.9429379   1.2814136 106.0601902  74.7835064   0.7561696
  68.1953330  93.1195787  56.6237974  68.6264701  93.4177986  57.4246836
  68.4533210  93.7595252  55.9603643  97.5404834  75.2882421  90.2571622
  98.2926654  75.6885206  90.6933129  97.7512216  75.3355610  89.3246486
  77.8591442  24.2207313  33.2358265  77.5150204  24.2772293  32.3444104
  77.7717400  25.1084518  33.5830188   7.6616565  48.2242012  35.3960681
   6.9235603  48.7555075  35.0974798   8.4363929  48.7181807  35.1277351
  82.5903606  45.1122189   4.6938044  83.3351421  44.7183800   4.2394763
  82.1946716  44.3874931   5.1779896   4.4111863  99.9348271  76.7972306
   4.4450798 100.7292664  77.3300985   4.2749110 100.2511036  75.9041301
  56.9294834  48.6446571  11.6589797  57.3263454  49.1973209  10.9857082
  56.0685444  49.0341330  11.8117201   1.1324207  39.8692989  24.5370626
   0.4198829  39.4795990  25.0436854   0.7083980  40.5447865  24.0077686
  76.3801622  17.4632227  11.7155337  76.9715977  17.1776640  12.4118745
  76.1895561  16.6659856  11.2212527  73.1747198  16.5796387  46.8048668
  72.7788115  17.4448311  46.9094181  74.0452862  16.6660893  47.1932888
 109.8871231  26.6834807  44.1992664 109.1392040  26.8075776  44.7836018
 109.5637321  26.9456196  43.3373260   9.8715106  56.4438963  28.0408168
  10.0020496  55.9227943  27.2485757   8.9254371  56.4270782  28.1853747
 105.2685642  39.0191770  51.6825914 106.0647583  38.5284185  51.4789438
 104.8924160  38.5635638  52.4356937 102.8402424  15.1426530   3.8645610
 102.2862339  14.3629754   3.9020038 102.2710514  15.8551204   4.1554922
  37.4052711  99.4007430  17.9193711  37.9234262  98.6631933  17.5972378
  36.5883584  99.3546334  17.4226260 108.3055210  52.1622133  19.3679368
 108.3998299  52.9271269  19.9356067 108.0008698  52.5191879  18.5336792
   9.1187374  23.6112332  55.0456190   8.3628837  24.1776514  55.2008104
   8.8976661  23.1299186  54.2483139  90.1967907  37.2045779   1.5374835
  90.3740311  36.4706850   0.9490791  89.4100571  36.9432902   2.0160264
   4.7231427  55.5238813  67.9613999   5.3628722  55.0923258  67.3950604
   4.8315659  56.4569988  67.7776388  53.5711665  84.7435156  27.8934026
  54.1263385  84.9355153  27.1376610  53.0766769  85.5501655  28.0384445
  54.3002510  17.1516609  48.6109400  54.1436625  17.9500103  49.1152668
  53.5106421  16.6267419  48.7421274  92.3752403  13.2721055  26.1224270
  92.4765110  12.6258099  26.8211985  92.5231838  14.1145635  26.5520883
  73.9954758  45.3360415  15.5570626  74.3716478  44.4847775  15.7808363
  74.5944691  45.6984615  14.9043083  68.2098479  78.0001036   2.5511760
  67.6168056  78.7130157   2.7884337  68.8692756  77.9961601   3.2449907
  72.6681757  20.0119090  35.2658319  71.9942474  19.4027269  34.9642444
  72.7512550  20.6480384  34.5554304 107.6728152  84.8663866  89.0856144
 107.6225709  85.3486955  88.2603357 108.3775186  84.2328941  88.9502842
 100.4814148  42.1598244  15.5084836  99.8760605  42.7794743  15.9156907
 100.0790691  41.9507647  14.6654868 100.0035000  17.7654088  13.1974030
 100.8809471  17.6941490  12.8215921  99.5467854  18.3812368  12.6243377
  65.8366632  12.3937666  15.5190110  65.6305695  11.4666784  15.3995824
  65.0164557  12.8481770  15.3266490  69.2581172 103.8453810  13.2484901
  69.8898597 104.1741038  13.8880765  69.3671985 104.4170042  12.4885035
   2.1867838  61.5418881  74.8209063   3.0220261  61.9488239  75.0511221
   2.1889105  60.7081323  75.2910963 105.8469200   8.6367381  29.3458533
 106.5778351   9.1017562  28.9387274 105.0676632   9.0007424  28.9257383
  89.0980625  28.9360762  32.1903563  88.4123516  29.2688179  31.6112900
  89.3596649  29.6945810  32.7123404  58.1833887   3.1318799  25.8633518
  58.0249310   3.4152153  24.9628830  57.5298023   2.4499616  26.0184002
  72.6985121  68.9660406   2.2178210  72.2768450  68.1067324   2.2131355
  73.5902882  68.7968922   1.9139165  67.3608637  10.3930354  12.2134435
  67.7745295  10.9613895  11.5637612  66.6617584  10.9280658  12.5892437
 101.6751003   5.5195838  15.7704079 101.5459824   5.2327126  14.8663819
 101.2817001   6.3915753  15.8034933  81.0743618  27.7517676  16.9509232
  80.5786228  28.0785775  17.7017021  81.9911766  27.8597641  17.2039258
  84.3750191  41.2017298  41.9690037  83.7087250  41.1011457  42.6488352
  84.8349762  42.0082235  42.2019005   7.9598133  23.5166883  42.7676439
   8.8570396  23.3455420  43.0538607   7.7782718  22.8305197  42.1254253
  86.8335056  56.8794966  20.0116086  87.1945000  57.1017313  19.1533935
  86.6574955  57.7253103  20.4237366 104.5329666  35.0531960  37.4586940
 103.7313366  34.6776986  37.8228760 104.4400978  35.9958339  37.5966763
 108.7650776  33.1729722  17.8776801 109.4156837  33.8709879  17.9533482
 108.4888363  33.0043530  18.7785065  70.1611376  32.0511794  10.2477407
  70.3517914  31.8343949   9.3351138  70.4831505  32.9463530  10.3535831
 109.4179821   0.7367407  12.1158278 110.0788212   1.3043806  12.5124466
 108.5823536   1.1067302  12.4005651  75.5165529  47.4220848  38.2749391
  74.7039318  47.8988743  38.1059909  75.3299189  46.8995237  39.0548921
  89.0909767  22.1706510  13.9472139  89.2617989  22.2763610  14.8830962
  88.5407162  21.3894534  13.8909233  93.4132481  26.3047290  40.7767630
  93.8545895  26.0035920  39.9825525  93.6501122  27.2295427  40.8463955
   7.2873203  31.7236423   2.4328662   7.8677551  31.7972255   1.6752979
   7.8769771  31.5826488   3.1735826  21.1371889  89.8285091  89.4438099
  21.0981169  90.3947174  88.6730239  21.6289225  89.0607392  89.1523260
 103.6747551  32.9361057   7.8601640 103.3473301  32.3116755   8.5075569
 104.5977688  33.0526686   8.0852795  87.8546333   7.4156201   0.4955169
  88.1275654   8.2528782   0.1203682  88.5019970   6.7873567   0.1754579
  57.8296752   0.3922721  66.4425496  57.6852603  -0.3575639  65.8653763
  58.7816997   0.4557725  66.5190629  13.3650867  30.6427264  37.9120350
  12.8163616  31.3177037  38.3114600  14.1265956  30.5808973  38.4886813
  57.2900057  48.0797577   4.6271393  58.0211353  47.7905893   5.1730871
  57.6142979  48.8671160   4.1899529  96.5525150  41.7491198   8.0108166
  96.5229034  41.1546040   7.2612131  95.7207394  41.6066027   8.4625494
  78.9179373  19.3413150   8.6334139  78.8471365  18.6288917   9.2687660
  79.1676617  20.1038146   9.1553944  81.5956116  26.5014410  21.5537810
  81.0048103  25.7531905  21.4682961  81.3018322  27.1165729  20.8818173
  84.6681976  46.5477610  21.1427569  84.2103958  47.3679018  21.3271928
  85.4508305  46.5813875  21.6928339  75.2208138  34.7876811  21.3241625
  75.2160311  34.6959996  20.3713751  75.6672001  35.6194854  21.4825010
  40.8329344  26.4743161   3.3842736  40.3943586  25.7451701   2.9458344
  40.8354092  27.1776533   2.7350122   0.8136645  78.9631259  81.7375961
   0.2793637  79.3334543  81.0350219   1.7071381  79.2349493  81.5277121
  67.2508903  98.4794984  15.0064039  66.6401000  98.1655261  15.6731808
  68.1015392  98.1365541  15.2803040  70.5819845  29.1966081  20.3141642
  71.1203527  28.9520550  19.5614457  69.8040104  28.6436391  20.2419639
  68.9248610  13.6826217   4.5279667  69.3367910  13.2749486   5.2897722
  68.6779881  12.9473400   3.9670330  96.6361232 102.6069466  29.6187735
  96.9143958 102.6809188  30.5316424  95.8964248 103.2098678  29.5442581
   7.3749820  81.5517139  21.6789174   7.9723445  82.2984600  21.7209220
   7.3993675  81.1756992  22.5588298  95.6942272  80.5581379  29.5123672
  96.2203121  80.5770111  28.7129259  96.2684727  80.1618958  30.1676941
  47.4818754 103.6429024   9.2683089  47.9429293 104.4283199   9.5628971
  46.9788647 103.9318657   8.5069180   8.8065807  19.1589081  22.7944589
   8.9927951  18.9126194  23.7004948   7.9802791  18.7202013  22.5919938
 103.7460709  49.1998196  22.1638203 104.1354465  48.9691639  21.3203645
 103.4167767  48.3705521  22.5103927  99.2729855  85.5725956  29.7528815
  99.8212337  86.3114071  29.4886446  98.6504745  85.4669380  29.0334678
  16.5203276  87.4396646  90.9441385  16.7041102  86.5849626  91.3339324
  17.1061316  87.4893677  90.1887635  30.9571829 100.5178558  70.4870394
  31.4491835 101.0734236  69.8824695  30.9214964  99.6651470  70.0536207
  85.4031181  80.0504971  23.6357856  84.6629715  79.6353245  24.0785551
  85.8281422  80.5715370  24.3170404  20.9315959  56.2206841  -0.1609570
  21.1178962  57.0633268   0.2531394  21.6664306  55.6618547   0.0919674
  90.6154823  60.7968569  24.4942784  90.4093742  61.1142921  25.3734779
  90.6575203  59.8450899  24.5870066  99.7324753  47.2820520  40.4308224
 100.6504059  47.1929455  40.1744890  99.3745041  47.9258060  39.8195338
 108.7888145  73.4897375  28.5999513 108.8490295  72.8643131  27.8778386
 109.6875572  73.5757351  28.9179063   8.0189792  66.4453602  35.9371519
   8.3810798  66.9037485  36.6954327   7.5805274  67.1291780  35.4308105
  85.9828854  47.3561096  36.2388492  86.5557194  48.1197929  36.1689997
  85.3163910  47.6140833  36.8756175  87.4136543  65.9561205  14.3070126
  87.3970032  65.1657486  13.7673259  87.3688698  65.6327248  15.2068138
  69.2675781  44.1457748  24.1284657  69.4590521  44.8473835  23.5061216
  69.7366428  43.3856821  23.7842631  27.4423209  97.8386938  82.9929701
  27.6981726  96.9763958  82.6655314  26.5025416  97.8917563  82.8190670
 107.2321606  30.7394743  43.3849335 106.5361214  30.1321411  43.1341171
 108.0421352  30.2568817  43.2197857 107.6090240  52.6518154  35.4147959
 108.0742550  52.2107124  36.1255884 108.3007336  52.9466343  34.8224735
 107.0080566  64.9021578  11.7433929 107.2042179  63.9653444  11.7549932
 106.5792847  65.0466537  10.8998835  97.6009655  43.6841631  18.6324739
  98.1207466  43.2962132  19.3364298  96.7873859  43.1798744  18.6296082
  76.7117591 104.0945316   6.1761427  75.9939571 104.4154783   6.7220199
  76.8873973 104.8108215   5.5659682  34.5369616  82.2123301  89.7302757
  34.1956702  81.9105208  88.8884566  34.3944445  83.1588137  89.7210646
  90.9515572  80.0376701   6.5931940  91.3376045  80.9135437   6.5860391
  90.7172680  79.8866606   7.5089115 104.1620636  71.3555956  19.4268727
 103.5761452  71.9614267  18.9731193 103.5758400  70.7527971  19.8842704
  93.5958099  28.3679891  20.6310225  94.0968513  28.9936781  21.1541867
  93.9414978  27.5123143  20.8850932  23.6023132  45.3466463  47.6285791
  23.9224426  44.4509029  47.7353191  23.9032642  45.8037281  48.4139061
  26.9063274  67.3317909   3.1618881  27.2118656  67.7681732   3.9571533
  26.2392036  67.9195881   2.8073707  71.9221401  53.0498886  29.1211009
  72.3841572  53.6728334  29.6820927  71.5898752  52.3850727  29.7243071
  77.4360557   3.7839099  89.3353487  76.7687888   3.5598441  89.9840209
  77.0329566   4.4709416  88.8045735   6.8922607  21.0992742   6.5825188
   7.3382369  20.2652192   6.7297930   6.8147746  21.1646485   5.6307030
  14.5750514  42.6983500   4.7591904  15.2289478  42.2506618   4.2223200
  14.0400878  41.9928551   5.1229441  86.0950756  76.4747286  48.9805651
  86.9876385  76.7360878  49.2069721  85.9743977  76.7866135  48.0836821
  60.0634384  89.0066624  15.1856506  59.9596739  88.2205009  15.7217538
  59.6988726  89.7114563  15.7209897  89.3992615  26.6045856  53.3408403
  89.6754742  27.3818374  53.8264465  89.9815655  26.5770173  52.5816393
 105.4235935  83.3861732   8.0033833 105.5402470  84.2560863   8.3853245
 106.2903881  83.1520557   7.6716053 105.2869987  98.8326645  12.1734250
 104.3432426  98.7068653  12.2721422 105.6661606  97.9810143  12.3905802
   9.3215553  30.3511024  22.7655840   9.7643081  31.1370969  22.4455595
   8.3901397  30.5335832  22.6415324 106.1166382  45.6581736  28.5818124
 107.0390797  45.6004715  28.3327794 105.6387329  45.5229139  27.7635574
  93.0711746 104.2277431   1.6006033  92.7289486 104.9002266   2.1895674
  92.4451351 103.5070324   1.6704859  99.6405888  76.9116211  31.7335868
  99.7381783  77.3637867  32.5715923  99.9481201  76.0214281  31.9045210
  94.3768215  35.2706528  29.6759582  94.6386528  35.2150369  28.7569451
  95.0452328  34.7721553  30.1460242  26.5235896  13.6062833  75.4907564
  27.1589465  14.3166514  75.4017190  26.3999219  13.2823297  74.5985714
  48.6814967  95.4726040  66.2989024  49.3740836  95.4302418  65.6395343
  48.3025828  94.5936167  66.3050750  88.4166145  25.0718307  37.0309782
  88.3438015  26.0027170  37.2416401  88.2547569  25.0261354  36.0886693
  83.0272007  43.9139891  24.7727728  83.2001972  44.0144014  23.8367057
  82.0970058  44.1187954  24.8677516 108.2487965  43.2119608  72.2601128
 107.3261070  43.0285692  72.0833731 108.7203884  42.7695131  71.5543699
  97.2109841  99.1971314  84.3645016  98.0335282  98.9287531  83.9550826
  97.3805093  99.1367495  85.3046331 100.0033951  52.7238178  21.9488192
  99.9055004  53.5874796  21.5478945  99.1079807  52.4474907  22.1440196
  99.9966812  40.9081936   5.3203821  99.7027016  40.5990934   4.4634876
 100.3163147  40.1214457   5.7620740  95.1535130  51.6126585  29.6217322
  96.0342216  51.7505836  29.2730737  94.9750900  52.3979044  30.1392150
  91.3200188  56.4754009  35.9229803  91.6022587  56.1965275  35.0518894
  90.3820038  56.6413879  35.8291078  82.5559998  32.7556610  10.6840038
  81.7841339  33.2999158  10.5282950  82.2160435  31.9798708  11.1298883
  94.6983242  56.7686176  39.1431785  94.6105957  56.3120937  39.9799109
  94.7881985  56.0685253  38.4966302   0.8698265  39.7719431   1.6302103
   0.6364433  40.3478718   0.9021498   1.1397735  38.9544129   1.2118704
  50.4712477  60.3034526  87.1163369  49.9499312  59.5461475  86.8499649
  51.0813418  60.4410827  86.3917178  27.8009172  15.4911061  65.2391103
  27.7847953  14.5364829  65.1708153  27.2586579  15.6857368  66.0035089
  90.1888275  29.8385882  24.9165082  89.3526936  29.4933033  25.2293706
  90.2484417  29.5368910  24.0100551  43.8188071   4.3621799  66.0555104
  44.6844478   4.7338315  66.2251261  43.8113589   3.5394212  66.5446404
  79.0273757  26.8869325  89.2445177  78.8746257  26.6036960  90.1460022
  78.5348602  26.2633677  88.7108289 104.2758179  49.4308996  35.3253698
 104.4205475  50.0703001  36.0228324 104.0272522  49.9573803  34.5655894
  97.4629879  41.7961216  12.3942077  96.5883064  41.4099360  12.4392557
  97.5020409  42.3888636  13.1447840  65.0923109  14.3879259   1.8189101
  64.5245314  14.1907334   2.5638738  65.9640789  14.4865727   2.2016990
   7.5584880  39.1597939  30.1958680   6.7968837  39.3734360  30.7348943
   7.9406825  40.0088787  29.9740267  99.9873161  41.2493706  11.4080226
 100.0510883  40.3847599  11.0023057  99.0611649  41.3412333  11.6317451
  42.8134528 101.4600908  83.4136507  43.6419573 101.5231812  83.8888702
  43.0558768 101.1148893  82.5544069  11.4163295   2.3265700  33.9595699
  10.7675640   2.9067525  34.3579698  12.1662132   2.8935698  33.7795448
  45.1689711 101.6648876  85.0142858  46.0820475 101.8885433  85.1945636
  44.8812476 101.1873114  85.7923398  90.0101852  59.9441671  27.5378633
  89.1404247  60.2041721  27.2343016  90.1360893  60.4330635  28.3511043
   4.1874019  49.3642616  12.4145699   3.8397876  49.1132164  13.2703578
   3.6973659  48.8288116  11.7905557  18.4417334 100.8134281  87.7400074
  17.6009169 100.3690731  87.8487051  18.9913454 100.4605543  88.4397477
  86.1884689  44.5082426  31.2458706  85.5518341  44.8877859  30.6401658
  86.4631748  45.2421713  31.7955208   3.0342475  10.4452729  26.0208011
   2.8461734   9.5287335  26.2228203   3.5661308  10.4110157  25.2257133
  87.8552818  52.2464275   1.5146904  88.6035252  51.9117546   2.0090237
  87.4716759  51.4704132   1.1061769  33.8069196   8.1877585  87.5270707
  34.0522142   8.5249921  88.3886593  32.9046531   7.8871175  87.6355276
  44.8948188  97.7590600  28.7428522  44.0041728  97.9005036  29.0637708
  45.1094146  98.5629973  28.2697129 103.8477612  44.0766335  11.9647431
 103.5154343  43.1946993  11.7974651 103.0785751  44.6410894  11.8874598
  96.9717979  55.2701330  23.2853413  96.9972515  54.6759510  22.5353217
  97.4245644  54.7954559  23.9824224 107.7310944  50.6086254  15.3875721
 108.3203030  50.1155615  14.8166466 108.3013439  51.2285519  15.8422554
  97.0932626  94.9686157  86.0028953  96.6344356  94.1779577  86.2867368
  96.6739463  95.6771767  86.4911074  79.6035767  38.2824373  32.3076606
  79.7387934  38.0503941  33.2264113  80.2214146  38.9957500  32.1473503
  25.9318439  77.8620100  11.0544515  25.4781429  78.2029343  11.8252695
  26.1227695  78.6372900  10.5265093 103.7654018  51.2414694  27.7883244
 103.7991714  51.2198067  26.8319654 103.7370300  50.3205776  28.0479050
  81.2035275  56.4106607  40.2664757  80.8515072  55.6136799  40.6628847
  80.8775234  57.1186590  40.8220768  99.4871712  55.7507944  28.8419104
  99.3928909  56.6572189  29.1347218  99.2514229  55.2261782  29.6070480
  62.9959393  27.4128652  13.6768067  63.5702372  28.0659246  13.2769012
  62.1109915  27.7339363  13.5035491  88.4224415  69.3863058  53.4774208
  89.2561150  69.1762352  53.0566072  88.5974026  69.2956114  54.4141150
  17.2764770  41.5266752  50.8327675  18.2289211  41.6217852  50.8380032
  16.9462768  42.4245834  50.8017778  96.5827274  65.4272270  40.4155397
  96.2777996  64.5473194  40.6369209  95.9408188  66.0116768  40.8187914
 111.1738777  12.3883641  20.1219654 111.6840458  11.7219520  20.5822396
 110.8218384  12.9434705  20.8177805  56.9636774  47.6310062  16.9536710
  56.0070753  47.6307917  16.9875216  57.1767044  48.1874847  16.2045479
   8.5031597  76.0739660  13.8685536   7.7321044  75.8115244  14.3713784
   8.2049838  76.8161535  13.3427382  69.6015353  93.6996285  15.1290119
  69.8191447  94.4020024  14.5161915  68.7563892  93.3692459  14.8243535
  99.6309280  55.4799509  26.1374807  99.2734718  54.5920515  26.1467409
  99.5654964  55.7739735  27.0460510  73.3793163  20.8022809  25.9098387
  73.4211540  21.7469120  25.7610059  74.2942333  20.5212831  25.9239483
  76.4566422  30.1500583  28.8785982  77.1317959  30.5139232  29.4513106
  76.6588688  30.5063796  28.0135131  91.5541744  41.0766506  32.8843760
  90.6232452  40.8598948  32.9355621  91.7042637  41.2712669  31.9592643
  89.1484833  81.0307884  34.3578601  89.4416428  80.2472496  33.8927174
  88.3499241  80.7568264  34.8089457  56.0597801  29.2366433  11.3946438
  55.4357862  29.8952365  11.0894930  56.3201094  29.5384216  12.2649252
  72.9343124   2.1403571  79.9621681  72.5110908   2.6800319  80.6299010
  72.7601810   1.2399074  80.2362183  93.7790203  15.6148958  34.2271447
  94.0746880  15.6284618  35.1374340  92.8439045  15.8134007  34.2760634
   7.7950660  79.2943907  27.4249816   8.0190746  78.5683870  26.8427658
   6.8586246  79.1874027  27.5918698  44.7924232  30.4245806   9.8357338
  45.6559229  30.4998279   9.4296157  44.9224901  30.7302427  10.7334447
 105.3664826  99.3537056  89.6400136 105.5986928  98.5645926  90.1295165
 106.1420440  99.5453941  89.1127673  81.9024372  78.5414505   9.5446622
  82.2545147  79.0939903  10.2424991  81.3282776  77.9225731   9.9958330
   3.4595767  18.4970152  18.6868536   2.8508464  19.1316319  19.0649223
   4.3116371  18.9316845  18.7227452  85.3898763  51.9014860  74.5994261
  85.3137015  52.6553340  75.1843551  85.5998658  51.1690417  75.1787893
   6.4726821  38.1589794   8.9593881   7.1886722  38.5744381   8.4787685
   6.7251483  37.2374034   9.0158677  86.7878819  53.2379389   9.9057895
  86.5748310  53.2511997   8.9726949  85.9523487  53.3979750  10.3445399
   1.8054668  78.6029387   0.2824351   1.3247386  77.8899097  -0.1379393
   1.4686576  79.3966436  -0.1332848 101.6827297  27.6161575  30.5736971
 101.4268494  27.9380083  31.4380860 101.8402386  28.4084010  30.0601053
 103.0700207  53.2260561  14.5980251 103.5029221  52.7736330  15.3220022
 102.5975800  52.5358677  14.1325426   6.3723747  66.9494200  53.7138987
   5.9187213  66.2001085  54.0998602   5.6810275  67.5920916  53.5549974
  76.6207690  27.2282573  85.1820294  77.2051711  26.4894219  85.0122414
  76.9486900  27.6109239  85.9958283   7.5255100  68.3859015   9.2863226
   8.0243770  69.0484619   9.7642142   7.4209396  67.6681232   9.9108958
 108.6107349  51.7123890  23.7547374 108.8866043  52.5517225  24.1230392
 107.6557159  51.7253447  23.8180566  91.8498039  20.4618025  25.6902456
  90.9226799  20.3515220  25.9012079  91.8901634  20.3788424  24.7375011
  87.1140766  57.5446844  11.4548552  86.7844391  57.0805693  10.6853294
  87.9041004  57.0649338  11.7037106  12.8381530  41.7271662  40.0828362
  12.3452464  41.5449190  39.2827940  13.0102245  40.8643675  40.4599237
  39.5633836   8.9391252  86.6780410  40.2515788   8.7632581  86.0364077
  39.3814750   8.0867930  87.0738555  93.0720425  46.6106987  19.8122907
  93.2884026  46.0097837  20.5252552  93.9140034  46.9809961  19.5473182
  83.5483265  36.0070872  21.1438823  83.2581329  36.2157798  20.2559257
  82.7381706  35.9168863  21.6456366  18.6469928  46.0435247  58.1455326
  17.7189247  46.1782837  58.3372593  18.7630073  46.3963699  57.2633362
 108.7998009  25.3901362  64.4243956 108.8691998  24.8577309  65.2168322
 107.9794502  25.1098323  64.0185928   8.0614559  81.9363785  42.6400757
   8.2381431  82.8480530  42.8721523   7.4543468  81.9904423  41.9020224
  90.7017231  48.6169291  22.7829385  91.0787010  49.1850471  22.1111035
  91.1431980  47.7763987  22.6611304  81.6393470  67.3584950  76.6056422
  82.3131226  67.4904108  75.9386662  80.8274077  67.6416528  76.1851588
  71.7039862  90.1986205  89.8343485  72.3914328  90.1114070  90.4946828
  71.9473162  90.9794056  89.3369578  87.3737812  29.4756293  26.0239148
  86.8564606  28.6969709  25.8182454  86.7236805  30.1598334  26.1834741
  25.8744707  81.7813813  77.0535055  25.7561388  82.6554620  76.6817335
  25.5939951  81.1856329  76.3587741  76.2448168  20.2413416  27.1798706
  76.6697693  21.0970521  27.2382569  76.9688559  19.6161246  27.1466899
  80.7273483  61.1366558  15.5045676  81.6190243  61.3051176  15.8091497
  80.5396557  61.8570614  14.9028850 108.1369686  46.6342735  61.1713696
 108.2904816  45.9995031  61.8711853 107.1968842  46.8103361  61.2096834
  86.2817192  62.8825808  28.4519386  86.3870144  61.9387245  28.5714126
  86.9277382  63.2721281  29.0411305 104.9344921  43.3144188  64.6953487
 105.3188705  43.1281281  65.5519629 104.0171528  43.0555058  64.7830296
  94.8512173  40.5329275  27.8792644  94.3837452  40.1987219  28.6447811
  95.7739449  40.5087328  28.1326842  90.7727337  33.2500982  28.7289810
  90.6399155  32.3267317  28.5145473  90.9776211  33.6636567  27.8903961
  30.4542966   9.4645091  56.0773805  29.5161767   9.2805835  56.1256674
  30.8726068   8.6165925  56.2266663 103.9904785  42.9072046  26.8823504
 103.3329868  43.5458279  27.1582007 104.7129536  43.4373617  26.5458918
   2.0727245  27.2266722   3.3526933   1.8895236  26.8366313   2.4979779
   2.7056781  27.9207134   3.1685388 102.5756359  63.3670235  38.3676267
 103.0803204  63.8732481  39.0042305 103.1610966  62.6551008  38.1094813
   0.4452125  15.2096164  32.6533246   0.8804408  15.3119302  33.4996915
   0.3553859  16.1026525  32.3206806  87.8153801  40.1268911  21.4329147
  87.4154186  40.5364466  20.6657600  87.1147728  39.5981264  21.8147397
  90.0064754  23.8021016  20.5717611  89.1647148  23.9346504  21.0077691
  90.4540157  24.6442318  20.6539512  12.2668257  69.3688213  90.3436903
  13.1891814  69.4288480  90.0949217  12.0194235  70.2667105  90.5646379
  19.8683634  58.2945293  71.8031005  20.4909983  57.6413428  72.1223155
  19.1204634  58.2224023  72.3961190  14.1144267  85.0162125  28.2974529
  14.7034160  84.4259644  27.8274274  13.9667217  85.7410145  27.6899409
  75.2434683  47.7233887  11.4257336  75.9081507  47.7217913  10.7369471
  74.7618580  46.9064569  11.2957215 108.0291557  27.2852468  14.4742787
 108.8624573  27.3714471  14.0112388 107.4685860  27.9567528  14.0855908
  45.1568694   9.7399589  88.7443024  45.9036346   9.2066928  89.0166939
  44.8276420  10.1239415  89.5569519  12.4456684  24.3657064   3.5381103
  12.9271690  24.1913629   4.3468073  12.1394626  25.2677965   3.6314076
  26.7894927  95.0675488  37.1069002  27.0751563  95.5251980  36.3162160
  26.4232150  95.7554340  37.6626730   1.8531886  47.9257250  17.3229635
   1.6151420  48.7709093  17.7040529   2.7989475  47.8610563  17.4555612
  59.8192210  11.2759372  89.1492379  60.3136630  10.7796308  88.4969852
  60.4858108  11.7552444  89.6413275 102.2301579  67.2034359  10.7191622
 102.1235275  66.4525652  10.1351619 101.4103699  67.6904154  10.6352961
  91.5914536  51.6138983  39.3262434  92.4987221  51.4093065  39.5525980
  91.5714741  52.5683212  39.2561269  81.0744476  57.6603174  47.8455448
  81.9174194  57.9161453  48.2199669  80.9813690  58.2098246  47.0673370
  68.3689213  87.9887009   9.4512874  69.2417955  87.7553177   9.1352886
  68.4667826  88.8786793   9.7898102   2.0039264  41.9945049  47.4528980
   1.3347713  41.9826174  46.7685556   1.6154758  42.5113010  48.1587696
  90.4500866  57.7237940  33.1159043  91.0218811  56.9572830  33.0742049
  89.5788670  57.3841143  32.9113626  74.3080135  94.2562917   9.1121542
  73.6681171  94.7199288   9.6523464  74.1859908  94.6167270   8.2338446
  65.0897360  94.7529984  61.8754673  64.9887562  95.6384563  61.5261841
  64.5466232  94.2076588  61.3063812  15.0675956  54.3648005  19.5365953
  15.1331798  54.1391945  18.6086774  15.8016864  54.9593592  19.6909964
  31.0658350  87.0022666  44.1737631  31.7191115  87.1973025  43.5018853
  31.3750067  87.4679768  44.9507836  87.9761028  65.7704449  28.5511827
  88.3926105  64.9935532  28.1780934  87.9911900  65.6197453  29.4963264
 101.7886066  37.7792406  25.4748464 102.5205803  38.3183432  25.1751542
 102.1825886  37.1614194  26.0907269  29.4135471   8.1048032  89.0251063
  28.5787387   7.8210946  89.3977106  30.0718684   7.7880212  89.6435645
 104.9747276  22.4175858  14.9701941 105.0378799  21.4928365  14.7312772
 105.6144524  22.5274301  15.6737041  46.2908454  -0.2806596  71.6179422
  46.5049071   0.4778167  72.1611909  45.5984206   0.0302096  71.0347346
  10.8916084  76.6369247  52.2545910  11.2586585  75.7580900  52.1588850
  11.6514102  77.1983624  52.4085665  98.1533718  45.6033659  34.7086596
  98.9676189  45.3960180  35.1671791  97.6355743  44.8002815  34.7650146
 108.3800125  39.8328972  10.3853285 108.1369495  40.5027246  11.0244572
 109.3231487  39.7200322  10.5035877  15.4489890  25.2660251  55.3847075
  14.6649639  25.2244902  54.8371506  15.1284782  25.5499530  56.2407970
  33.1241123  28.0170822   6.7695796  33.7065975  27.5057268   6.2079293
  32.7031795  27.3674726   7.3326576 101.8073845  61.4147663  13.4230471
 101.8432903  60.8471966  12.6531065 101.6794586  60.8143377  14.1574550
 100.3127193  28.9906573  41.2960625 100.6654072  28.1819057  40.9248972
 100.7469559  29.0738726  42.1450329  81.5686321  30.9185243  36.9765472
  82.4178505  30.7965374  37.4010324  81.5887260  31.8199944  36.6553307
 103.9036655  72.9279041  35.5094695 104.1541290  72.2248983  36.1088777
 103.3441830  73.5013199  36.0332966  99.7580528  65.7836485  30.5060768
 100.4829502  65.7498360  31.1302638 100.0954628  66.3011980  29.7749639
  27.9845610  95.5484879  81.9024125  28.8043967  95.5737364  81.4089850
  27.3010722  95.5782377  81.2329433  86.5996933  81.7325687  42.6651621
  86.6302586  80.7912254  42.4943590  86.0441971  81.8174744  43.4400463
  89.8567200  29.5084071  51.3540411  89.4996262  30.0337577  50.6379938
  90.8052540  29.6106696  51.2762070  29.1495696  66.4067364   6.5782624
  28.6903659  66.3908291   7.4179715  30.0775234  66.3886404   6.8123573
  52.8761673  13.6430407  27.1591091  53.0798817  13.7507427  26.2300611
  52.8649855  14.5347893  27.5068045  83.0657101  61.6750050  29.9621034
  82.6537228  60.8896685  30.3223062  83.0187702  61.5564346  29.0134358
  75.4683304  21.3623405  22.6795411  75.1266098  21.9319534  21.9903374
  75.6143618  20.5219436  22.2452116  84.4412422  59.5160198  45.3991890
  84.7491360  59.6121836  46.3004017  85.2188969  59.2524672  44.9072361
  56.0544157  69.3796444  20.9996033  55.3539705  68.7274599  20.9832382
  56.3842916  69.3994236  20.1012588  84.9003124  63.7888432  36.7045593
  84.9048042  62.8521061  36.5077424  84.0075111  63.9672184  37.0000625
  65.0265694  50.0136900  13.2260060  65.9538078  49.7769833  13.2053649
  64.8239326  50.1072979  14.1568160  83.1603046   5.3649446  84.3850151
  82.2093482   5.3455325  84.2776296  83.4324737   4.4539424  84.2744062
 102.5645733  28.0624199  23.0381036 103.0662823  27.5785303  23.6941314
 103.0914593  28.0021620  22.2412419  16.7186061  42.6994085  34.5450068
  16.6721527  43.1447458  35.3910232  15.9333412  42.1526957  34.5186877
  19.2493621  50.0919437  56.0584927  18.7142745  50.8785009  56.1645079
  19.4562999  50.0671625  55.1242590  76.6781612   3.0318805  82.8776721
  77.1689029   2.7519294  83.6503509  76.3141341   2.2225495  82.5189284
  95.5766201  25.7090616  35.1237273  95.1902008  25.3982711  34.3049932
  94.8296833  25.8322501  35.7095122  16.5428058  53.8420153   4.9948895
  17.0585624  53.8042974   4.1894066  15.9724513  53.0745983   4.9502432
  15.2847949  52.9977512  41.9603062  14.9740020  53.6541224  42.5838661
  14.8803893  53.2465696  41.1291742  99.5718002  70.3022623  62.5975513
  99.6807003  71.1105490  63.0985975  98.6828709  70.0118303  62.8017139
 110.6168698  78.5127151  77.2271339 109.7838925  78.4883058  76.7561940
 110.9782027  77.6327788  77.1204439   2.5932208  46.4036942  28.2844067
   3.2644550  45.9848309  28.8231349   3.0150024  47.1944094  27.9481030
  68.2992077  72.8357601  16.0748017  68.1321812  73.7782669  16.0711861
  69.1472483  72.7444696  16.5092278  83.1896687  72.1221066  25.2048397
  83.3748436  72.5837708  24.3870330  83.6416626  72.6333141  25.8761072
  98.3362198   3.7006497  19.5937717  98.8974953   3.4482059  20.3268957
  97.7656651   4.3806198  19.9520099  67.0486498  63.5295439  31.7862773
  67.3313618  64.1593266  31.1231947  66.5494204  64.0512180  32.4146509
  11.7019739 101.8113482  79.9234132  12.4853983 101.9120371  80.4641012
  11.5136519 100.8731520  79.9469749  89.1493893  72.0544291  12.8928399
  88.3280659  72.5332737  13.0040669  89.2168140  71.9105530  11.9489205
  68.4603591   3.6971017  76.9903222  67.9633136   4.0295669  77.7377478
  69.2702956   4.2072125  76.9952956  82.0169926  90.0890446  19.3539345
  81.6537476  89.2081165  19.4448054  81.6554356  90.4132938  18.5290897
 100.1620770  88.2832909  31.5825129  99.4891834  87.8542042  32.1110296
 100.9692001  87.8152657  31.7963576  86.1079216  67.7184439  25.1556230
  85.7590389  68.5351658  24.7985816  86.4609146  67.2561836  24.3953991
  93.6822414 104.7377777  26.7896080  94.0079784 105.0212383  25.9353423
  93.2530975 103.8998985  26.6163158  51.3251352  42.9549932  13.6803210
  50.7626820  42.2242308  13.9369667  52.0850611  42.5403690  13.2718635
   5.4780094  44.6863556  20.6769156   5.3695384  44.8316288  21.6167879
   5.9908477  43.8803720  20.6167555  43.4050932  98.7819397  66.8633894
  42.9050150  98.7494289  67.6789216  44.3190184  98.8264429  67.1444586
 101.0418797  45.4487371  14.1135228 100.5374718  45.2627993  14.9055064
 101.3126183  44.5878792  13.7943733  98.8230324  59.9558830  15.6960261
  99.7492695  59.7530556  15.8271241  98.8247490  60.7311821  15.1346529
 108.1720829  71.4909649  38.3491468 108.6033821  71.8696070  37.5830865
 107.6698303  72.2147751  38.7234044 106.3694477  93.2189751  68.4922123
 105.5436039  92.9897594  68.9184570 106.2329006  92.9979420  67.5709486
 103.2802105  41.3946009   2.4002853 102.7754498  40.8736372   1.7757475
 102.6346397  41.9725704   2.8070092   0.6522933  44.2993402  29.9979281
   0.3606788  43.8622379  29.1978407   1.5573112  44.5526314  29.8162365
  10.9212295  29.6448374  43.7822628  11.1494438  30.4732656  43.3605337
  10.2221671  29.8726749  44.3951464   4.3894569  64.2959690  23.2782221
   5.1299755  64.6029520  23.8013077   4.7804347  63.7094545  22.6306391
   6.6317835  68.9814293  90.3121050   7.5029555  68.8437664  89.9401674
   6.0940352  68.2908940  89.9245297  11.9897548  54.8086977  24.0574527
  11.4141647  55.2935648  23.4659934  12.0020477  53.9192438  23.7039590
  88.6440086  56.3335085  35.8153105  88.0437088  56.6213655  35.1275516
  88.3391380  55.4564095  36.0476446  64.5674276  59.9210596  22.5514841
  65.5181503  60.0054741  22.4791884  64.3047571  60.6475639  23.1166625
  77.3626089  76.6895628  42.5092316  78.0032206  77.1120453  41.9370794
  77.7537870  75.8423233  42.7223015   0.5444995  74.8593760  17.0470202
   0.2325527  75.0115347  17.9390800   1.4965240  74.8074293  17.1317923
  75.4882956 102.9676914  54.8556614  75.5131340 102.1662617  54.3328571
  74.6518421 103.3748627  54.6302843  91.3700008  83.5421181   2.3312955
  90.7627392  83.0753708   2.9054099  90.8212662  83.8720798   1.6197903
 106.9531441 100.3848076   3.1521827 106.2142086  99.9018288   2.7821380
 107.7012634 100.1278687   2.6131701  45.6969066  29.5242139  74.3518320
  46.4680858  29.2541715  73.8532356  46.0036369  29.5779153  75.2569667
  19.6554842  94.5765745  80.3879455  19.0251150  95.2911198  80.2969459
  19.6240988  94.1209042  79.5467488 106.5881824  48.2517719  10.0435495
 106.8176746  47.4431992   9.5855397 107.4257183  48.5994911  10.3499067
  17.6654617  53.8638020   7.5160319  17.0903961  53.1318760   7.7392256
  17.4026672  54.1133451   6.6300869  24.3638984  56.1624384  29.5677757
  23.7537376  56.2209225  28.8325787  24.2043392  55.2964878  29.9431443
  60.6641865  64.1634274  30.7255363  61.3852406  63.6068153  31.0196519
  60.8955717  64.4005251  29.8274970 102.6122565   9.2196914  90.3963301
 102.7567668   9.0162297  89.4722343 103.2143016   8.6422320  90.8657085
  71.5055652  27.8618928  74.3360046  72.4150653  28.1552526  74.2814544
  71.3132472  27.5146552  73.4649852  87.6507664  50.8864498  43.3183718
  87.0961857  51.6401100  43.1167126  87.2385788  50.1556635  42.8576326
  19.4521324  34.9423099  39.3715954  20.1482574  34.6337318  39.9516153
  18.9799682  35.5940771  39.8897576 102.0920944  87.0643139  43.1059408
 102.4245071  86.7181683  43.9341354 101.9103146  87.9864025  43.2874680
 108.1320477  62.1476841   9.8692721 109.0127373  62.5110531   9.9619555
 107.9676151  61.7031765  10.7009017  93.1046004  16.9512721  83.0711160
  92.3500438  16.5535899  82.6366941  93.4852023  16.2411042  83.5878715
 106.3344097  84.5003128  37.0879173 105.4265213  84.4470024  37.3864579
 106.7885780  83.8155270  37.5788641  96.7262268  92.8947544  10.8349347
  96.1684036  92.2203541  11.2225485  96.1676407  93.3244324  10.1871789
 101.2861633  62.3914194  35.2951765 101.6614437  61.6987801  35.8389115
 101.1943817  61.9931889  34.4296002  72.3169894  36.6329976  82.2718248
  72.7916427  36.8468972  83.0750600  72.7270980  37.1767732  81.5992550
  29.4373312  94.4691813  89.4831811  28.5065451  94.3000090  89.6289704
  29.4794550  95.3985798  89.2580638  91.7237282  69.7981167   4.3457079
  92.1842384  70.3842020   3.7451512  92.3585701  69.1091013   4.5418414
   6.6171638  53.0232954  29.6391249   6.7243949  53.3367682  28.7410903
   7.1208755  53.6403322  30.1699519  83.8116837  64.8779583  11.7943680
  83.9626217  64.1034412  12.3361897  82.9247665  65.1587391  12.0196748
  86.6094971  58.2200384  44.0273523  87.2848034  57.6683331  43.6326075
  86.3584614  57.7566051  44.8263788  14.2057029   2.6967865   3.4393367
  14.0675727   3.4300181   4.0389389  14.8143951   2.1206620   3.9017299
 100.8954525  60.5667543  23.7880826 100.3844547  59.8288393  24.1206288
 100.2465916  61.1479759  23.3913469  52.0638557  37.8609391  74.7165981
  52.1325679  38.0913468  73.7900869  52.6728053  38.4540101  75.1566867
  14.5379917  34.1911411  10.6751359  14.3460266  34.0396070  11.6005659
  15.2026550  33.5373831  10.4582214   3.4951965  77.5934458  39.0245676
   4.4483558  77.5683355  39.1087627   3.3408061  77.9931927  38.1686497
   5.0287620  44.6316528  16.8081057   5.4018489  43.7676525  16.9828582
   4.4461814  44.4943523  16.0611224  71.3597198  27.2405406  88.9129228
  70.5813689  27.2450038  89.4700347  71.2709232  26.4479180  88.3836835
 104.7522163  68.6615515  26.7298484 104.6111107  69.3265915  26.0560203
 103.8806820  68.3040953  26.8997979  89.8435783  68.6595726  20.2305913
  89.4466686  69.5243549  20.1263976  89.9771786  68.3479357  19.3354583
  18.4103862  62.3009062  37.1858168  18.7443057  63.1678438  37.4163699
  19.1937629  61.7576265  37.0997190  74.1251230  55.9074306  19.5478463
  74.4203043  56.5643930  20.1783180  73.9663029  55.1242113  20.0747013
   2.1367160  53.6331224  36.0534000   2.6791278  53.3787823  35.3068519
   1.2743083  53.8050032  35.6753397  92.0339966  79.5621109  26.1374569
  92.9150391  79.2042398  26.0282683  92.0062065  79.8565674  27.0478177
  19.3094531  46.3323593  41.5331841  18.7498847  47.0692396  41.7783880
  19.6260063  45.9842300  42.3667479  22.2447673  20.0768757  17.2606468
  23.1689159  20.3252530  17.2386146  21.8678371  20.6178713  17.9545307
 106.3168144  39.8911548  32.0749259 106.5072060  40.0816822  32.9934478
 105.3954983  39.6315718  32.0701432  30.0506011  63.9762735  57.3629475
  30.5257503  63.2407236  57.7495146  29.2576209  63.5837841  56.9977617
  94.6127415  72.7765369   7.7838844  94.1726971  73.5557985   7.4442500
  95.2664757  73.1175327   8.3942831  84.3386264  34.9675771  87.8903667
  83.7327762  35.2308579  87.1976492  83.9482494  34.1765996  88.2621220
   8.6314670  68.0373287   4.2261890   7.8746025  67.5397110   3.9167261
   8.7382404  67.7682543   5.1385647   9.8891250  76.7454576  27.6177311
   9.3969623  76.6068125  26.8085432   9.8225204  75.9123278  28.0843067
 104.0558624  37.0929861  30.0301194 103.9028931  36.5947914  30.8330107
 103.5515690  36.6299272  29.3611646  36.4714899  99.4297039  65.5753664
  36.1614409 100.2283156  66.0023550  36.7842570  99.7218287  64.7191695
 102.1726704  70.0541258  30.5453897 102.2435665  69.3210363  31.1567712
 102.9881763  70.0283003  30.0448751  66.6543341  71.3609934  10.7802248
  66.2191391  70.5443192  10.5355215  67.4407578  71.0821056  11.2492597
 104.7901726  72.7464628  30.6991959 104.6141338  71.8742514  30.3463721
 105.7436466  72.8270721  30.6739664 106.0951424  65.9571934   7.1512556
 106.6317272  65.6141233   6.4366794 105.8912086  65.1906204   7.6869881
  69.3771644   4.7481795  81.7488000  70.2352328   4.3891831  81.9747845
  69.4711490   5.0408193  80.8422903   5.9197704   9.6153724  32.9285789
   6.8112079   9.6503198  33.2754874   5.7402698   8.6810911  32.8230858
 101.8718052  70.2115297  12.1979475 101.8847847  69.6665668  12.9847646
 102.7366924  70.6210804  12.1759725  98.1055546  77.1641302   5.0986689
  97.2941208  77.5924587   4.8259991  97.8733635  76.2388182   5.1768917
  91.0943413  72.8968287  34.2751598  91.5601921  72.7040386  33.4614968
  91.7873192  73.0384684  34.9201107  27.7412076   5.0977965  66.1463479
  27.5801225   5.7874700  66.7902688  28.6682983   5.1878091  65.9258178
  63.4427638  50.1478883  78.6859456  63.4708400  49.2528745  78.3477286
  62.5096507  50.3542729  78.7401930  89.3651485  71.5358639  47.2212076
  89.8536777  71.1874104  47.9669619  90.0357056  71.9079447  46.6483736
  90.0560470  20.4005118  89.8106561  90.4952712  20.0667497  89.0284046
  89.6941657  21.2444659  89.5404511  22.5283519  82.5296402  49.7921419
  23.4290115  82.3740482  49.5078135  22.4041263  83.4730911  49.6886683
  13.5624496  79.2826176  25.1425385  14.0117828  80.1182270  25.2694011
  13.8753787  78.9687967  24.2941117  71.4502668  57.2272921   3.4891963
  72.0870209  56.5213919   3.6009282  70.8009720  57.0750618   4.1758370
  64.3928809  10.5720540  66.0220936  64.2300983  11.1566373  65.2818278
  63.5356898  10.4624578  66.4337352  90.7186985  63.9308643  20.0243759
  90.8858299  63.1822157  20.5969405  91.5791512  64.3293619  19.8938441
  83.8258171  86.4377594   7.8969121  84.6661377  86.0481071   7.6555312
  83.2285309  86.1709023   7.1981555 106.3440514  62.0611286  19.2583561
 106.5680504  62.2234964  18.3420074 106.0560226  62.9120111  19.5889091
  82.0462990  76.1604023  43.5020304  82.4100113  75.2755165  43.4716320
  82.2728252  76.4826250  44.3744373  88.1653786  42.4096680  38.3413458
  87.2454071  42.6535511  38.4433866  88.4515667  42.1793699  39.2252517
  92.2402096 100.0178146  48.8877630  91.8973351 100.5176449  48.1469202
  92.2613335 100.6449795  49.6105719  16.4803974  28.1955934  20.6886983
  15.9990302  27.8024340  19.9607253  17.1477214  27.5469446  20.9126830
  19.0547934  83.2957112  81.9739369  19.9463168  83.6388957  82.0343212
  19.1057291  82.6130855  81.3048617  98.2789230  63.5528660  10.5421889
  98.4068966  64.4441509  10.2174318  97.9221535  63.6677933  11.4229488
  19.0932646  96.6600716  82.8917066  20.0438395  96.5605175  82.8393248
  18.7958327  96.6006767  81.9838313  17.2663775  99.9432766  85.0265775
  17.4646559  99.0122377  85.1269970  18.0346861 100.3913080  85.3804145
   6.8184272  79.5409346   9.2659378   7.4034587  80.1291561   9.7433978
   7.3440734  79.2249060   8.5310495  91.9204998  43.4995127  27.8771806
  91.1703968  42.9838181  27.5811338  92.2637558  43.0141211  28.6273837
  81.4788246  46.7236614  26.4653468  81.0220146  45.9846830  26.0635281
  81.1561108  47.4906445  25.9922457  74.1346169  87.6386166  16.6458082
  73.4911537  87.1281910  16.1542320  74.3536711  88.3689404  16.0671234
  67.9448981  10.8190175  84.1544524  67.6313014   9.9495669  83.9055607
  68.3341689  10.6945201  85.0200156  42.9972230  97.5682286   3.3551427
  42.4497502  97.8314523   2.6153966  43.5238414  98.3431605   3.5510656
  70.6128626  73.7891416  26.1250230  70.9026866  73.5391668  25.2476713
  71.1444311  73.2540564  26.7143937  83.8230094  47.9738951  89.4395542
  83.7298449  47.1788502  88.9147091  84.3541940  48.5575771  88.8978958
 105.2821913  69.0636444  84.0995026 105.2832844  68.1753826  83.7428188
 105.4994293  68.9504480  85.0248241   2.1928017  50.2110004  69.4633722
   2.1794386  51.1471176  69.2640162   1.3225311  49.9004602  69.2135191
   0.5512471  85.1603794  77.5491762   0.4056373  85.7910442  76.8439960
   1.4737429  84.9184132  77.4674034 110.4412282  65.7993937  69.7857380
 110.0790700  66.4995575  69.2427444 110.6027103  66.2130880  70.6336880
  80.5045477  45.2478016   2.2959539  81.3076636  45.1376331   2.8049775
  80.8049009  45.5363453   1.4341184   3.1407356  26.6548800  73.4317160
   3.3206582  25.8162737  73.8566875   2.9942226  27.2636986  74.1556692
  19.6543591  74.1879205   4.4938394  20.2527611  74.7102860   3.9597150
  19.3869524  73.4693841   3.9207479  62.7795172  16.9907594  71.6427565
  63.0831146  16.0849214  71.5834379  61.8383121  16.9393051  71.4762688
  12.8869522  59.7591257  74.7012234  12.8096902  59.4322109  75.5975437
  12.2253335  60.4481173  74.6397066  80.9212717  95.1375675  80.0185108
  80.1090630  94.8448372  80.4318523  81.4688643  94.3532181  79.9843788
  62.9743168  19.0685261  20.1227208  63.0424175  19.4423855  21.0012552
  63.8480374  19.1780603  19.7474214  95.9833523  46.8749952  79.6229410
  95.2516636  46.7601490  80.2293015  96.6476568  47.3373032  80.1340199
  99.4194326   4.2103613   1.6794511  99.2865190   3.8333643   0.8097097
  99.3245515   3.4698570   2.2785207 105.0237062  74.8416805  71.6899157
 105.1620146  75.5112600  71.0200167 105.0689980  74.0129137  71.2131262
  87.6390168  19.8935450  13.7917062  86.7442593  19.6314419  14.0083715
  88.1764004  19.5037687  14.4812890  31.7168117  75.7275200  52.9867554
  30.7791281  75.6212854  52.8264570  31.8797040  75.2344894  53.7908745
  88.9799604   3.9751089  27.4472162  89.3548641   4.7037924  26.9525358
  89.3102083   3.1918371  27.0071527  21.2764430  66.0147333  76.3365698
  22.0955038  66.3070536  75.9366751  20.7264924  65.7585382  75.5961990
  21.3433170  33.5918069  26.9890738  20.7564855  33.7452555  27.7295566
  21.4533854  34.4539452  26.5880346   5.9095955  94.0201759  80.3366280
   6.6401100  94.4709206  80.7601929   6.0503930  94.1628933  79.4006586
  90.9807846  34.7780979  26.4244672  91.4749000  35.5414284  26.7234727
  90.9706339  34.8579395  25.4706594  82.6282838   3.7698257  13.9329931
  82.0223931   4.1155231  14.5884534  83.4955803   4.0138328  14.2562410
  66.9532219  40.4206741  20.0117704  66.7040727  40.4001511  19.0877935
  66.2424037  39.9640263  20.4617044  45.9943728  97.3195247  25.8151075
  45.8636479  98.2410411  26.0386106  45.8373784  96.8497972  26.6342088
  43.3848058   4.9420747  76.7769527  42.7966772   5.5773553  76.3685989
  43.7665062   4.4621285  76.0419750 109.4171215 103.3810806  61.5689373
 109.3120717 102.5891685  61.0416079 109.8246851 104.0117836  60.9753561
 111.0783226  51.7996550  90.1984119 110.4176057  51.6076994  89.5329571
 111.8041974  52.1881676  89.7101593 110.2762851  20.8384645   7.6652547
 109.7973284  20.1628817   8.1452771 111.1882362  20.5486715   7.6897260
  15.2717292  81.1682224  90.7179546  15.1934946  80.4508400  90.0890923
  14.6728516  81.8396091  90.3911304  15.1597321  85.3455257  76.3913870
  14.9739623  85.6748962  75.5120516  14.3469429  85.4869270  76.8767834
  87.2861870  35.4316020  57.4347687  87.9219087  34.9033785  56.9519997
  87.7733787  36.2129307  57.6963091  46.3011067  82.5650219   2.7100965
  45.8711057  83.3058838   2.2829458  47.2239475  82.6539115   2.4719926
 106.1940213  67.3956060  48.3103991 105.9559806  66.8923616  49.0890598
 107.1511274  67.4076366  48.3163357  12.9115808  68.1703520  45.5159330
  13.6669183  68.7564182  45.4687834  13.1630170  67.4126244  44.9878597
 101.9328265 102.5741796   9.8754045 101.0350709 102.7075223  10.1795217
 102.1410947 101.6753940  10.1304456   9.1346818  70.4080105  62.7389431
   9.2098105  71.3301897  62.9842281   9.8793137  70.2533388  62.1577072
 101.1128578  24.8343265   4.3875524 101.0799751  24.8682630   3.4315130
 101.9699726  24.4564236   4.5844575  91.9955430  27.4149311   1.9088384
  92.0885727  27.0408571   2.7849981  91.3794288  28.1387508   2.0216295
   8.9823914 100.9956360  86.3721561   8.4394920 100.7742405  85.6155396
   9.8021847 101.3135910  85.9939003  79.8160319  82.0043925   8.0156919
  80.0293689  81.1800102   8.4528657  80.4826360  82.0938257   7.3346158
  45.6333529  86.4181236  37.5375100  46.2416290  86.9616655  37.0367166
  44.9859594  87.0351557  37.8786680 109.4915945  73.4732056  80.6614113
 110.3382139  73.0311108  80.7248020 108.8553052  72.8125095  80.9350014
   3.4191991   7.7019251   6.0986539   2.5478340   8.0973328   6.0740491
   4.0163327   8.4264172   5.9121534 108.4715229  91.1755371  66.7268276
 107.8931262  91.9370651  66.6847038 107.9767283  90.4751492  66.3015461
  80.3612908  53.7844563  85.1997948  79.7532424  54.4131231  84.8108387
  80.8286699  54.2854023  85.8682537 101.0083111  84.3142891  79.1366720
 101.6230365  85.0390625  79.2508984 100.1574989  84.7376442  79.0221405
  59.2817268  57.9546631  10.9979364  59.5112524  58.7591923  11.4630052
  58.4162864  58.1301392  10.6285402  11.1237705  51.5445328  65.7968187
  10.8882582  50.6650448  66.0922289  10.2844799  51.9779301  65.6419325
 110.8505964  36.8569541  76.9740677 111.1392898  36.4633751  77.7974653
 111.6086677  36.7827368  76.3943672 107.2627970  85.6024742  80.0984001
 107.2339465  85.0416279  79.3232536 106.3866740  85.9844971  80.1503658
  17.7975059  33.9861178  80.8681488  17.9840636  34.8967028  80.6395340
  18.3582759  33.8090754  81.6234112  94.3509707  24.2034042  16.0435888
  93.7927255  23.9455974  16.7771550  94.4581542  23.4021366  15.5310270
 103.0880322  52.6868343  30.0250530 103.2786002  52.1589613  29.2496371
 102.1729108  52.4928141  30.2278900   2.7361870  61.7430210  72.1167898
   2.3130338  62.5572252  71.8443060   2.4616110  61.6229773  73.0258703
   9.1074371  91.5749073  54.9017811   9.8781252  92.1337032  54.8016930
   8.5026532  91.8774033  54.2243099  85.5261037   6.1319673   3.7569829
  84.6081862   5.8721054   3.8352891  85.9597919   5.7048834   4.4957277
  17.4387443  61.0190392  56.3231564  17.2962844  60.9352303  57.2659779
  17.4489450  60.1175928  56.0014009  58.9557891 101.4033250  27.7108976
  59.3828349 101.6034726  28.5438463  58.1201200 101.8682603  27.7523824
  16.1504555  51.5188789  58.0515671  15.2032506  51.6438961  58.1099224
  16.3666368  51.7452288  57.1469879  24.8451614  44.2159128  68.8199568
  23.9197636  44.1528416  68.5835409  25.1889992  43.3337688  68.6791563
  44.7747509 101.9037370  18.9097425  45.4071479 101.7704705  18.2036611
  44.3653058 101.0468511  19.0294477 108.8458440  79.4662523  56.3030672
 108.9430130  79.7628164  57.2079659 109.7356560  79.2484140  56.0255575
  98.2039484  62.1016121  47.7343464  98.3168181  62.2542810  48.6725283
  98.0938324  61.1538839  47.6574516   1.9650154   7.9822263  49.1454077
   1.7680816   7.8034028  50.0649023   1.9630437   8.9372834  49.0813923
 103.1825480   2.6126993  18.7379285 102.9068455   3.5281885  18.7837907
 102.3689470   2.1233595  18.6161634  67.3945418  40.1749599   9.5588132
  67.2630379  41.0355556   9.9566957  68.2934895  40.1975906   9.2307683
  28.7689400  71.3056660  88.5504246  28.7756300  70.7146025  89.3033123
  29.1292787  72.1261549  88.8868523 108.5423832  84.9314976  62.5016165
 107.9817265  85.3788662  63.1354618 109.1530066  85.6059074  62.2040462
   7.8510690  96.1784744  80.9427547   8.1502628  96.9337463  81.4490032
   8.6230439  95.8989620  80.4506683  75.5589110   4.6902120   8.0912229
  75.5242475   4.8847378   7.1546384  75.7246669   3.7484587   8.1342717
  11.8694687  95.4659367  63.7171888  12.4247205  95.0466537  64.3745518
  10.9978127  95.4782391  64.1125298  75.8260851  29.3808830  18.1810590
  76.4282692  30.1195896  18.0920621  76.0666068  28.7886227  17.4685880
  62.3657994  98.9946107  16.0672208  63.1603293  99.3953113  16.4199182
  62.6552229  98.5497264  15.2706357 105.3933998  81.8359566  65.6195307
 104.4918641  81.5321445  65.5138922 105.5968370  81.6670132  66.5394783
  26.2593722  49.3881893  76.6453934  26.6683221  49.2919302  77.5054646
  25.3333521  49.5379305  76.8358946  76.4612577  31.6188324   5.3239843
  76.2234330  31.7820537   6.2366887  77.3323846  32.0044411   5.2308294
  93.0763599  28.6161900  72.2163153  93.2064267  29.3910122  71.6695356
  93.9076134  28.5066366  72.6780987  87.1753976   7.0829142  32.7073308
  88.1010875   7.2733772  32.5554868  86.9500670   7.5940454  33.4846326
 106.8324909  36.6633785  29.6116849 107.0733533  37.3310459  28.9694711
 105.9485206  36.9049156  29.8882505  78.7484256  43.1137455   1.4130613
  78.8090110  43.7347877   2.1389219  77.8097150  43.0343330   1.2435075
  14.1468143 100.0744247  70.9671831  14.1379786 101.0171509  71.1327648
  13.5905564  99.7055149  71.6532707  95.6073556  26.3946808  21.4452192
  96.2224278  25.8212603  20.9879323  96.1635193  26.9986380  21.9372960
  77.7599806  25.9723890  23.9606496  77.6286701  26.7210138  23.3787938
  76.8761319  25.7148874  24.2228242 104.9067316  42.4588955  20.3139993
 104.7559056  42.5913322  19.3780824 105.8248434  42.1948040  20.3736326
 107.8575980  65.5894041  63.0711031 108.0076887  65.8678865  63.9745140
 108.4984782  64.8935127  62.9253674  82.2412464   5.5999649  31.6921731
  81.9320497   4.8663700  32.2236463  82.1442369   5.2988661  30.7887574
  86.8956396  12.4383533  10.2377721  87.0860574  12.5950706   9.3128892
  86.1289701  11.8652904  10.2307054   5.8744621  34.0708375  61.1235571
   6.2620866  33.3909225  61.6746426   6.0170960  34.8831391  61.6094065
  88.8072022  44.2073345  53.4677792  88.6713966  45.0181627  52.9775286
  89.7501191  44.0510368  53.4157181   5.5270720  71.2702322  81.6891384
   5.3989947  70.5064440  81.1265945   6.2387121  71.0177851  82.2774124
  80.9258851  54.2189980  76.3944387  80.6548365  55.0888824  76.1010742
  81.3074359  53.8120127  75.6166077  32.5330536  98.4503249   1.7248079
  33.4198685  98.6726026   2.0083257  32.5627484  98.5177497   0.7704469
   7.7123660  65.3718472  86.4840508   7.8413075  64.5656395  86.9836807
   8.2691348  65.2671146  85.7125092  90.7442007  32.0515716   9.2257234
  91.1493311  32.8174770   8.8189241  89.9781654  32.3997677   9.6819898
  95.5591569  35.6376064  13.5000726  94.7965250  36.0095108  13.9431497
  96.2840137  35.7832706  14.1080209   4.4818836  59.2136574  60.2087736
   5.1037699  58.7944460  59.6140003   3.6495191  58.7748098  60.0332308
  27.4831533  86.5099144  55.6156635  27.2369933  85.6346035  55.9147739
  27.1587896  86.5557098  54.7162628  76.6525257   8.7690580   2.2523423
  77.0001847   8.1638849   1.5972635  76.6258697   8.2573831   3.0608674
 110.9827356  37.8101850  65.7451248 111.4891586  38.4688258  65.2697706
 110.9759846  37.0487213  65.1651621  74.0246193   5.2446020   5.4464837
  73.7754073   5.6861723   4.6346017  73.3095431   4.6308935   5.6145784
 100.9926257  20.4365003  33.1460782 101.5160212  21.0493458  32.6296350
 100.5261883  20.9891928  33.7731382  75.8345850  26.3216865  54.6362611
  76.3547801  25.5352867  54.4713422  74.9503882  25.9938896  54.8005029
  49.1652636 103.8241891  39.1819974  49.2164581 104.4347266  39.9174234
  48.2915597 103.4392671  39.2506334 102.4570914  62.8247833  58.3368683
 103.0052074  63.1001806  57.6020479 101.7704036  62.2913265  57.9367256
  18.6058128  56.4203358  65.1401711  19.3597281  55.8856058  64.8913574
  18.9374590  56.9960403  65.8292294  34.0832853  87.4631119  86.1924553
  34.7589111  87.9701710  85.7422924  33.2624555  87.7482986  85.7910347
  29.3360639  85.4980946  70.3007030  29.8072886  86.3161850  70.4585409
  28.5452700  85.5702400  70.8351851  27.1941996  84.2845726  47.9091024
  26.8100810  84.6317577  48.7141800  26.7427158  83.4524632  47.7677631
 101.2885460  58.8220501  68.8060284 100.6648954  58.0990744  68.8738394
 101.3362422  59.0101004  67.8686953  57.6202898  98.2511834  14.4165918
  57.1034841  98.4985856  13.6498185  57.8984384  99.0843705  14.7969457
  46.6343641  77.5516558  69.1329765  47.0057631  76.8808126  68.5600328
  46.7413235  77.1983480  70.0161314  40.7562065  81.0752487  46.4381790
  40.7473326  82.0303726  46.5005684  39.8825431  80.8478928  46.1199713
 108.0694907  77.6378107  81.6400719 108.5399839  77.2203541  80.9185505
 108.5207512  77.3341990  82.4277401  85.8510074  12.7939833  31.9235441
  85.9886727  12.1052063  32.5738260  86.4193949  12.5505722  31.1928483
  29.3561029  47.1859550  75.5404806  29.9494171  47.9349232  75.5975962
  29.4167089  46.7663956  76.3986921  52.1455908  81.0048580  79.7810268
  51.4446497  80.5579185  79.3065166  52.0829821  80.6673431  80.6745625
 110.3507003  21.8901718  17.0912668 110.9854660  21.1833895  16.9739839
 110.0969801  21.8338097  18.0125066  85.4472432   1.2198198   4.6388551
  85.4302499   1.8903101   5.3217813  86.3605210   1.1915529   4.3536302
  27.8601265  56.8225098  50.8493423  27.6170325  55.9477234  50.5462122
  28.4566832  57.1517611  50.1770687  60.6145570  43.9384163  23.5129377
  60.6868229  44.5662010  24.2318937  59.9940202  44.3406666  22.9051896
  98.2192573   6.5776861   6.9148561  98.1392965   6.2920702   6.0047647
  98.7467441   7.3751772   6.8701383  -0.0188302  53.2734669  14.4500753
   0.7022453  53.9028728  14.4617482  -0.0327705  52.9087818  15.3349706
  35.3672384  13.1901368  85.6876945  35.0074110  12.6227769  86.3695049
  35.7392165  12.5860700  85.0450802   5.6305796  65.2035713  55.7445192
   5.6900799  64.6792030  56.5430975   5.7651919  66.1043787  56.0388947
  64.5606904  79.9181203   0.7955190  63.7264685  79.6672062   0.3988572
  65.2155666  79.4080094   0.3189203  13.7029672  59.8782015  34.3853116
  13.3296502  60.7098961  34.6771097  13.8804555  60.0090122  33.4538507
  57.2277245  44.4523132   3.7937757  57.0506165  44.7251976   4.6939966
  57.2618804  45.2703178   3.2978555   9.2971271  57.6284885  52.6506281
   9.3439543  58.3122921  53.3187962   9.6879488  58.0265236  51.8727684
  15.9727053 103.1151370  23.7010690  15.1268344 103.5360745  23.8545152
  16.0183506 102.4221066  24.3597432  14.8159146  70.4440737  65.7986259
  14.7689843  69.5345783  65.5039310  14.6383512  70.9601164  65.0122404
  94.8964056  95.6115055  77.2596741  94.9900862  96.3750458  76.6900587
  94.1053506  95.7881641  77.7688503 101.4737412  38.8152456  86.4033222
 100.6038829  39.2114091  86.4546299 101.5430316  38.5056520  85.5002213
  85.4656442 103.3259678  84.6997452  86.1979517 103.4294796  84.0920925
  85.7825240 102.7017689  85.3525925   4.8031148  86.8701744  84.6157837
   4.0467191  86.5257168  84.1409683   4.8002207  86.3959599  85.4472542
  10.1661372  62.5866127  85.0250149  10.9389591  62.9949856  85.4151535
  10.3806841  62.5071621  84.0955544  80.4724583  22.7780474   6.3734361
  79.9492094  23.4374512   5.9177705  80.2128259  21.9480265   5.9735700
  11.8501735  64.9546814  75.0522327  11.7339265  64.0124035  74.9304628
  11.8165863  65.0795650  76.0006571  36.5144051   1.0172280  66.0714865
  36.8573542   0.4485616  65.3821135  36.2712642   0.4181107  66.7773056
  68.9155153  22.5343407   5.7297250  69.7342950  22.1080959   5.4764482
  68.8274274  22.3476208   6.6643926  97.3154745  12.8132427  13.9212438
  97.5914344  11.9090498  13.7711831  96.9322047  13.0880630  13.0882951
  60.3174095  88.7161736  22.5266668  59.9528174  89.3639068  23.1297799
  60.4033284  87.9209737  23.0525132  62.7308020  39.7739780  11.3089200
  63.0632302  40.6469334  11.0999318  63.5095820  39.2175568  11.3205262
   7.5851786  69.9778509  48.6518574   8.4794986  70.0142336  48.9911222
   7.0310545  70.0676537  49.4271708  19.3974078  33.1044030  82.9340935
  18.6308563  32.5978017  83.2023907  19.5612061  33.6974573  83.6673641
  22.0249081  63.4794092  83.8790894  21.9231296  64.2356110  84.4570446
  22.6772809  63.7559175  83.2355118   6.8035245  83.2666302  47.9033422
   6.3408732  82.4358940  48.0132008   6.6008437  83.5370445  47.0077848
  84.7168038  10.8675850   9.5299360  84.2377267  11.1420858   8.7480375
  84.5841393   9.9205530   9.5719549  90.7053455  20.5169678  85.3098583
  90.9347733  21.4440131  85.3745365  90.9329947  20.1536202  86.1656475
 103.6173936  51.2126064  86.9359684 104.3180891  50.5885458  87.1251965
 103.5739686  51.2414074  85.9801960  19.6351815  32.9096687   4.9372598
  19.7720719  33.2785595   5.8098527  20.0688029  33.5252273   4.3462583
  17.7419424  96.3954735  80.2074814  17.4674487  97.2992134  80.3628540
  17.0739591  96.0396481  79.6214628  60.3187117  16.0270489  22.3455545
  59.3732927  15.8863533  22.3967286  60.4147110  16.8190658  21.8166658
  23.0041194  68.2366228  63.1326914  23.4106970  67.6408291  63.7619400
  22.0640326  68.1415606  63.2857609  85.5024394  75.3533077  88.0449390
  85.7683095  74.7268343  87.3718262  85.9078058  75.0277615  88.8486290
  75.9449646  11.5707291  20.5486127  75.6050445  10.8835113  19.9755403
  75.5248623  11.4078749  21.3931390  78.6014565  57.3326254  69.4583511
  78.8892754  58.0501270  68.8939190  78.3746346  57.7555847  70.2865314
 102.6312599   9.6631515  10.7192823 102.6207766   9.5655430   9.7671338
 103.1908855   8.9501560  11.0269948 108.6816296  17.5643385   2.2723695
 109.0494022  16.6910446   2.1369668 109.0849576  17.8707827   3.0845567
 108.1602963 101.1345387  77.9501963 108.5111328 102.0067120  77.7700472
 107.4261659 101.0415745  77.3430395  73.0791712  15.8283556   9.0244886
  72.9233822  15.4975450   8.1398794  72.2181434  15.8097732   9.4422361
  59.4496009  47.4064720   6.3388368  60.1196394  46.7768085   6.0727426
  59.9409732  48.1258953   6.7353460  70.1296310   1.9991025  73.2202339
  70.4935841   2.8730401  73.0787754  69.5740037   1.8445119  72.4562883
  81.3744434 101.6590214  70.0424480  80.6511100 101.6575336  69.4155359
  81.6931709 100.7564449  70.0425482   7.8938533  28.9982498  15.8650895
   7.8141118  29.3220127  14.9678441   8.0660678  29.7813595  16.3878843
  85.5742941  40.0439632   8.4127923  85.1974318  40.5264080   7.6769563
  85.8531925  40.7232082   9.0268632 103.0637755  73.6785555  48.5839033
 102.1416815  73.9156437  48.6827230 103.0775239  72.7260399  48.6774588
  77.4822410  49.6665573  88.5621166  77.5630768  49.4824934  89.4979668
  78.2974466  50.1136971  88.3346653  31.1620140  68.3533335  74.9438000
  31.2124968  68.3915234  73.9886951  31.6011071  67.5346136  75.1743078
  38.4195781  97.6421642  84.9107838  37.9722905  98.4494400  84.6568584
  38.9588189  97.4183655  84.1522503  44.6221638  86.6509724  89.8128414
  45.2230167  86.5305138  90.5481625  44.7426033  85.8687210  89.2745018
  50.2919826  36.0603321  13.1188699  49.5117387  36.4521587  12.7265378
  50.8706841  35.8846844  12.3769208  64.3325243  63.7200058  31.2351438
  65.1590762  63.2743156  31.0496732  64.2067811  64.3103588  30.4922410
  87.4316082  22.5617922  11.9284936  88.1523583  22.6570976  12.5511285
  87.6414320  23.1744469  11.2236139  74.9699968   7.5843799  22.7685567
  75.8401804   7.9475677  22.9332086  74.3987697   8.0421961  23.3852693
  31.5391998  12.3849782  88.9226627  31.1394535  11.5686139  88.6227131
  32.4473612  12.3304185  88.6251736  97.1995624  92.1887970  82.5960541
  97.9905971  91.7477989  82.9059124  96.6272946  92.2208309  83.3626842
  92.9831538  46.7499435  12.0190164  92.5589034  46.3260925  12.7650758
  93.9155659  46.5704811  12.1399995  99.7863493  12.9268015  15.1664754
  98.9139614  13.1260002  14.8266431 100.0847563  12.1849955  14.6402475
  86.4799123   8.8792523  83.3636284  86.9592385   9.1896066  84.1318512
  87.1351247   8.8548001  82.6662540  28.4094906  80.1748085  73.9576483
  28.6383152  79.7949743  73.1093550  29.0397310  80.8847713  74.0800190
  83.7165621  26.0108221  13.1910344  84.0472821  25.1189077  13.2975694
  82.7652744  25.9221065  13.2494565  18.8023000  14.2644414  78.7854862
  18.3109443  13.4735211  79.0074015  19.5106046  13.9557370  78.2204723
  39.8094702  69.9197865  79.7082138  40.5112696  70.0587893  80.3441238
  39.5015693  70.8006620  79.4949389  75.7871968  70.9867752   6.6937181
  76.5317819  71.4724243   7.0486375  75.7984208  71.1822403   5.7567521
   8.4116447 101.6444683  82.3464012   9.1838515 102.0486927  82.7420330
   8.6453110 101.5328407  81.4248943  43.6872816  79.5750856  62.8845310
  44.5998192  79.7870588  63.0809402  43.2552624  79.5620155  63.7385941
   5.2023309  64.7297907  90.1406288   4.3465757  64.3064594  90.2092266
   5.2265608  65.3416109  90.8763695  55.8716679  66.7608690  82.8404903
  55.7252026  66.0446215  82.2226143  56.7167091  67.1298122  82.5835323
  26.8331885  95.9280968  77.3322010  27.6060367  96.3470554  76.9535065
  26.4859056  95.3831863  76.6260195   9.2716783  86.6096592  52.8486395
   8.6572671  86.8038750  53.5564613  10.1097775  86.9534206  53.1579161
  85.5289552  30.4478920  11.8770334  85.1031301  29.9821556  11.1573144
  86.4607188  30.4251278  11.6590234  85.5862173  70.2420330  63.6267805
  85.5618604  69.3359613  63.9344740  84.6660670  70.4973459  63.5606766
  79.1327748  30.3244484   4.6535417  79.5599059  30.8142937   3.9507982
  78.2912508  30.0585258   4.2829248  63.2031398   7.9685697  84.9666500
  62.3710947   7.7121171  84.5689583  63.8094120   7.2678384  84.7265720
 102.4896684  63.8667488  75.8548880 101.7484089  64.3484926  76.2218904
 103.2551917  64.2288399  76.3010931  20.1511836  79.4742584  59.9708462
  20.2922130  79.2507935  59.0508413  19.4671643  78.8711357  60.2616835
  39.6119332  98.4644890  32.9549503  40.5275440  98.2402229  33.1210542
  39.3029284  98.8368797  33.7808299  44.6587762  55.6173885   4.5350858
  45.5708704  55.5797089   4.2471620  44.1495380  55.5395687   3.7283250
  93.9875027  98.5685158  64.0077066  93.9425179  97.6350498  63.8007212
  93.8622972  99.0067959  63.1660032  81.3468424  22.6446712  13.6309358
  81.8104956  22.5327719  12.8010389  81.9365117  22.2726667  14.2867872
   0.0906388  48.8586569  77.6943064  -0.4628842  48.7314987  76.9238043
   0.9542918  49.0656519  77.3372507 102.9641327  41.0055256  68.1221437
 102.7467372  40.2826691  67.5335360 102.1952983  41.5751266  68.0960894
  18.0367374  68.0122280  84.7861004  17.7693188  67.1322250  84.5209217
  17.3759043  68.2812929  85.4241753  65.7798329   8.5418308  10.4215928
  65.6013194   9.3612945  10.8829423  66.3106302   8.0327738  11.0342523
  48.9512596  59.1901195   9.6496030  48.1335363  59.5757664   9.9639818
  49.3693075  58.8405502  10.4365369  38.7521768  96.2164688  71.0990667
  38.1392097  95.4820061  71.0662985  38.4519005  96.7462635  71.8375635
  64.2285375   0.4519090  81.9624233  64.0043192   1.2458905  81.4770889
  64.0608435   0.6754121  82.8779316  42.0346165  63.0913305  50.7031488
  41.5117979  63.1895685  49.9073839  42.7346373  63.7376547  50.6111240
 108.8548336   7.8966320   3.4603330 108.4185586   8.6332167   3.0321523
 108.3181820   7.7161682   4.2321321  41.2035322  73.9545393  64.0136671
  41.3962698  74.3159056  63.1485081  41.7997265  74.4153547  64.6039534
  94.1764865  32.0944202  21.1150380  94.9478826  31.5335930  21.1965963
  94.0192458  32.4160278  22.0027849  51.4129624  24.2633331   8.4488794
  51.7203293  25.0956047   8.8081666  50.5456981  24.1414011   8.8351651
  61.3034396  13.2293042  76.2282848  61.7770462  12.6710328  75.6116343
  60.3880482  12.9650697  76.1362457  17.2021043  51.8441820  64.1331434
  17.6955247  52.6014042  63.8178921  16.6875625  51.5618944  63.3769751
  42.4432859  19.9449766   7.5701925  41.5182862  20.1745499   7.4812909
  42.5252924  19.1031731   7.1220037  79.4267580  56.9923675   4.0371057
  79.6600315  56.2001884   4.5211335  80.0833014  57.6367271   4.3016263
  22.7114105  59.2685413  51.6417980  23.4995103  58.7520313  51.8101692
  22.0170975  58.6182976  51.5353060   6.9278485  88.6026764  89.5075130
   7.8721166  88.7470150  89.5687866   6.5828222  88.9167023  90.3433228
  76.9867289  34.8015488  14.6546575  76.4550200  34.1707981  14.1692087
  77.8680548  34.6983517  14.2957040   2.9150340  89.4381428  64.8082209
   3.3318523  88.6039066  64.5924759   1.9949239  89.3133640  64.5757151
 107.9620799  72.0913506  73.0398369 107.9528978  72.3128653  73.9710093
 107.0378657  72.0523977  72.7937841  10.8958447  79.2164898  73.5716534
  10.8028483  80.0832558  73.1763077  10.1517117  78.7180853  73.2338762
  20.4158092 104.2401886  69.0351820  20.8235478 104.7271061  68.3190155
  19.8329115 104.8734665  69.4540071  32.5156100  20.6687173  77.9616594
  32.7302714  20.1419648  77.1918058  33.1756337  20.4246243  78.6105156
  75.8700374  54.9777973   4.9711629  75.7799068  55.9296692   4.9259492
  76.3027159  54.7389782   4.1514226   4.3085721  82.0818233  73.3335257
   4.9232608  82.0477867  74.0664864   4.2881951  83.0048084  73.0806971
  13.4240794  87.6119232  86.1747646  14.2043245  87.9368210  86.6240978
  12.6920259  87.9801750  86.6694641  18.1182086  97.9532146  73.2213545
  17.2177708  98.1052876  73.5082626  18.3086634  98.6836910  72.6328278
   0.5005751  87.5717354  79.7998953  -0.4456947  87.7096748  79.7577095
   0.6073710  86.6226768  79.7357798  84.1904148  74.4440317  84.7674656
  85.1063737  74.5001698  84.4952583  84.1675266  73.7098837  85.3812599
   1.3854541  91.9360638  69.3732595   0.7917538  92.6276016  69.6657181
   2.2499013  92.3471165  69.3722582 110.1293845  80.0811958  85.4385757
 110.7997034  79.4086647  85.5594254 109.3275825  79.5904970  85.2581310
  77.2951755  10.6645048  16.6803762  77.1987149   9.7420824  16.4435979
  77.6636252  11.0752857  15.8982393   5.9906703  94.3124580  27.4214077
   5.3482044  94.9646091  27.7009964   5.5764282  93.4709358  27.6124048
  91.1364791  54.1733539   7.2321817  91.7662129  53.6461819   7.7238675
  90.4251609  53.5667503   7.0265504  89.2645809   0.2716244   8.8886281
  89.4018683   1.2186706   8.9107915  88.5866294   0.1124514   9.5453473
 104.0203776  89.2080212  89.1014957 104.6558603  88.5292435  89.3287659
 104.4636633  90.0304604  89.3096066 101.6187367  31.7256344  20.3503438
 101.1551723  30.9767807  19.9754449 102.0164261  32.1626175  19.5972749
  24.0071516  87.6895122   8.3777734  23.7713878  88.3635334   9.0152284
  24.1129868  86.8935827   8.8988611  68.0014387   9.0028370   0.2955362
  68.6322889   8.8842857   1.0056135  67.2138545   8.5498321   0.5967542
   1.5443847  67.1372652  76.1873817   0.8636975  67.1319342  75.5144262
   2.3238650  66.8048429  75.7422543 106.1729798  28.3026874  28.4896013
 105.8632860  27.4063719  28.3594533 106.5053115  28.3133114  29.3871995
  27.8323698 102.9865551  87.4598980  27.4384093 102.8004456  86.6076183
  28.4211349 103.7232208  87.2958851  36.8844297  18.3021363  76.3299799
  36.0604765  17.9802998  76.6956997  37.5104458  17.5965127  76.4925241
 105.6535115  60.2898836  80.7412434 104.9946412  60.7877779  81.2252045
 106.2812998  60.9486818  80.4444408  89.2946551  47.0640171  33.3705350
  89.5007357  46.1425484  33.2134649  89.6781573  47.5256813  32.6248666
   5.5904531  80.3748798  63.5484505   6.1227918  79.5920229  63.4070635
   6.0273463  80.8354282  64.2648649  84.0013512  94.3263435  81.0838127
  84.1588243  93.3915710  81.2166023  83.0502304  94.4002438  81.0054493
  34.5443344  54.6488905  73.4987450  34.9406624  54.9582338  74.3132782
  34.9234176  55.2079391  72.8205156  25.5472755  94.9984932  85.2566147
  25.6821418  95.6301785  85.9630203  26.4206886  94.6509171  85.0761318
  11.0573197  28.3159435  14.1667005  10.3848029  28.9734447  13.9887925
  10.9171821  27.6435268  13.5000249  66.8023584  19.7263754  28.5807821
  66.8041006  20.6676805  28.7545034  67.6232937  19.5672644  28.1149694
 100.3195938  91.5634441  58.3357668 100.5570193  92.4637318  58.1136036
 100.7548185  91.0299206  57.6708174  84.5601639  44.0970409   7.2299978
  84.1949246  43.3244408   6.7988130  84.1449771  44.1087711   8.0923864
  92.4853167  27.0925892   9.0825483  91.8295917  26.4083374   8.9481660
  92.9331109  26.8399465   9.8899385  24.0797043  58.7389469  72.1596289
  23.4173203  59.1301012  71.5899992  24.9088359  58.9021540  71.7100334
  31.8575214  32.5600919  51.8029451  32.6397453  32.3179635  52.2986603
  32.0573191  32.3071679  50.9016466   2.3700435  89.0829659  61.2382460
   2.2819507  89.9306011  61.6741180   1.6784614  88.5435104  61.6215611
   8.8632756  98.9924812  79.4317579   8.4976798  98.4228802  78.7549067
   9.8106450  98.9337826  79.3081522  76.3200456  60.3051460  24.2134115
  76.2136759  60.3474510  23.2630845  75.5738336  60.7943333  24.5599576
 101.0820457  75.0084543  76.1372471 101.0203894  75.1413488  75.1913214
 100.1756342  75.0406075  76.4432144  62.2222182  40.7187832   7.6036092
  62.0899841  40.9957588   6.6969510  62.9439971  41.2634647   7.9176065
 106.1468574  79.2053366  72.5736666 106.4478713  79.5233679  71.7225075
 106.4800828  79.8472214  73.2007027  22.9612565  69.8509884  66.7727757
  22.6360679  70.7319880  66.9580460  23.8523316  69.9873638  66.4508820
  85.8766923  59.7116554   2.5853559  85.6543526  59.2420090   1.7814752
  86.8109057  59.5444096   2.7098771  60.9266500  13.6421784  72.9805660
  60.6842570  12.7579984  73.2557058  61.8780546  13.6720284  73.0814075
  93.2610891  29.9902904   1.7962571  93.9876113  29.4230545   1.5381070
  92.7267954  30.0697601   1.0060331 108.9076504  27.0549477   6.3495179
 108.6720595  26.7891968   5.4606363 108.5415802  26.3701332   6.9092103
  71.4047486  65.1861275   7.3995420  70.5641860  65.4411114   7.0191881
  71.2380970  65.1421535   8.3411046  22.0012403  84.4059563  84.5884895
  22.3626113  83.9669991  83.8184452  22.4253058  83.9752769  85.3307247
  91.2573979  64.3426502  30.8003827  91.3992605  63.5384357  31.2997266
  91.3042948  64.0674961  29.8847791  91.6094169  49.3296421   4.9571725
  91.3253519  48.8851822   5.7559224  92.1619639  50.0475872   5.2661535
  87.5445172  56.8185604  24.5341321  86.7222187  56.7919720  25.0233671
  88.2204196  56.6591728  25.1929017  91.0791847   1.6820419   4.8184987
  91.6576359   2.0382154   5.4928609  91.2072537   2.2577703   4.0646001
  11.0002828  60.4926777  77.8465176  11.5677583  59.7715950  77.5740385
  11.0529077  60.4908752  78.8022709  69.5893392  31.2067497  30.5601236
  70.5045009  31.4502228  30.4207250  69.1042617  32.0243061  30.4481241
 107.2688162  79.4737101  88.8475990 107.0842379  79.5442343  87.9110146
 107.1532529  78.5442829  89.0451717  21.5162206  78.8173389  73.0740547
  22.2247887  78.6175251  72.4623060  21.1890292  77.9610157  73.3495331
  60.1334438  26.3094509   0.2874013  60.8940181  25.7372225   0.3889676
  59.4075832  25.7128561   0.1045438 106.2620791  97.6018906  81.1720085
 106.9225284  98.2870674  81.0692310 105.4269787  98.0692673  81.1521721
  55.4799604  69.2481470  42.3820257  54.7706079  68.8256073  41.8977642
  55.8125877  69.9175596  41.7841339  10.2155983  88.8616276  79.8062754
  10.5086470  87.9524899  79.8680496  10.9579754  89.3747711  80.1253223
  77.3574692  69.6224010   3.9012643  77.5716687  70.1695240   3.1456109
  76.4473877  69.3624294   3.7584516  93.1224475  12.8019560  16.9270631
  94.0313515  13.0429352  16.7480298  92.7595839  12.5817860  16.0691091
  86.5795240  46.0052956  13.0497762  85.9247145  45.8778370  13.7362214
  87.4063739  45.7460487  13.4563943  55.0247488   4.7628725  10.0935289
  54.8534474   5.4647053  10.7214757  54.1699776   4.5740354   9.7063085
  30.9817505 103.1833267  88.4238529  31.0594511 102.3378563  88.8658619
  30.0448394 103.2789040  88.2526875  88.5895142  49.1449631  13.6381933
  88.5272643  50.0991905  13.5956785  89.0170393  48.8960827  12.8187295
   9.4512010  88.5523224  73.4248114   9.3195748  88.1791687  74.2963982
   8.5711819  88.6068439  73.0522203  10.2270746  47.9201174  82.6505661
  10.3328419  48.6583900  83.2505703   9.5710593  48.2163572  82.0195961
  16.7607081  86.1754894  78.4231472  16.1556292  85.8068275  77.7795601
  17.5230706  86.4425659  77.9096317 109.6682575  89.1808510  87.4425793
 110.0237286  89.0804291  86.5595245 110.3969885  88.9561367  88.0211067
  54.9035077   8.0045518  89.8619080  54.1763167   8.6267957  89.8463058
  54.8240273   7.5644406  90.7081985   5.3320616  64.2568064  81.8613815
   5.2620679  63.6239862  82.5761318   4.5343351  64.1278362  81.3483238
  88.4234247   0.7179630   3.0317994  88.7443146   1.4671648   2.5298425
  87.5652406   0.5261886   2.6536771  23.0065870  88.2934761  84.6437740
  23.7770939  88.6721134  85.0670719  22.4529481  89.0463161  84.4365215
  35.2662492  96.7345905  85.4231167  34.7852111  97.2271061  84.7580910
  36.1826038  96.8017387  85.1547527  82.1626941  49.9196422   9.6763822
  83.0383328  49.8094261   9.3057844  81.9145462  49.0428627   9.9694654
  15.1783669  79.6263885  88.1379414  15.2158415  78.9681816  87.4439716
  15.3079355  80.4596329  87.6849937 108.9969844  98.0024052  80.2648449
 108.7712123  97.3933601  79.5617628 109.9345662  97.8697586  80.4047585
   6.5017426  60.5016232  75.5620193   6.0878760  61.3337517  75.7911634
   6.1786431  60.3077221  74.6821070  47.3757665   9.1712483  64.5624781
  47.2512345   9.5928868  63.7122154  46.5002637   9.1477879  64.9487114
  53.2375226  57.2336185  23.2521936  53.9428982  56.8603886  23.7807485
  53.2596860  56.7339600  22.4360486  27.4023342  72.1149063  67.8858519
  26.5660572  72.3804522  68.2684231  27.8894019  72.9325676  67.7837467
  61.2469892  11.5055093  82.4754238  60.5579715  11.2447175  83.0865574
  60.9966569  11.1003121  81.6451359  45.5047989 100.3251171  48.1498194
  45.7488489  99.6235085  48.7534952  45.6878901 101.1310482  48.6327028
  15.5333650  70.2525663  80.9013748  16.3504791  70.7144070  81.0891533
  14.8572469  70.9273243  80.9630203 107.6637962  51.7862272  64.5945168
 107.9275676  52.4480438  65.2337790 106.7818811  51.5303564  64.8646784
  27.6221156  69.0173483  82.4552155  27.8632498  69.3843555  83.3057404
  27.1030450  68.2416487  82.6675415  11.8677318  93.9282417  90.5372524
  11.2447429  94.2677593  89.8947239  11.5407133  94.2458057  91.3789368
  21.4499116  44.6959591  33.9739037  21.8979502  44.7209120  33.1284046
  20.9117651  43.9052439  33.9365530  19.8313594  49.8986816  53.4481239
  19.2836642  50.1313496  52.6983738  20.7241249  49.9023914  53.1028938
  68.7040851   9.2245329  14.0602514  68.7176058  10.0015390  14.6190950
  68.2226965   9.4991625  13.2798215  84.9987658  80.1120472  66.4906693
  84.1361793  80.2455425  66.8835497  84.8676308  79.4042778  65.8597136
  35.0832582  90.7525539  90.6341553  35.0923705  91.1573315  89.7668076
  34.4527578  91.2711716  91.1338902  28.4476471  99.2481804  51.9944859
  29.1972089  98.6922550  52.2073936  28.2651091  99.7246265  52.8043652
  68.2711551   4.8425281  16.8315431  68.6656222   4.1905296  17.4107953
  68.9330265   5.5302084  16.7590638 100.9175833  84.6192932  75.4469919
 101.7793825  84.2767143  75.6839991 100.3449353  83.8523102  75.4532957
  86.8221256   5.8454740   9.8048612  86.9777593   6.2393129   8.9464303
  87.6533363   5.9460342  10.2687665  11.8502545  90.4999733  69.8071575
  11.4342988  90.1432610  69.0223217  11.2194109  90.3359890  70.5081415
  46.3050208  24.4154776   4.1642686  46.1715779  25.3632677   4.1534063
  45.5518112  24.0621174   3.6909314  45.1172470   6.8592080  85.2292633
  44.4715087   6.3055619  84.7902584  44.8209129   6.8978700  86.1386204
  87.9854159  17.1582230  58.0680275  87.4469809  17.8790006  57.7412224
  87.7578263  17.0905694  58.9953089  89.2976222  15.2728355  36.0581895
  89.9096212  14.5958126  35.7695218  89.0249393  14.9924696  36.9318410
  89.7941515  66.2544239   3.7713929  89.8928580  67.1901119   3.5953637
  90.4896030  66.0538853   4.3977853  52.7448082  79.7782278  67.1284771
  52.6639271  79.0658951  67.7627230  51.8427086  80.0449467  66.9515228
  18.2139289  89.1645336  47.3093510  18.4835589  88.2583427  47.1598434
  17.3385763  89.0942383  47.6902008  61.6584015  72.3983335  50.7391214
  61.8656635  73.1734705  50.2171707  62.5042486  71.9747114  50.8851290
   8.5449916  95.6502056  47.4503756   8.6255175  95.1239491  46.6548872
   9.4450313  95.7597065  47.7572441  53.0611877   9.6250161  69.9927282
  52.2170358   9.2399701  70.2280521  53.1037133  10.4364308  70.4987192
  93.1662031  65.1996613  86.8459415  93.7490471  65.3653479  86.1049557
  92.3771080  64.8281240  86.4515877  56.3665602  25.1471556  15.7737466
  57.2584078  25.4930866  15.8079835  55.8209881  25.9099377  15.5820485
  54.7221987  96.9684199  26.7142888  54.7051399  97.6535062  26.0460111
  53.8269238  96.9407681  27.0518609 103.3809247  54.1792727  75.3720379
 102.7295157  53.5097122  75.5808163 102.8899052  54.8525047  74.9009848
  13.0996181  19.4694221  12.9254075  13.5292007  19.9423492  13.6381742
  12.7402879  18.6853588  13.3405706  97.5851937  48.2216263  81.5395737
  98.0428096  47.7109385  82.2074223  96.9624218  48.7563848  82.0319366
  33.7516651  55.3836143   6.2085840  34.6233329  55.7237518   6.4104101
  33.2395849  56.1587322   5.9779569  12.4535906  66.7563105  67.8026009
  11.7015600  67.3438644  67.7287006  12.6785970  66.7711115  68.7328625
  29.6335745  73.1123447  85.9159279  29.7190046  72.2812605  85.4487705
  28.7234664  73.3735561  85.7755470  26.7937152   8.7932118  76.4498281
  26.8338506   8.1994542  77.1995449  26.4263694   8.2622346  75.7431746
  82.7635208  38.3117855  34.8953267  83.1090251  38.4422768  35.7784101
  82.9162964  39.1465652  34.4525834  42.7007255  34.1505993   4.7045633
  43.2706365  34.6942699   4.1606351  42.2232446  33.6045635   4.0799829
  95.4667244  25.1239574   0.4246446  95.1055298  25.1893127   1.3086625
  94.7337231  25.3435982  -0.1504210  12.4289238  55.0292778  44.5257616
  12.4236751  55.5269670  43.7081385  12.2523916  54.1273212  44.2582750
  45.5726385  86.9504642  61.0326290  45.6911898  87.7661800  61.5192413
  45.9095097  87.1425056  60.1574945  24.2667007  93.7654018  80.6288815
  24.5903635  94.2686653  81.3760090  23.8431692  94.4151020  80.0678635
  84.4516382  34.2195118   1.0301706  84.9163983  34.5088947   1.8153402
  84.3257270  35.0184620   0.5182477  26.6387606 101.4853668  76.5859509
  26.7650080 100.5440617  76.4666319  25.6957030 101.6151333  76.4857817
  19.4924737  56.2254703  31.7644330  19.2609979  55.8052338  32.5927182
  20.0386478  56.9695938  32.0178243  40.2391624  58.2878733  47.7834892
  40.3386974  57.8805876  48.6439753  40.0552797  59.2077780  47.9737377
  33.2962929  30.5965432  85.6418896  33.3982395  31.4715299  85.2674103
  32.8386222  30.0981053  84.9648857  66.8767218   2.7058705  53.6460590
  66.4891653   2.9035958  52.7934551  66.9026117   3.5488995  54.0986872
  53.3575122   0.7498559  84.1459370  53.7732463  -0.1105682  84.0905857
  53.5471265   1.1621388  83.3031464   2.0832277  32.7753532   4.9775811
   1.1617495  32.8891266   5.2103063   2.4978877  33.5999573   5.2311918
  94.1166088  22.2261751  11.2897893  93.5790262  21.5140045  11.6362687
  93.7629292  23.0150021  11.7007562  29.0622282  86.8624973  83.2224178
  28.6406493  86.0965919  83.6121655  29.0030503  86.7141342  82.2786427
  30.3836368   6.9400510  79.9373817  30.4387359   7.3538693  79.0760183
  29.4883464   7.1122464  80.2289963   1.6630137  85.6402588  53.3323431
   1.1955087  85.6029510  52.4979115   0.9874339  85.4853916  53.9925241
   4.4263316  20.6256569  27.5635454   4.5631982  21.5726269  27.5363466
   4.8663188  20.2974499  26.7793771  40.5315755  15.4690274  51.6046810
  40.7402595  16.2769708  51.1357260  40.8783840  14.7722730  51.0474730
  35.7144754  13.9669808  71.4714193  36.1443051  13.5281190  70.7373333
  34.8140736  13.6428460  71.4502907  46.6086373  65.7524193   6.1635515
  47.4774227  65.9694469   5.8253976  46.7800793  65.2684868   6.9714185
  83.9011864  51.9855508  88.7687016  83.0580811  51.5530309  88.9040852
  84.2854218  52.0405015  89.6436787 110.1360989 102.6507568  73.3946896
 111.0336104 102.3180485  73.3982372 109.6356340 101.9949532  73.8801670
  83.5613957  46.3772476  12.1680375  83.8344935  47.2941482  12.1987935
  84.2104468  45.9160698  12.6993295   0.9880184  88.0492687  82.4017811
   0.8740283  88.9787483  82.5999928   0.7253706  87.9658794  81.4850998
  38.0938888  75.3717136  80.3862572  37.1620798  75.4057980  80.6025982
  38.2063937  76.0361099  79.7064400  41.5556526  81.7116833  74.1768551
  40.9178305  81.0792446  74.5076656  41.0262442  82.4483681  73.8714981
  15.6698477  75.2680206  85.7290936  16.5203500  75.6357956  85.4890537
  15.0562763  75.9952021  85.6243324  36.6487002  72.3047495  75.6624556
  36.7236710  71.5511799  76.2478971  35.7152796  72.3563433  75.4567957
  52.5536251  72.5674629  74.6999168  51.7373943  72.2297049  74.3312502
  53.2220602  71.9461823  74.4110537  26.2723772  38.1614312  42.1208954
  26.7439823  38.8317975  42.6152945  25.6725292  37.7721509  42.7571964
  82.9184297  37.6908863  14.2838689  82.0462063  37.4336517  13.9850637
  83.5153511  37.2975815  13.6473008  48.9356499   2.1875008  64.1610336
  48.2001822   2.7845487  64.2983246  49.6365337   2.7446946  63.8226223
  50.3307199  66.3629580  60.0131464  51.0433197  66.8813467  60.3869200
  49.9448347  65.9103870  60.7631493 107.3299060  51.2486637  26.9929906
 106.8327865  51.5984619  26.2535688 107.8178463  51.9998730  27.3303720
 101.1178975   1.8327531  29.1207933 100.2966409   1.3632592  28.9746976
 100.8992104   2.5017365  29.7695398  86.0175689 100.6487942  82.0530224
  86.4374360  99.8628139  81.7034817  85.8840593 100.4564190  82.9811382
   4.9803496  80.6313026   2.4076482   4.1964913  81.1791504   2.4483033
   5.0438691  80.2390755   3.2784768  15.1842129  92.5350475  80.6886196
  16.1087751  92.3919678  80.8909702  14.7145641  91.9692898  81.3014698
  91.1296496  43.1014240  11.3515683  90.7500991  42.7925384  12.1742173
  92.0091626  43.3952320  11.5889856  27.0709038  76.9814825  69.4446707
  26.7179060  77.6448822  68.8517714  27.8843284  76.6965675  69.0282631
  52.6587424  68.4315861   9.2662450  53.4494910  68.9661682   9.3381711
  52.8769312  67.6186455   9.7220537 107.6103740 103.2932186  63.8648033
 108.1374093 103.4051800  63.0736446 107.5916197 104.1624928  64.2651033
  54.6024959  11.8626508  45.8737326  54.8847394  11.9330033  44.9618006
  54.9634998  12.6416215  46.2969542  39.9704432  68.4847307  46.3169003
  40.8905411  68.6577559  46.1176014  39.6193194  69.3342781  46.5837622
  64.3338469  55.7291210   5.2495500  64.8713240  56.5120495   5.3694173
  63.4857497  55.9605205   5.6282445  26.4521949   1.3576135  90.4596710
  25.8199279   1.3969621  89.7420979  27.2515349   1.0191258  90.0562954
  87.3093257  50.1246727  27.4522325  87.5106904  51.0539425  27.5624296
  86.9797763  49.8479736  28.3072587   4.2641282  90.0257301  85.1099205
   5.1252031  90.4417038  85.0680923   4.3493903  89.2433071  84.5651627
  64.1468124 104.2489509   8.2949277  64.8984675 103.9275912   7.7969571
  64.3490128 105.1685838   8.4670564  29.2964888  87.3149967  48.0069017
  28.5258055  87.5678635  47.4986315  28.9654875  87.1861553  48.8957596
  21.3171530  99.7016907  84.4099808  22.0091128 100.0131130  83.8265038
  21.2561727  98.7635708  84.2298794  36.2101475   3.9632329  87.2363663
  36.0588637   4.8550996  86.9234467  35.8447314   3.9545926  88.1210327
 107.2488579  55.1811493  28.2249757 107.1919021  54.6674049  29.0306112
 107.1053538  56.0847080  28.5064431  47.9294782   8.4521302  89.0841961
  48.8710289   8.3753117  88.9298820  47.5340311   7.8438291  88.4598351
  26.7331576  96.3519955  69.4288015  27.5649357  96.1973000  68.9810896
  26.9366407  96.2404728  70.3574514 108.2416353  31.7274464  11.9356843
 107.7397141  32.4451626  11.5494367 109.0119085  31.6441811  11.3735696
  28.6151306   0.8769711  61.0557985  29.4349788   0.7713422  60.5731773
  28.1450521   0.0556382  60.9120560  68.2917413  11.3233984   3.2734510
  68.9339844  10.8867157   3.8329717  67.5240258  10.7522762   3.2991811
  54.3724184  32.6743134  71.3186979  53.6049788  32.5289353  71.8719912
  54.9759679  31.9704732  71.5565586  94.6858391  17.3895729  31.6061040
  94.5923862  18.2933367  31.9072839  94.5531783  16.8601358  32.3924466
 102.1156463  40.1646698  13.8799306 101.1715397  40.0919330  14.0199300
 102.3381362  39.4017494  13.3463785   9.5416312  26.9564256  88.6454010
  10.2228980  26.3544377  88.3458710   9.4211321  27.5640019  87.9156303
  84.6254835  69.7985924  27.4943181  85.3418598  70.2914894  27.0942136
  84.9752829  68.9144218  27.6043912  50.2278881  31.9204148  51.3603926
  49.6099727  32.0805653  50.6471157  51.0812168  32.1539887  50.9950113
  36.2328482  82.7704906  69.8339701  37.0763588  82.5952244  70.2511072
  35.7688451  81.9340992  69.8712349  67.5617652  11.9540891  74.4550180
  67.6353984  12.3131284  75.3392696  68.3041649  11.3549050  74.3772173
  72.5500731   4.9460133  63.0310011  73.4602933   5.1514443  62.8176117
  72.1193461   5.7988557  63.0890989  98.2625208  58.5898483  18.2054254
  98.2003650  59.3314827  18.8073846  98.3429942  58.9901531  17.3396798
 105.9772405  29.5310676   0.7596990 105.2597532  29.7277725   1.3619825
 106.1963091  28.6166180   0.9386751  35.6528068  99.0453815  73.4847021
  35.6344891  99.5809841  74.2778158  34.8667407  98.5024261  73.5441446
  96.4571938  64.2201221   5.7181665  96.7692241  64.0796268   6.6121026
  97.1415672  63.8450992   5.1638910  48.2338190 102.3965359  46.5226364
  48.4617519 102.7579403  47.3791790  47.5510359 102.9795074  46.1907005
  25.3895264   7.2816476  74.5092916  25.0825684   6.8447980  73.7148285
  24.7859828   8.0150899  74.6277571  26.4106989  96.3901615  25.2781773
  26.6130161  96.9616604  26.0189104  27.0939326  96.5803432  24.6353292
   5.7140018  47.2474468  14.4084665   5.4758073  47.1621502  15.3316232
   6.6523028  47.4363792  14.4196817   0.1489327 103.4034729  65.2120733
   0.1978537 102.5826073  65.7019854  -0.1166664 103.1409264  64.3307352
  56.9220476   2.8404435  65.1427937  57.1533971   3.4405526  65.8517218
  57.2721200   1.9942578  65.4214573  92.1239361  26.5890730   4.4592496
  93.0027923  26.3508070   4.7543260  91.7067418  26.9696176   5.2321454
  81.8849603  42.8880012   6.1895963  81.6819695  42.7797783   7.1187421
  82.0862004  42.0035637   5.8838006  52.8746002  19.4297990  50.1193380
  52.4462132  19.5501908  49.2718554  52.1715586  19.1497239  50.7054472
  21.5701509  71.8399858  49.3979168  21.3310504  71.6808796  48.4848213
  22.5246572  71.9108629  49.3867064  84.9669323  44.1784561   3.6568281
  85.7779989  44.5482529   3.3080503  85.2341125  43.7283600   4.4582483
  98.1628117  39.2760170  17.9391691  98.4160313  39.8562801  18.6570855
  98.7821874  38.5479725  17.9898092  74.2969178  49.5250595  28.2727643
  73.5107690  49.0959347  27.9350492  74.4964073  50.2024258  27.6265451
   6.3007594  31.8960560  26.1734315   6.7026616  31.0406006  26.0220548
   5.9476281  32.1490753  25.3204938  72.8588724 100.3922653  88.6779785
  73.3984137  99.6305656  88.4659863  72.5056648 100.2012348  89.5468807
  61.3753490   7.6823148  88.0584049  62.0587711   7.5563058  88.7166500
  60.6870179   7.0652112  88.3066463  19.4935989  83.7695694  57.4764204
  18.7735701  83.7595654  58.1070471  19.0631747  83.7712097  56.6214561
  47.4394608 103.1995106  74.1663551  47.4703693 104.1246796  73.9227629
  46.8559361 103.1708336  74.9245834  36.2308860  90.5275345  65.1977110
  36.2923074  90.9722900  64.3523359  35.8855796  89.6599293  64.9873590
  28.4437966  68.8137817  74.8926830  28.3219910  69.7631979  74.8901749
  29.3859601  68.6934948  75.0113726  89.0918753  56.7851627   7.6828500
  89.9147675  56.8981731   8.1585714  88.4733030  56.4755524   8.3444711
 102.0889935  45.0590599   3.7391683 102.2125921  44.1392792   3.9736196
 101.5456376  45.4145611   4.4424554  78.9206118  33.0931652   9.6528360
  79.0281949  32.6638973   8.8040754  79.4091115  33.9122188   9.5706292
  14.9130059  22.4145544  11.0909673  13.9559032  22.4272144  11.0961267
  15.1642180  23.0091370  11.7977830  69.0803246   1.9053086  84.0275764
  68.6306219   1.7738351  83.1928825  70.0098924   1.8239411  83.8142395
  95.7438168  58.4608066  15.4493543  96.5332255  58.1345070  15.0173875
  95.7736454  59.4085777  15.3186818  65.0756940  46.6063393  13.0642053
  64.8521403  46.7437733  13.9847299  64.5430300  47.2451103  12.5904199
  16.5206599  85.0699425  70.7534266  17.0692265  84.8353195  71.5019321
  17.1335781  85.1477432  70.0223255   1.3002680  78.5963535  72.8299332
   1.8103024  79.2283535  72.3233032   1.1836206  79.0124178  73.6840487
  89.4620261  28.2838619  28.9632722  89.0647707  27.9714477  28.1503698
  90.0826797  28.9566887  28.6834260  84.7254154  42.6220501  12.9274103
  85.4718289  42.5433243  13.5214635  84.0499202  43.0568779  13.4478494
   6.1292946  94.9375439  87.2433567   5.6498212  94.6691227  88.0271244
   6.4124495  95.8325386  87.4305820  93.0904766 102.2801781  85.0946140
  92.8547331 101.3937187  84.8210621  93.9872416 102.3971081  84.7809696
  96.4088354  49.2133606  11.4231416  96.2810049  49.0989578  10.4814359
  95.7663045  49.8773563  11.6731473  25.5472207 100.1858997  89.4902134
  24.7097230 100.6213284  89.3313980  26.1532640 100.8987236  89.6922588
  80.1016394  32.3975742   2.7047750  81.0349199  32.2565449   2.8639337
  80.0561843  33.2624805   2.2972127 107.3620758  66.7048633  28.4475824
 107.3590741  66.0779369  29.1709062 108.2414446  66.6371811  28.0756112
  63.1213972  11.1974085   1.6184446  62.3200915  10.9266794   1.1702749
  63.7686500  11.2865007   0.9188958  44.7840834  70.0473118  78.2894373
  44.2192507  69.4061279  77.8580618  44.2240095  70.8131886  78.4158754
  68.3346276  11.5607747  71.4485931  69.0005498  12.2343358  71.3104105
  67.9762320  11.7525205  72.3152065  20.6952238  97.9587078  79.3760872
  20.4593778  98.8851452  79.4243288  20.0050879  97.5632858  78.8435602
  81.5486470  56.1712349  14.2099210  81.5837202  55.4846180  14.8759195
  81.3006851  55.7133949  13.4067174  36.9093776  96.1442280  55.9233427
  36.4028525  95.7802105  55.1972914  36.8465471  95.4842854  56.6138172
  24.4017673  89.5270443  66.8623352  25.0357056  89.6018028  67.5756121
  24.1394258  88.6065292  66.8705654  12.7790403  98.3984375  81.9687653
  13.2636666  98.9850616  81.3880444  13.4124959  97.7222919  82.2091675
  34.0265822  99.3259430  41.8558550  33.6737657 100.0133801  41.2908840
  34.9682975  99.3350315  41.6846132  25.5798292  71.6976261  88.3369255
  26.5222621  71.5672731  88.4420967  25.4526258  72.6379967  88.4624481
  10.7167436  76.8048466  34.4621393  10.9635402  76.5648353  35.3552839
  11.4789916  76.5717018  33.9321729  41.2050735  21.1462506  85.3000259
  40.4603548  20.6796082  85.6793404  41.8773537  21.1180314  85.9808159
 110.6298289  49.1009128   2.0282003 110.5256519  48.3865917   2.6567956
 110.0057611  49.7668445   2.3168107  26.0092187  62.8621101  87.1285629
  26.3629413  62.3434448  86.4059925  26.5959334  62.6812124  87.8629112
  33.9687753  97.5448513  87.6100254  34.2614913  96.8888092  86.9774437
  33.9542484  98.3644295  87.1157455  30.5974698  96.9444561  68.8421679
  31.5195322  96.7971230  68.6316299  30.1182175  96.5049744  68.1397390
  67.0241957   5.9864816  83.0305195  67.7130012   5.6662091  82.4481106
  66.6102247   6.6986188  82.5429630  87.1833989   8.6392582  13.7435743
  87.1598777   9.1252268  14.5679017  87.0474467   7.7269590  13.9994165
  27.8733802 102.8337669  66.4858294  28.0924511 102.3533535  67.2842264
  27.1005106 102.3862171  66.1414433 102.0369420  63.5925377  10.8041974
 102.1333394  63.9098251  11.7021200 101.4145884  62.8684032  10.8715650
  81.0961047  21.6300810  19.1036531  80.4930893  21.6184128  19.8469373
  81.9487736  21.4184368  19.4836446  74.6084263  43.2869995   6.1395284
  73.8740860  42.6739586   6.1056730  75.3831024  42.7402676   6.0084173
 101.6203358  91.0271454  72.2900295 102.1221509  91.8086052  72.5218201
 102.0239713  90.3237534  72.7985096  97.9573974  34.6280182   9.6322938
  98.0959711  34.8570240   8.7132760  98.8385806  34.5829380  10.0033971
  23.0977249  70.4466486  70.4521990  22.3354554  70.5833197  71.0147810
  22.8582549  69.7014380  69.9012470  61.2319641   6.0989579  78.9403009
  62.0959906   6.1463555  79.3494987  60.6234937   6.3480004  79.6359825
  73.6043529   6.9891652  87.3747730  73.9398031   6.8175706  88.2546902
  73.7066750   6.1570081  86.9129467  62.3375635   2.9216584  86.8401527
  62.8578429   2.5600060  86.1226845  62.5115542   2.3391255  87.5794983
  79.6577077   8.7938985  66.3644743  79.8197179   8.6167630  65.4378605
  80.3674273   8.3432492  66.8221283  34.6862127   1.0735806  58.1053209
  33.7436192   1.2268456  58.0400705  34.8676361   0.4101285  57.4396276
  29.3747258  83.6056042  89.9269390  29.9744797  83.9420223  89.2610931
  29.4841576  84.1992760  90.6697750  53.6078780   7.2136411  67.8696918
  54.5508199   7.0497235  67.8845119  53.4098558   7.5520619  68.7428999
 105.7158241  33.6071766   4.4077512 106.2290034  33.9265144   5.1499864
 106.2213883  33.8669098   3.6375734  30.7564878  85.3759193  52.4781799
  30.7297468  85.1863003  53.4160280  30.0486231  84.8492146  52.1070480
  44.1834711  23.0506143  83.9185619  43.8574545  22.4784097  84.6132088
  45.1351850  23.0309495  84.0189934  39.3942982  19.4603356  56.6449642
  38.9902897  19.0036019  55.9071255  40.3316508  19.4454869  56.4516211
  63.3927445   6.4092168  80.7130814  63.8325028   5.6474408  81.0906315
  64.0497808   6.8060216  80.1411724  65.6161928  72.8275919  83.2256985
  66.0330248  72.1991920  83.8152695  64.8368645  73.1193066  83.6987495
  34.4870044  44.8847473   1.6146013  33.5311175  44.8371017   1.6299745
  34.7438670  44.8403633   2.5356218  21.3921309  63.5105991  79.8924303
  21.6528702  64.3431282  80.2863216  22.0435262  63.3547449  79.2086029
  31.3161826 101.2484550  77.9303837  31.9475055 100.5791092  77.6664877
  31.3610005 101.2562847  78.8864994  11.2091828  46.4937199  14.1132184
  11.8074561  47.2381390  14.0488359  11.4347268  46.0763824  14.9445936
  61.7452860  75.9614229  60.3360081  60.8444786  75.7050848  60.5336475
  62.0185900  75.3607750  59.6426392  43.8340569  80.9504318  72.6830244
  44.2431498  80.6779957  73.5043955  42.9927444  81.3232040  72.9465723
  53.0528157  17.9798135  43.6400747  52.6842646  17.2731790  44.1702414
  52.2985904  18.3592709  43.1890869  62.6698141   2.4276360  65.5136108
  63.1971316   1.7990312  65.0206280  62.3238687   3.0233487  64.8490238
  79.0459304   4.3669518  64.1751528  78.7131409   3.4859475  64.0039444
  79.9689011   4.2362794  64.3925953  14.7296977  82.8278351  74.0961075
  13.9565170  82.9654789  73.5488653  15.2232230  82.1426105  73.6454058
 100.9157976  91.1858749  85.9082317 101.2661364  90.7194138  86.6671181
 100.9935971  90.5618000  85.1866245  11.0642196  74.7580517  19.8490926
  10.4093267  74.8894489  20.5347177  11.5710641  74.0014351  20.1438447
  97.9150061  21.4649877  79.7960138  96.9735627  21.2921056  79.7903156
  98.3156495  20.6154355  79.6116495  72.0884781   9.0312680  73.1814241
  71.6679482   8.3870896  72.6118374  72.6368337   9.5497998  72.5926399
  14.8691751  68.4909714  15.4201337  14.4551755  68.5731018  14.5610162
  14.2783786  68.9518631  16.0157510  51.2323857  46.6587055  16.3136216
  51.9622422  46.0417259  16.2599107  50.5456830  46.2647999  15.7755586
  35.4215169  86.7976665  66.3142157  34.6954322  86.2221909  66.5547609
  35.9981823  86.7877865  67.0781469  53.8607697  22.5325307  82.3513031
  53.9751272  21.5976437  82.5219917  53.4294443  22.5691232  81.4975739
  43.4570456  80.8720207  90.5093765  43.0133581  81.4593315  89.8974609
  44.3851995  81.0873222  90.4176998  22.6319266  60.2097214   2.3400804
  22.6552106  60.9554851   1.7404767  21.9458438  59.6417797   1.9894143
  66.0064082  18.5959062  80.6626892  65.4163985  19.1624364  80.1655388
  66.8752675  18.9717015  80.5209446 100.2333550  53.6944589  84.8026562
  99.6144109  53.0011567  84.5735741 100.8347516  53.7339600  84.0590191
  23.7968283  77.1166233   1.0030290  23.2221525  77.0452789   1.7651960
  23.2064395  77.3119716   0.2753564   0.7382660  79.4024805  14.1616174
  -0.1711841  79.6940474  14.0974351   0.6867938  78.4473948  14.1242715
  54.8649292  49.8743302   9.0691491  55.0639789  49.0971810   8.5469838
  54.0319972  50.1909047   8.7195226   7.4698365  54.4864607  41.7482948
   7.0941186  54.5859623  40.8735561   6.7247003  54.2595100  42.3046207
  58.1798177  64.4004241   8.7822648  57.7941279  63.9797751   9.5507261
  58.0696015  63.7609653   8.0785772  35.9000497  96.8404464   2.0730993
  35.5740929  96.9258098   1.1771699  36.5669729  97.5225905   2.1513482
  95.2693530  15.3559279  61.8885899  94.6567138  15.2232528  61.1651897
  95.3740641  14.4870043  62.2761965   5.4157734  48.4913254  77.7241325
   5.9368724  49.1929483  78.1145334   6.0594368  47.9184341  77.3073292
  25.7406187  11.6599286  60.7017803  25.0830507  11.5140927  61.3819027
  25.4608178  11.1035585  59.9748707  32.3085284  34.2694569  57.5007439
  33.2545471  34.4069791  57.4520874  32.1051455  34.3316340  58.4340191
 107.8707343  47.1084309  56.7147732 107.6384865  47.9237318  57.1592665
 108.2174366  47.3879385  55.8674765  42.6478004  67.4936771  61.1116076
  42.1805716  66.8601227  61.6561556  43.2152987  66.9594336  60.5559444
  12.4636054  46.8106127  54.3351793  11.7365456  46.5057421  54.8780155
  12.8327823  46.0117579  53.9586544  59.7616010  79.7786430  12.5639173
  60.5485253  79.9253515  12.0390722  59.4434361  78.9204267  12.2837945
  16.7382348  64.7904348  39.1859746  17.5400126  64.8271513  39.7075462
  16.8791378  65.4268599  38.4850144  65.7947597  20.9513414   7.4946328
  65.6162563  21.7402590   8.0064699  66.1449811  20.3274429   8.1305047
 103.5710081  76.7244864  87.7294064 102.7795853  77.1451092  87.3933125
 104.0225955  77.4158764  88.2134342  38.7842607  37.7359867  81.2137318
  38.5868287  37.3363113  82.0607948  37.9576588  37.6981425  80.7325554
  28.4103094  90.3945927   0.8466073  28.8565974  91.2291459   0.7031461
  29.0437172  89.7332553   0.5679342   0.2959556  63.7851477  54.1524220
   0.9471915  64.1624594  54.7438288  -0.1610393  63.1332779  54.6838856
  68.5096510  66.1647177  85.2381897  69.2403897  65.7105970  84.8186302
  68.9079484  66.9336224  85.6460857  16.3294613  43.3650303  40.4520941
  17.2374642  43.2642078  40.1664400  16.2207651  42.7090788  41.1406755
   1.6102532  56.7959833  85.7412148   1.4630750  56.4773893  86.6317558
   2.3208058  56.2493992  85.4056644  53.1683891  87.0047096  11.7242643
  53.6673145  86.7596606  12.5035306  53.8040368  86.9625620  11.0098382
  64.3999251  66.6107750  48.6131668  63.7828597  65.9526253  48.2933283
  64.1856774  66.7091513  49.5408821  49.2048983  55.5794523  22.3260709
  48.5969500  54.9179133  21.9959184  49.5618276  55.9908272  21.5389177
  11.5223742  31.0548234  78.3102131  12.1223509  30.8427119  77.5951815
  11.9725192  31.7390895  78.8055706  15.9117281  18.0878651  42.8903675
  15.1853490  18.7108588  42.9123688  15.4917622  17.2338200  42.7880573
  49.3721669  83.9754442   1.3870832  49.9566953  84.4678644   1.9633504
  49.5791988  83.0576972   1.5634557  90.7315858   4.2344812  18.4172559
  90.6425294   3.8053003  17.5663126  90.1960476   3.7062064  19.0091634
  18.3073711 102.5637341  77.4766731  17.6887608 102.4061966  78.1899309
  18.1387258 101.8574715  76.8529892  36.8060517  84.4853115  88.4456539
  35.9266281  84.1653919  88.6468792  37.3372650  83.6928368  88.3679867
  12.8667152   1.1808242  64.9952412  12.9834914   0.2742591  65.2793789
  13.7377894   1.5700784  65.0723267  80.7039765  19.4529713  17.5301572
  80.2166966  19.7455538  16.7599698  80.9459952  20.2614534  17.9818364
  23.7891269  60.2062607  60.5708599  23.1301785  59.7456884  60.0513506
  24.4148254  60.5362272  59.9259901  16.0024714  45.0723362  87.0843792
  16.2336969  45.4770756  86.2483406  15.9920394  44.1329384  86.9009399
  93.4774645  45.5301619  47.9475641  93.3112320  45.5306816  47.0049095
  94.3541201  45.9040833  48.0363846  37.3782110  62.3210812  76.2664938
  36.9996333  62.1843719  77.1349525  38.3117270  62.1434259  76.3814783
  69.7604868  20.1584661   3.9751169  69.6222312  20.7179106   3.2108327
  69.2679712  19.3611038   3.7805291  73.4688321   6.3254393   3.0311414
  73.4748410   5.7365072   2.2765848  73.5392352   7.2014463   2.6518174
  26.4111662  68.7141085  89.6501446  25.9307790  68.4503508  88.8653660
  25.7704258  69.1969395  90.1722240  12.0193958  64.6955252  53.4492397
  12.5088120  65.4824114  53.2094145  11.4242160  64.5502090  52.7137947
  50.7567363  89.7152595   7.0283243  50.0218801  90.3269676   7.0733949
  51.0702340  89.6506194   7.9304143  23.7057734  69.5326853  88.8616753
  24.3997169  70.0879288  88.5061836  23.3237004  70.0508308  89.5700359
 109.1277836  52.7495766  75.5574703 109.5205941  53.3124161  76.2246609
 109.6767297  52.8764248  74.7836494  94.5559844  46.1375713  52.8894949
  94.2773088  45.4883194  53.5352802  93.9795931  45.9919071  52.1393061
  97.0195790   5.9326303  43.2309437  96.4623769   5.5179197  42.5723314
  97.8330096   5.4285991  43.2082319  96.4798161  28.6482167  37.2555161
  97.0896371  29.3196964  36.9497967  96.9445046  27.8225970  37.1189547
  31.0249829  39.0946937  41.4022350  30.7308674  38.2292533  41.6863823
  30.9226084  39.6485090  42.1762133  23.2152510  49.1375494  72.0531893
  23.7097096  49.4763374  71.3068867  23.8175726  48.5311842  72.4841881
 110.4617759  61.9690847  56.5843105 109.5682990  62.3040771  56.6598845
 110.9492579  62.4310350  57.2663641   1.8679716  49.7168684  48.9473248
   2.3009047  49.1390467  48.3188963   1.3220422  49.1324949  49.4733524
  17.0398629  39.6581316  58.6437511  16.2623978  39.9311280  58.1566668
  16.7919087  38.8241506  59.0427828 107.1093573  49.6147871  43.4911346
 106.2506118  49.5683146  43.9114046 107.0814877  50.4223299  42.9779720
  15.9909356  19.1894114  59.9060440  15.9920228  18.4669960  59.2780781
  16.2294602  19.9578440  59.3875360 107.3292299  38.4074211  71.6061592
 106.8859898  37.5803161  71.7950153 106.8317252  39.0628672  72.0951462
   5.7842177  56.8701267  56.6660357   6.0668540  57.1504354  55.7955313
   4.8780781  56.5868521  56.5439749  99.4746038  27.7567315  28.7655902
 100.2635833  27.2715187  29.0070701  99.3451794  27.5573230  27.8383803
 106.8018758  26.9147110  55.7268763 106.9342246  26.9937825  54.7821760
 107.2930901  26.1308217  55.9727621  18.0819106  62.4752426  87.7945900
  17.8970563  62.9250574  86.9701385  19.0232325  62.5904655  87.9244709
   7.4871242  34.4230270  32.5137067   6.8437260  34.1284418  31.8691230
   7.6422817  35.3418064  32.2946119  14.7927976  50.3934813  48.7045574
  14.9195325  50.1765537  47.7809191  13.9061701  50.7517052  48.7469816
  -0.0021948  35.2685237  51.0560513   0.5207648  34.4848037  50.8871508
  -0.1146969  35.2811456  52.0065308  91.4933451  49.2425251  29.0741181
  92.4406549  49.2854548  29.2044783  91.3037320  48.3071136  29.0013957
  30.7847738  44.9388266  83.1739902  30.2233481  44.1686201  83.0855560
  30.1953483  45.6813288  83.0417156   4.2090428  71.8113470  54.5318604
   3.6911291  72.2551870  55.2034283   4.2599612  72.4415874  53.8132238
  89.2598828  81.0963249  70.0200605  89.5413383  81.2093639  70.9279346
  89.4501885  80.1792240  69.8227262  19.8425150  55.4587460  87.8324604
  20.6342363  54.9208069  87.8270912  19.2960417  55.0875616  87.1397686
  43.1169224  41.4839745  21.7910314  43.1561136  42.3782158  22.1301889
  42.7307224  40.9743690  22.5033426  14.5320654  68.2680988  24.9137998
  14.9457228  68.5517311  24.0985250  13.6011219  68.2043219  24.7004747
  30.6253552  34.9345136  76.3013887  30.9849763  34.0766954  76.0754299
  30.3809118  35.3208160  75.4604053  89.1207775  49.5229769  61.4684916
  89.7184285  50.2220058  61.7338181  88.4356030  49.5271063  62.1368837
  86.0752472  10.8442760  90.2835655  86.0839351  10.1667356  90.9596539
  85.8986910  11.6556048  90.7598019  17.5398493  28.3652806  52.8510094
  18.3883464  28.5491180  53.2541132  17.6236975  28.6938977  51.9559050
   2.2784562  58.8117743   6.1733413   2.5477195  58.7535048   5.2566439
   1.4667112  59.3186092   6.1527842  63.1635861  96.1962394   1.0880204
  63.8345651  96.8778495   1.0502454  62.8143267  96.2529925   1.9774171
  38.9571404  53.7251711  53.5223961  38.6953950  52.9526663  54.0233517
  38.3159041  54.3943596  53.7616348   8.3146167  51.4357424  88.7872219
   8.3820081  50.7330465  89.4336796   7.6235974  52.0058870  89.1243649
   3.6219665  58.9912748  13.1498659   2.6720589  58.9993620  13.2675159
   3.9344305  58.3318710  13.7693739  21.1139441  72.1004915  59.3712378
  21.1880970  71.1932898  59.0750790  21.9590759  72.2891140  59.7791672
  31.4707828  32.9431415  60.3820801  31.3048935  33.2798457  61.2626171
  30.8183646  32.2529745  60.2627134  85.0961813   7.0140237  81.8995094
  85.5425557   7.7903444  82.2376060  85.2606591   6.3378841  82.5567913
  40.5216980  54.3469238  84.2001820  39.8073912  54.4246054  83.5677528
  40.2909231  54.9594736  84.8985767  42.7618837  94.0469074  37.4477839
  43.0061626  94.9723721  37.4568987  41.8070841  94.0518761  37.3801661
  43.1472902  69.1160563  13.9245244  43.5711073  69.1229240  14.7827550
  42.4723457  68.4411053  13.9960977  24.5398621  82.9126982   4.3721601
  25.2735655  82.3408536   4.5977804  24.5614462  83.6028580   5.0350591
  17.3049879  60.2396679  59.4592714  18.1177473  60.0346565  59.9214649
  17.0883632  61.1291695  59.7387218  96.9583150  49.9625540  41.1068869
  97.2904166  50.0302839  42.0020676  96.4211949  49.1702652  41.1099911
  31.4587426  55.1606560  74.6224356  31.1412930  54.8569918  75.4728746
  31.5480447  54.3627501  74.1012859 102.9024782  63.3156395  51.4431047
 102.3129781  64.0651321  51.3595581 102.3713990  62.5630236  51.1827993
  20.8837366  11.2406266  67.6919603  20.7161069  10.3522193  68.0063868
  20.4724455  11.2705648  66.8281460  74.4009956  50.6974697  89.2738724
  73.8077935  51.4480639  89.2429543  75.2342518  51.0371161  88.9474392
  85.9692939  46.3793039  67.9933786  85.3941926  47.0261765  68.4020948
  86.7948660  46.8444157  67.8579807  51.4348841  93.5535622  49.9338961
  51.3020420  93.9245701  49.0615797  52.2311211  93.0286217  49.8521996
  11.7703390  33.6231732  26.4463902  10.8297658  33.7989688  26.4719152
  11.9799912  33.3128524  27.3272848  76.4815386  53.6657715  48.2625103
  77.0974835  52.9844046  48.5319281  75.7094606  53.1858253  47.9628849
  85.5157717  80.1532459  44.6460819  84.9694451  80.8981514  44.8968267
  84.8915013  79.4652367  44.4155169  16.2708426  46.9376802  60.5148888
  15.9140897  47.2857046  61.3321018  15.9679914  47.5477457  59.8423338
   1.8372083  14.8094237  66.4228201   0.9526458  14.9002433  66.7771244
   2.1331286  13.9538968  66.7338467   1.8320493  46.6534090  55.8923340
   2.1202089  45.7439756  55.9706020   2.4614558  47.1499443  56.4153337
  37.3326032 103.7480716   2.1327707  37.5144663 102.8096894   2.0818635
  37.2080192 104.0176085   1.2227937   1.8472500  73.1148100  44.8221159
   2.3710169  72.9436016  44.0394402   2.2265269  73.9107656  45.1947308
  88.4838112  24.6400046  69.7660971  89.2156919  24.8022032  70.3613091
  88.8794859  24.6395874  68.8945055 107.3285826  33.5489774  50.6877851
 107.4105843  33.8381791  49.7790098 106.8893915  34.2746377  51.1313581
 109.9432505  59.3561125  57.9224873 109.9570089  60.2320004  57.5366592
 110.1675383  59.4960833  58.8424492  18.5029840  69.1578865  60.9001207
  18.3340240  68.4815931  61.5561008  19.1513896  69.7312880  61.3087940
  90.0052651  40.4808044  70.3221369  90.8349975  40.9460735  70.4284525
  90.2489647  39.5551753  70.3146267   2.3313817  20.7366538  74.9908209
   2.8220785  19.9594021  75.2578926   2.2876894  21.2754655  75.7807589
  20.3055501  49.5582533  42.2347593  20.6139827  49.8692513  41.3836527
  20.4262781  50.3053379  42.8208637   0.4355370  31.2184930  70.4735136
   0.1937617  31.9242215  69.8737431   0.0698432  31.4851594  71.3169527
 106.2159916  35.6485081  51.9992018 106.6636812  35.4397798  52.8190994
 106.7719346  36.3077903  51.5838575  86.6269347   3.1081474   9.0942499
  86.6042039   4.0552318   8.9573308  87.5561044   2.8822029   9.0515443
  32.9051964  93.8788632  11.6726610  33.1542741  93.5391931  10.8131143
  33.4570946  94.6514682  11.7939969  27.8918409  60.3137112  65.6704235
  28.7238407  59.8571157  65.5458117  27.2796202  59.8578835  65.0928068
  19.8880446  41.0711908  44.5516014  20.5042839  41.7259121  44.2232370
  19.3917251  40.8007336  43.7791061 110.7006815  19.8210239  54.9469566
 109.8916554  19.9293351  55.4469347 111.2594938  19.2842305  55.5089283
 101.9230636  66.7226028  24.1125798 101.4336314  67.2405577  23.4735107
 101.3714495  65.9570074  24.2732739  37.1981193   1.2310732  16.6337320
  37.4881841   1.5465439  17.4896451  37.0870448   0.2876318  16.7512533
   3.5005140  61.1624241  48.1694651   3.9030319  60.7440376  47.4084377
   3.8092488  62.0678568  48.1362343   1.4614099   9.2108983  45.9347296
   0.8725084   8.7855381  45.3114367   1.4828023   8.6187226  46.6864634
   6.6728455  39.9912548  90.1414776   6.4995939  40.8934689  89.8727322
   6.6369629  39.4879627  89.3280602  32.0136762  30.9827662  65.3219843
  31.4751053  30.9393716  66.1121035  32.9144526  30.9483933  65.6439352
  67.1094522   1.2611282   5.5803510  66.6929087   2.0837438   5.8373090
  66.6639927   1.0095776   4.7713205  17.9997015  26.6102576  60.5163097
  18.0403554  25.7082582  60.1985407  17.7435839  26.5292192  61.4350414
  16.5444684  61.8193865  33.5265684  16.1700964  61.8424368  34.4072175
  15.7935131  61.9331312  32.9440212   0.1161278  42.1104431  57.5716543
   0.1324362  42.7316332  56.8435812   0.5172939  41.3165140  57.2181416
   9.1200256  74.9641466  61.0647583   8.6447561  75.3975534  60.3558779
   9.7374260  75.6250143  61.3782883  56.0633426  99.8196820  28.1979867
  56.4921765 100.0766734  27.3817178  56.7829816  99.6858529  28.8147851
  17.0299935   0.5249142  28.2346725  16.9546616   1.3790826  27.8092861
  17.8942537   0.2043092  27.9767990  17.8329802  63.2279348  63.0108166
  17.3085713  62.4377298  62.8812075  18.5390460  62.9535198  63.5959673
  39.3146682  69.5674706  56.5781832  38.5528088  69.6676016  57.1489525
  39.0288162  69.9160910  55.7337999  87.5902424  27.3460186  38.3390542
  86.7125187  27.6653850  38.5484334  88.0955956  27.4928224  39.1386148
  32.2011638  12.9152417  85.6748962  32.9579210  13.4376431  85.4091072
  32.3484254  12.0588338  85.2735138  93.0042157   5.5215776  15.2192518
  92.4511943   6.2145746  14.8584863  93.8165435   5.5770052  14.7159787
   9.5306295   8.1100887  89.9525928   9.0706801   7.8003067  90.7327938
  10.0771070   8.8303709  90.2668953  41.9543028  33.7723112  76.8772507
  41.2973213  33.0764198  76.8588018  42.2242689  33.8710976  75.9642410
  70.1999812  75.7862548   1.0218450  69.6756511  76.1567215   1.7318269
  71.1043124  75.8657340   1.3253232  54.1545074  75.8217076   2.3831674
  53.9226239  74.8935918   2.3505803  53.3536701  76.2586311   2.6729795
  12.7525127  53.2847261  70.1445675  12.9646289  52.5162077  70.6743002
  13.1343508  53.0973625  69.2870569  10.8515477  43.7398720  27.6954293
  10.6157589  44.1480017  28.5285354  10.9329760  44.4722509  27.0845079
 102.6761564  52.0811224  61.3894653 103.6086073  52.2210407  61.2245703
 102.2421404  52.8073597  60.9417582  91.4634939  25.6296134  84.6103001
  90.5448779  25.8983636  84.6225166  91.9434043  26.4035273  84.9052143
   5.6074607  46.1491632  60.6147385   6.3295621  46.6933012  60.9289312
   5.3045058  45.6807375  61.3925743   5.6770015  21.0738873  74.6394348
   6.3359576  21.2121129  73.9590645   5.8007908  20.1645684  74.9115562
 108.8287622  53.2530689  71.8351412 107.9296466  53.3874702  72.1347427
 109.3420159  53.1859922  72.6403141  16.4809465  37.4757242  72.0446825
  16.5118551  38.1904387  71.4087105  17.2420454  37.6219177  72.6064539
  15.0160551  33.2774282  81.3527679  14.6853089  33.4783077  82.2282600
  15.9230506  33.5831714  81.3634014   1.2232958  14.2593598  71.2351322
   1.1388274  15.0355256  70.6813622   2.1672866  14.1184497  71.3076401
 105.2397224  53.2773924  63.4439945 106.1581328  53.0450726  63.5810328
 105.0886794  53.1175947  62.5123930 109.2346231  68.9710522  60.2914524
 109.8910706  68.4890604  59.7884750 109.0795929  69.7667360  59.7824478
  12.8412175  60.3041172  45.9508467  12.3513710  60.3248978  46.7729473
  12.7757776  59.3958330  45.6559420   3.8711569  40.7234001  45.7820559
   4.4447464  41.4576483  46.0013819   3.0477822  40.9210491  46.2283945
  29.9946308  18.0928898  71.8028736  30.8194017  17.7563930  71.4525080
  29.4151807  18.1453443  71.0427952  33.0150056  82.7062988  72.6599312
  32.8212523  83.3827591  72.0110226  32.1722269  82.5251484  73.0760384
   4.7751454  73.5096836  73.5942268   4.4343656  73.1395102  74.4085217
   4.3801317  72.9759932  72.9047537  19.0205789  70.3551340  72.0035219
  18.5446274  69.6431875  72.4311209  18.6737382  70.3733063  71.1115599
  19.6476270  18.5366381   3.1053087  19.8408271  18.9478481   3.9478132
  20.3904534  18.7704504   2.5487253 105.4477725  37.0885361   1.0854741
 106.0642371  36.9196022   0.3729745 104.6320305  37.3267639   0.6449720
  20.8021855  89.2794991  68.8190126  20.3697610  89.4601917  67.9843903
  20.1101470  89.3762398  69.4731951   3.3175635  68.4309340  77.9596281
   2.9491806  68.9868784  78.6462498   2.5696045  68.2067108  77.4059916
  26.0807920  85.8161163  65.5201960  26.4535785  85.7464027  66.3990593
  26.1597419  86.7441654  65.2994680  13.1897664  65.7222939  65.4483843
  12.9035211  66.1271286  66.2671661  13.9674342  65.2188253  65.6891870
  12.9832542  58.7025023  77.0989990  13.7989056  58.7085581  77.5999069
  12.7615106  57.7752638  77.0135975  48.5189533  71.4944410  63.6107445
  47.7257061  71.3268280  64.1195631  48.7599611  72.3939419  63.8322067
   8.2719946  60.7198954  62.7244902   7.5811255  60.1038742  62.4806595
   7.9439318  61.5727711  62.4395275  88.3289036  27.0749367   6.2589475
  89.2744205  27.1130264   6.4030954  88.1836924  27.6109875   5.4793378
  20.3517008  55.0229359  56.5699625  21.1981082  55.2152395  56.1664200
  20.1806188  55.7745647  57.1374321 107.5132891  75.2166557  52.4801922
 107.0045220  75.7857847  51.9027138 108.1583660  74.8061800  51.9043350
  16.2081529  33.8185776   6.8629285  17.0821906  33.6117542   7.1938630
  16.2666036  33.6651409   5.9199163 107.4607261  54.5644045  45.3757524
 107.6677760  54.8560715  46.2636089 108.0753338  53.8497925  45.2089596
  18.3539414  67.5900698  71.4730072  17.8093469  66.9988394  71.9927168
  17.8383493  68.3937407  71.4058685  86.2549851  13.3825100   3.6218282
  86.3847313  12.5619209   3.1464120  86.4169678  14.0649069   2.9704210
  20.2700281  68.1568432  63.4886408  19.8960555  68.5290575  64.2872858
  19.8061085  67.3279333  63.3706665 107.8371563  60.6411266  70.4393387
 107.2968345  61.0848856  69.7856045 107.5075649  60.9605980  71.2793016
   0.4555847  89.1485310  63.6202097   0.1690919  88.2982826  63.9537191
   0.0390957  89.2216682  62.7614737   6.1781609  33.3293080  57.2412157
   6.4018607  32.6763296  57.9043961   5.2344048  33.4560466  57.3386478
  13.4293413  66.6303730  80.5010605  13.7946510  67.3247242  81.0493851
  14.1523790  66.0147524  80.3808117  66.0161714 103.3643035   3.8299390
  65.7555561 104.2540435   4.0679952  66.9377069 103.4425763   3.5832044
   9.2455423  51.4608383  51.0939980   9.9678612  51.6542149  51.6915703
   8.7957257  52.2984409  50.9830093   3.6954963  49.9530506  55.1800394
   3.6501938  49.3567610  54.4326353   4.3669099  50.5906677  54.9373865
   5.7215983  83.0199146  51.6261005   6.3102490  83.7549973  51.4547205
   5.0819737  83.3654118  52.2487879   5.3590006  38.4312773  66.8776751
   5.4810220  39.1318178  67.5184441   4.5549387  37.9914570  67.1538496
  38.3363175  89.8481178  61.3441086  38.5850692  90.7345676  61.0822773
  37.4444652  89.7419834  61.0131025  42.5179768  57.1562815  60.4138947
  42.7007818  57.4097061  59.5091343  42.4404716  57.9863930  60.8841467
  14.0513599  55.9724951  90.0692368  13.8452482  55.8020926  90.9883213
  14.0837717  56.9269228  90.0040245  69.1613993  16.5167129  13.7911912
  69.0265343  15.5774677  13.9171335  70.0686845  16.5908468  13.4952661
  84.7348663  16.8775833   3.0042669  84.9913892  17.7584398   2.7312681
  85.5634687  16.4167631   3.1357690  26.6278648  66.1042547  86.2729263
  27.5080085  66.1324692  86.6481400  26.2234879  65.3321075  86.6685295
  21.7883611  91.0711575  47.8630114  21.0208201  91.3784885  47.3806572
  21.7415237  90.1168823  47.8048277  10.2625763  74.0222836  54.4220352
  10.0721729  74.9307537  54.6558285   9.7369885  73.8614416  53.6383772
  66.3795786  97.2976808  20.7018110  65.7302217  97.8564099  20.2747365
  67.1243744  97.2933940  20.1005670 103.5217466  45.4465580  34.4815278
 104.2674717  45.8209848  34.9504972 103.2991650  44.6579266  34.9762464
  22.2596192  37.5212049  84.1979599  21.8206930  36.7087483  83.9459896
  23.1757903  37.2712374  84.3178844 105.6456842  69.7913122  17.6872611
 105.1354047  70.1055622  18.4336483 106.4156931  69.3798876  18.0797517
 102.4337634  87.2799206  78.0920410 102.2087278  87.4918747  77.1861362
 103.0435141  87.9693508  78.3549547  21.1409998  40.9431124  47.8894711
  22.0182943  40.5952597  48.0494308  20.7288957  40.2983856  47.3143768
  47.9971175 103.1425647   1.4711877  47.7051489 104.0243653   1.7023107
  48.8749318 103.0747775   1.8467923   0.9546838 101.9457531  55.8431435
   1.7140189 102.5280857  55.8200073   0.8269239 101.6824436  54.9317837
  60.6789164  79.7602419  21.8516179  61.5590434  79.5791534  22.1814939
  60.4051571  78.9417294  21.4377042  73.9269266  46.2393749   0.8313199
  74.1139599  45.7520283   0.0289842  74.0106718  45.5909527   1.5304395
  31.7207289  71.5492582  53.9562082  31.5943503  71.7806244  53.0360317
  32.6367855  71.2771273  54.0111208  29.7123194  53.7573910  35.9818101
  30.3850770  53.8027859  35.3024220  29.3735075  52.8640223  35.9240651
  25.7919145  80.2231693  65.3027630  25.0752616  80.8576202  65.2919674
  26.5190649  80.6901836  65.7143211   8.8021279   7.8218544   4.2513200
   9.1102887   6.9253576   4.1188070   8.6815644   7.8962171   5.1979848
   2.3059116  95.1798248  57.5392389   2.8493309  94.5563221  57.0573997
   2.1340515  94.7501945  58.3771610  21.1590934  59.2375183  64.5711231
  21.3927436  58.5869408  63.9090157  20.8371806  58.7218285  65.3104925
   9.9071753  89.0104961  89.7817421   9.3272209  89.3952370  89.1245842
  10.2862287  88.2458019  89.3483925   9.1052800  63.9886808  68.3535767
   8.5552573  64.2358065  67.6101828   9.1778022  63.0362368  68.2916975
  99.1682371  67.8552055  69.1860723 100.0459620  68.1950378  69.3602753
  98.8804349  67.4941015  70.0245237  33.6408544  31.1351681  72.2598600
  32.8781128  30.9749222  72.8155375  33.2988501  31.6435051  71.5244293
  68.0766539   3.5952100  68.6411095  67.2441487   3.4970578  68.1790113
  68.7396388   3.3548745  67.9938698  95.7028327  51.3491905   5.3974267
  94.8759493  51.1752689   5.8471509  95.4776153  51.3328922   4.4672414
  26.3669086  59.4609118  40.5706549  27.1878791  59.9205971  40.3947926
  26.6360426  58.5765409  40.8190203 106.4609440  96.5835857  44.7653818
 106.8472769  96.4978409  45.6369495 107.1235301  97.0484352  44.2543745
   3.9234215  84.1378212  53.4243774   4.3864140  84.5131683  54.1733694
   3.1205827  84.6545029  53.3556414 107.1963053  46.6540623  90.0038052
 106.5441500  47.0839357  89.4505119 108.0354201  46.9945049  89.6936226
  35.6725264  46.5845442  54.8061943  36.3869691  46.5456963  55.4420328
  35.0228429  45.9646988  55.1377583  16.1452293  68.1514025  68.4602022
  15.9061921  67.2877979  68.7967682  15.4921758  68.7432051  68.8337326
 107.9752877  73.3168459  84.9704933 108.2000505  73.8334894  84.1966724
 108.0598938  72.4074078  84.6841431   9.3304187  91.2920380  66.1510420
   9.0396750  90.8470345  65.3550053   8.8780880  92.1354198  66.1327791
  24.5831299  21.1651039  80.4218483  25.4765987  20.8484197  80.5547237
  24.1305423  20.4349732  79.9995899  35.0273776  50.0433254  80.3115940
  34.3466330  50.3402710  80.9154510  34.5597601  49.5154715  79.6643496
  84.7352275  83.3267879  53.8972712  84.0040024  83.5722828  53.3304548
  85.4716118  83.8480759  53.5775328  32.1760249  61.2575912  67.6722383
  33.0167913  61.4155293  67.2428179  32.0927501  60.3042364  67.6924515
  22.8222442  29.1580319  40.8937359  22.9944587  30.0703692  41.1265755
  23.3641887  29.0018201  40.1203489 106.1868652  51.7243099  50.5016661
 105.9939440  52.5779247  50.8894157 106.6542741  51.9292164  49.6918678
  21.7411017  95.8677959  34.9173832  20.9304595  96.2548447  35.2479553
  21.9326067  96.3589287  34.1184187  14.7444952  41.7091322  54.9878407
  13.8655853  41.8650675  55.3334332  14.6000302  41.2205505  54.1775036
  96.1216410  60.2067280  56.7948246  96.8880757  60.1584482  57.3662090
  95.7758232  59.3142700  56.7820501  93.9502140  28.5802341  65.1374912
  94.4864782  28.1157160  65.7800484  93.4397169  27.8927374  64.7097397
   1.0408422  74.4295502  74.1852665   1.2670352  73.5420513  74.4635153
   1.6401815  74.9937868  74.6737957  87.2645507   7.5822866   7.7329561
  86.7403683   7.6627815   6.9361039  88.1696150   7.5550735   7.4225541
   9.1534466  65.5101585  81.3499355   9.9579543  65.4433537  80.8355999
   8.6323631  64.7543955  81.0787773  14.1905534  91.4640427  59.0492916
  15.0340533  91.9056892  58.9508581  14.2926908  90.9246254  59.8334074
   6.0531121  72.6353788  46.5744591   6.3952917  73.1154728  47.3285484
   6.2302536  73.2060957  45.8267069  46.5509796  19.2226350  65.2305174
  46.1258650  19.0210235  66.0641003  46.6805172  18.3699560  64.8153162
  28.0644202  50.4447508  60.4844093  27.2195458  50.1089764  60.7838631
  27.9353166  50.6213188  59.5525360  93.9774271  51.5499544  68.8034201
  93.7182518  52.2566795  69.3946934  93.2588442  51.4885855  68.1740522
   9.6720696   6.8968523  10.7431051   9.6841527   6.4664781   9.8882028
  10.4579259   7.4433363  10.7472726 106.8158814  62.1174574  62.9637861
 106.0769894  62.6474762  62.6648664 107.2380497  62.6525021  63.6358976
  91.4781003 103.6861352   9.8349210  91.9377236 102.9135350   9.5061799
  92.0201640 103.9967803  10.5601140  22.6553845  54.7457409  69.7218132
  22.2065425  55.4585934  69.2672634  21.9575357  54.2758846  70.1783991
   5.2740861  27.7103031  14.1469404   4.4501163  28.0595482  13.8073369
   5.3133012  26.8162048  13.8073942  34.5135617  32.7609110  64.4391441
  34.8438334  32.0661211  65.0087214  34.0168762  32.3003411  63.7628222
  22.8975201  87.9135990  81.8619728  23.6673808  87.6935482  81.3374615
  23.2092023  87.8893948  82.7666855  62.5615101  94.3079976  14.5625230
  63.3208542  93.7620763  14.7664853  62.0483546  94.3160418  15.3705140
  58.7183428  94.5348740  80.7530689  57.9441929  94.9724007  81.1073303
  59.3379545  95.2445030  80.5835056  10.9225833  75.4757738  73.2903576
  11.4790165  75.6092834  72.5230312  10.0692105  75.8230114  73.0307198
  13.9381230  44.3747234  54.7594261  14.6538889  44.6720934  55.3211069
  13.1477070  44.5291567  55.2767515  34.9276900  85.9424973  52.9847574
  34.3905354  85.9867954  52.1937227  35.5239320  85.2101231  52.8286934
  80.7331923  51.1167419   0.6374189  80.9757230  51.2901295  -0.2721671
  80.0968573  51.7994965   0.8499357  41.3994837  51.8197680  52.5274563
  41.8780088  51.3359499  51.8542814  41.2745762  52.6916218  52.1526241
 102.4126788  71.4624262  43.4117889 102.1302214  70.6550264  43.8413858
 103.1852027  71.7385197  43.9049530  50.0374942  91.2466005   3.1264993
  50.7204156  91.5461782   2.5264093  50.1146178  90.2925352   3.1200143
  81.7777601  49.2659557   6.4246293  82.2992006  49.7949398   7.0283719
  82.2432170  48.4310520   6.3743993   5.8893825   5.0599230   2.5533029
   5.6292869   5.8603895   3.0091878   6.6542960   4.7470081   3.0362340
 101.4859172  47.8519106  79.2102194 101.9849350  47.1764755  79.6695709
 101.2995829  47.4702787  78.3523941   2.0511046  47.6981401  44.7567320
   2.7098119  47.9707193  45.3955078   2.1889451  48.2784271  44.0080643
  14.7493231  77.8257561  85.1400471  15.2401090  78.5687494  84.7888660
  13.8308704  78.0717754  85.0298023   3.1233355  70.6217146  69.3472052
   3.4101361  70.3927040  68.4631586   2.5446099  71.3741112  69.2238808
  17.1754651 102.1429280   3.9873716  16.2367039 102.0218591   4.1298505
  17.4703591 101.3118628   3.6150857 108.7873404  49.5865393  72.7700472
 108.1634858  49.5137739  72.0477343 108.9036524  50.5287790  72.8920698
   5.5222887  54.2253828  65.8155107   4.8932332  53.6458063  65.3858519
   6.1579138  54.4377327  65.1320505  11.9034266  71.9499540  69.4973135
  11.2973952  72.1769238  68.7920189  12.7183878  71.7234850  69.0492249
  10.4479384  40.7453299  80.8946991  10.5413806  41.0336590  81.8026447
  11.2062228  40.1811314  80.7433224 103.0726776  19.5104111  25.2019235
 103.2318029  18.8910902  24.4896337 102.2961745  19.1700495  25.6462594
   6.6328549  69.7665119  71.7703676   6.3576257  68.9964247  71.2729263
   6.7988920  69.4348669  72.6527977  19.2469263  94.9091721  69.3545389
  19.6382427  94.0543556  69.1745472  18.3396089  94.7128773  69.5879364
  89.1714462  75.6017303  78.6554527  89.9670275  75.2951384  79.0905237
  89.4587883  75.8471537  77.7760029  24.7111058  53.4444952  90.8013916
  24.1950941  52.9109478  90.1969910  25.0775218  54.1393614  90.2544594
  36.0989547  72.4621058  78.6261988  36.8455696  72.0301819  78.2111835
  35.3400874  72.1616220  78.1261396  22.4160624  33.4550667  67.1269798
  21.8706846  33.6693263  66.3700867  23.2331371  33.1298018  66.7490625
  26.8702841  64.2096567  90.7390499  27.1880126  64.8318672  90.0847244
  27.0385647  63.3498383  90.3535271  24.6778838  97.0370988  15.6173631
  24.9657516  97.7913455  16.1316320  25.3016131  96.3451270  15.8372995
   4.7289056  56.2680769  62.8456688   4.1589189  56.3909292  62.0865536
   4.1293082  56.2214231  63.5903406   9.8918879  68.6852503  56.6060400
   9.5900053  68.1715107  55.8569288   9.4023490  68.3343697  57.3499966
  61.4896676  16.7478836  10.7422944  61.8896529  17.3811567  11.3382837
  62.2307250  16.3356293  10.2983209   7.0741922  73.5291100  74.8950338
   6.2426841  73.7124491  74.4577551   7.4079216  72.7464247  74.4565582
   6.2150788  89.3299866  68.1898355   6.9970173  89.8819160  68.2034779
   5.6022048  89.7969341  67.6218748  19.9160361  66.8747282  69.1798019
  19.5096290  66.8989897  70.0461006  19.2898357  66.3982773  68.6347294
  56.7129199  83.1786493   5.4078313  56.2965588  83.3629350   4.5658609
  55.9846442  82.9835061   5.9975549  27.5661469  81.1529732  54.0810013
  27.4203968  82.0614433  53.8170528  26.9746494  80.6445122  53.5261726
 106.5982600  20.1081753  64.7299051 105.9300473  19.7291780  65.3009462
 107.1954115  20.5593467  65.3266382  75.6108713 101.8854618  73.7916040
  76.4734697 102.2123146  74.0472031  75.5214214 101.0548019  74.2587614
   0.4025394  39.4143009  37.9776669  -0.2264707  39.7127509  37.3207760
   0.7081587  40.2176094  38.3990002   7.5162113  68.7810612  74.2755747
   7.2615725  67.8730679  74.4397068   7.2969925  69.2414570  75.0856400
  96.5306816   1.9099701  11.7863866  97.4662981   2.0667208  11.9139978
  96.4194069   1.8852699  10.8359929   2.3514593  73.3254099  56.4099836
   2.2766855  74.1862392  55.9981394   2.1355748  73.4802866  57.3295689
  96.3302860  10.2513492   0.0357362  96.2374673  10.1592815   0.9839650
  97.0670209  10.8522356  -0.0755862   5.1572865  46.7595196  66.1046076
   4.6188137  47.2228432  65.4630375   4.9029601  45.8413506  66.0123253
  11.8524051  80.3953934  64.5465755  11.1615288  80.4173088  63.8844299
  12.4896407  81.0449028  64.2494297  30.1393032  54.6550846  54.1714334
  30.7228637  54.4892073  53.4310436  30.3801036  55.5304337  54.4747639
  13.2721484  72.2472906  47.8396511  12.5252807  72.8459597  47.8440571
  13.1960845  71.7755461  47.0102501  99.6922489  87.5193310  66.2918282
 100.5896982  87.7798462  66.4990616  99.7424313  86.5728569  66.1580515
  39.5034409  55.4002523  86.5055847  38.9911056  56.1348724  86.1678219
  39.6873593  55.6346703  87.4152279  48.1781678  11.9543942  70.6210613
  48.3678596  11.4484414  71.4111614  48.2891886  11.3298043  69.9042702
  53.0542955  15.1386249   3.8897630  52.3416075  15.3977335   3.3056661
  52.6292596  14.9881113   4.7341081   5.5688369  39.5043421  64.6097374
   5.5904078  39.0390444  65.4459572   5.2546352  40.3809071  64.8314285
  20.2414346  70.2810287  90.4961586  20.7573652  69.5550919  90.8469486
  20.8854437  70.9638786  90.3085232  25.0691223  78.3645773  63.5202599
  25.5442691  78.9422989  64.1175079  24.1548085  78.6360979  63.6011457
  49.9469090  88.6099529  63.0998135  50.7698441  89.0733528  62.9440355
  49.4682264  88.6878777  62.2745752 110.1789135  47.3584652  55.2183628
 109.9177743  47.2572613  54.3030500 111.0596761  46.9858265  55.2587509
  49.7707224  78.5263777  88.0641079  50.1346874  78.5336065  88.9493847
  49.5293999  79.4374418  87.8969097   4.2561084  47.2812843  58.2628584
   4.5145199  46.4893770  58.7343836   5.0808722  47.7320004  58.0816126
  93.4384342  54.8778105  41.0497856  92.6168760  54.4411850  41.2748051
  93.7721201  55.2054405  41.8849754  86.0266695  19.3417013   3.0906316
  86.0253558  20.0629032   3.7199899  86.4609072  18.6232603   3.5505410
  14.8635209  35.0989723  54.6412563  15.0365460  35.4446507  53.7655830
  15.3531671  35.6758237  55.2275324  32.9696298  57.3175144  69.2904282
  33.6763453  57.7733564  68.8332701  32.8937864  56.4777613  68.8373327
  24.5693564  12.1816325  52.0233440  24.7170830  11.3096654  52.3895168
  25.1433969  12.7550626  52.5311708  35.1459742  80.2065468  70.7571316
  34.7207212  79.9654150  69.9341822  34.5249391  79.9396181  71.4348459
  77.5612219  77.7970982  73.7728977  76.7979201  77.9899979  74.3173170
  77.2639092  77.1075869  73.1792498  99.5696529  58.4212971  72.7871561
  98.6457726  58.5528326  73.0001736  99.8123582  59.1983700  72.2836924
  24.7687244  95.1720333  67.1034813  24.1542673  95.8886719  66.9450569
  25.2031946  95.4059601  67.9236937  85.3323016   8.8544119   4.1294690
  85.3750715   7.9212416   3.9206716  85.1866767   8.8818205   5.0751325
  86.7615657   7.7531346  90.4715252  86.0444217   7.6878556  89.8409081
  86.5748792   7.0722207  91.1178589  35.9571695  31.2519813  59.9449635
  35.3502846  31.7187929  60.5194330  36.7012024  31.0362554  60.5071974
  20.4555964  52.7193642  70.6941366  20.8793426  52.2622871  69.9676704
  20.2282262  52.0258331  71.3134527  16.8008304  17.2799194  74.5172644
  17.2174215  16.9268394  75.3034067  16.1894810  17.9391754  74.8456955
  97.0281585  57.8236771  84.6135998  97.8110941  57.2740173  84.6470547
  96.3022896  57.2029591  84.5498753  46.7387962  41.8672180  55.2921820
  45.8466864  41.9933796  54.9689817  47.1796179  42.6968002  55.1085901
   0.4807483  61.8241882  44.4358587  -0.3445742  62.1401358  44.0680885
   0.9856156  62.6187992  44.6088839  45.4292917  72.4075079  57.4073553
  44.6701527  72.7005816  57.9113817  45.6245184  73.1387424  56.8213415
  13.3905077  33.8110065  72.6725769  14.3315661  33.6393929  72.6380682
  13.0345809  33.3476162  71.9144106  30.8063745  26.3017011  72.5879478
  30.2630854  27.0836639  72.4899626  30.2019954  25.5717397  72.4533510
 106.9266257   1.2057627   5.6405755 107.1504411   0.3773916   5.2163907
 106.0529337   1.0605514   6.0036298 104.8816326  87.1791744  85.4683685
 105.2956440  87.7223396  86.1390400 105.3835412  87.3567486  84.6728897
  79.4979033  15.2841747  21.2851640  79.1588763  14.4452370  20.9729501
  79.0729791  15.4136217  22.1330568  98.6469135  20.3072870   7.9477521
  99.5117745  20.1479090   8.3256933  98.7813363  21.0347355   7.3403093
  30.5379558  36.4438224  61.5289783  29.8071480  35.8443618  61.3779879
  30.9551334  36.1169171  62.3260546  23.1809807  68.4457874  21.2643099
  22.9386377  68.5482693  22.1846366  23.5267282  69.3016481  21.0109425
  21.0809708  74.0236044  44.8005295  21.8708515  73.7811995  44.3172503
  21.2084413  74.9464560  45.0203609  94.2726918  27.5978398  88.7594604
  94.3602248  28.5311699  88.9530182  93.5468861  27.5492978  88.1373024
  32.6075459  47.6687860  62.6469660  31.6745257  47.6997375  62.4354315
  32.9522872  48.5045433  62.3324919  44.2743397  62.3691177  54.5157290
  44.6873760  62.1795177  53.6733007  44.7010183  63.1714344  54.8164988
  39.8003387  64.6926260  77.1784210  40.2172995  64.9154377  76.3461161
  39.2955971  63.9016199  76.9892597  41.7141390  73.6661720  44.0597200
  41.4162159  73.0150557  43.4244871  42.5560141  73.9668608  43.7175846
  27.1255350  63.0713320  65.2762175  27.5246692  62.2054672  65.3610373
  26.5440154  63.1422043  66.0332155 103.1059625  79.9478436  70.1210785
 103.9396038  80.2159977  69.7345972 102.9634102  79.0606499  69.7912312
 107.9546549  63.7522697  60.5047274 107.9890271  62.9610348  61.0423088
 107.8344291  63.4299183  59.6114922   7.5844431  44.8738337  73.3804083
   7.1886712  45.4587507  74.0265226   8.1927890  45.4304743  72.8943014
  21.4327145  76.1844349  73.4845686  20.6053710  75.8521223  73.1362772
  22.0663071  75.4913473  73.2990408  15.8380032  59.7690153  48.7015390
  14.8941791  59.6475315  48.5982466  16.1636925  58.9066505  48.9593840
   8.7410361  54.7705460  67.6269341   8.2033217  55.4261732  68.0710602
   8.4355724  53.9334822  67.9765749  80.4449590  55.1639175  30.7139063
  80.8952101  55.7843542  30.1407003  79.7705134  54.7715902  30.1594377
  13.4230387  55.9619331  41.4338446  12.5162208  56.2447023  41.3157082
  13.8202858  56.0637617  40.5689383 100.8821627  65.2648497  51.8958330
 101.0844060  66.0998249  51.4737701 101.0261115  65.4267025  52.8282022
  23.4376931  78.4362793  79.5978737  24.0161347  77.9947710  80.2197266
  22.7797484  78.8647175  80.1453972  99.2651459  46.1295223  55.4944134
  99.7385999  46.7720699  56.0228109  98.3590325  46.4380407  55.4972601
 110.5007934  57.9394865  55.3654861 110.3128613  58.0435324  56.2982702
 110.4268909  56.9979191  55.2098417  45.0277185  88.5372543  39.1279221
  44.5374537  88.5588837  39.9497557  45.0249195  89.4447231  38.8234115
  25.9649587  65.8185196  36.7342043  25.4739571  65.1688099  37.2372198
  25.3152919  66.2106514  36.1507702  65.3034692 104.3277339  19.5136091
  65.4564218 104.2206935  20.4524347  64.6012859 104.9758414  19.4577047
 106.1049034  22.3234534  88.2881546 106.4747470  21.9003725  87.5132656
 106.6882219  23.0629826  88.4586525   5.8189905  79.2837620  69.3303728
   5.4582399  79.2788267  68.4437704   5.3066444  78.6263704  69.8010874
   4.0676525  88.7520123  77.7651453   4.3500525  89.6097088  77.4475765
   3.1199756  88.8357925  77.8706074 105.2624985  77.6755667  34.4679737
 106.1368557  77.8609467  34.1253877 104.8004737  77.2661448  33.7364435
  16.4161932  58.6272717  39.3257308  16.5850866  59.4221687  39.8315430
  16.6645479  57.9128122  39.9123359  48.3448219  96.3629723  31.9259810
  47.6821089  96.9306564  32.3193908  47.9772663  96.1186600  31.0765982
  38.9064789  66.0309362  53.4244299  38.2409215  65.8582306  52.7585173
  39.4548988  65.2464199  53.4240437  23.2432008  54.2558336  63.8404036
  23.7357974  54.9156666  64.3284559  23.8186550  54.0160275  63.1140566
  14.5649946  72.2576380  63.4948349  14.2885220  73.0628395  63.0572939
  15.2322745  71.8878698  62.9166985  21.0460107  97.6535586   1.2348577
  21.2992852  98.3647756   0.6464216  21.8291728  97.1072225   1.3012239
  31.6407943  74.2713070  87.3052788  31.8489957  73.7783098  88.0988979
  31.0952425  73.6768675  86.7902565 106.3572311  52.4143791  72.9646492
 105.9472974  52.3123074  73.8235807 105.6308337  52.6169872  72.3751307
   9.7565150  58.8521528  82.6726627  10.0061023  58.9701700  83.5891819
   9.8417062  57.9109669  82.5205135  88.9260671   6.3923681   3.4142896
  88.4318826   7.1856630   3.2076761  89.5304761   6.2884653   2.6793596
  23.9997983  52.9163885  45.1053858  23.1008935  53.1286240  45.3566980
  24.4938612  52.9592609  45.9241009   4.2336370  13.6954105   3.3542463
   3.8625241  12.9345024   3.8009282   4.7646237  14.1296518   4.0218660
  39.6595407  83.5900688  73.8909721  39.1511226  83.6349773  73.0812025
  39.1319537  84.0667725  74.5317745   7.4817795  73.3911753  78.1552696
   7.7481776  73.3847427  77.2359133   8.0214942  72.7155733  78.5657597
  10.6425190  80.6024742  70.5859900   9.9715698  79.9408245  70.7541561
  11.3706756  80.1132393  70.2030134  28.3643913  86.0950661  67.6946831
  28.9128065  85.4666138  67.2250891  28.5057831  85.8922768  68.6194086
  28.8979959  76.2108803  61.8724251  29.5364046  75.4987335  61.9113350
  28.0840158  75.8204985  62.1906567  39.1388750  84.7011471  69.4007587
  38.5754919  84.6117401  68.6320972  39.9851847  84.9746132  69.0469122
 109.5654307  57.1192265  63.2819080 108.7331792  56.7569494  63.5857868
 110.0220654  57.3752308  64.0832663  17.7657128  60.5152405   3.6884519
  18.0167438  61.4216793   3.5107251  17.3431588  60.5476272   4.5467206
 106.3651194  93.1214046  53.7423849 106.0809465  94.0326214  53.8142157
 105.6153180  92.6661777  53.3592463  16.2597346  77.1982336  78.3315182
  16.5129542  77.8373194  77.6654243  15.5995762  76.6538763  77.9024506
  55.2714539  82.3329067  74.1409349  55.9979916  82.2299957  74.7555685
  55.6382608  82.8447723  73.4200478  20.0346494 102.9686356  61.7222118
  19.0800774 102.9718304  61.6514015  20.3200841 102.3161602  61.0826588
  89.7004184  13.7301147  13.6041757  89.2957101  13.8467729  14.4637319
  89.0071938  13.9487589  12.9813882  53.8563061 101.5258217  56.9190884
  53.5753345 100.6411076  57.1527100  53.0637169 102.0569706  56.9959641
  76.2592435  41.6908825   3.3143159  76.2540730  40.7336986   3.3173581
  76.6324240  41.9310749   4.1624185   1.9322874  60.3104925  57.6448584
   1.9061819  59.8974800  56.7817402   1.5175486  61.1633348  57.5149250
   5.0230700  85.0659180  73.7497282   4.1063967  85.3327274  73.8186598
   5.4773521  85.8482265  73.4369087  76.1554557  45.9790981   4.7273752
  76.9018671  46.1822689   4.1636106  76.5389323  45.5267322   5.4787275
  35.3364825  78.2879114  56.1272287  34.8775578  78.1390142  55.3005219
  35.8897352  79.0509176  55.9600019  30.7990503  57.7568197  58.7360096
  30.0852704  57.1230698  58.8074970  30.4898310  58.3942366  58.0923414
  58.9827204  73.2066870  58.7805653  58.1508970  72.7490091  58.9023733
  59.6482563  72.5280333  58.8933563 108.9195553  87.7764511  75.0807285
 108.9729860  88.7206554  74.9329042 108.4267678  87.6892757  75.8966923
 100.4245730  65.4206371  76.6804934  99.8160454  65.1470757  77.3668528
 100.1658829  66.3190603  76.4751911   6.4513546  43.9682484  53.3812332
   6.4723772  44.3058300  54.2766857   7.1595520  44.4315100  52.9339314
   0.5195044  71.9962025  61.0418510  -0.3190786  72.1694469  60.6140709
   1.1681521  72.4142742  60.4755449  52.2307825  88.8830853  59.8355675
  51.8639469  89.0269661  58.9632368  52.8874826  88.1982327  59.7092628
  19.6226895  78.6695719  64.2518473  19.2430723  79.3883848  64.7572470
  18.9537108  78.4542608  63.6019659 104.1081581  21.9517982   9.0857621
 105.0251922  21.7183626   9.2299386 104.1232667  22.5156248   8.3123990
  62.3195982  95.6829548  81.4297104  61.7521095  96.4235306  81.6435814
  63.2078648  96.0283661  81.5186405  82.0104504  92.3933220  80.0514507
  82.2847843  92.4308681  79.1351795  81.6975403  91.4966774  80.1712322
  24.2305303  70.2622080  76.7066622  24.5849323  69.4451237  77.0573854
  23.3333421  70.0449705  76.4534950  82.9660186  56.4303768   1.8066617
  82.1995238  56.0687340   1.3617631  83.0105928  57.3383987   1.5070936
  59.9574785  12.1226415  39.3995881  59.4275503  12.2542104  40.1857805
  60.8608107  12.2215756  39.7003102  91.7804620  33.9029873  11.4869138
  92.3479197  33.6786449  10.7494279  92.2923073  33.6716640  12.2619840
   4.1599922  -0.1290599  82.8669357   3.7073331   0.6958779  82.6914310
   4.7150283  -0.2657596  82.0991611  17.7953088  92.1238327  83.7476254
  17.0590973  92.7109909  83.9192867  18.5432303  92.5482559  84.1679859
  14.5231199  62.4998093  42.4869394  14.9221146  63.2685280  42.8945017
  13.5912621  62.5766182  42.6918077 100.6324944  43.2919777  19.2085286
 100.6673774  42.3367203  19.2585584 100.3817877  43.5689724  20.0898095
  25.5278587  62.3863697  42.5134802  24.6994352  61.9600391  42.2939539
  26.0877323  62.2275257  41.7535162  76.9774452  54.8161781   2.2780725
  76.5388219  54.7605408   1.4291021  77.2001529  55.7423199   2.3723623
   5.1832539  77.8464746  75.0439548   5.9677500  77.8697872  75.5919123
   4.6332031  78.5526752  75.3830147  75.0798540   6.0329064  62.8481197
  75.0918274   6.9895181  62.8792763  75.4901843   5.7613763  63.6691761
  94.3474040   9.7140158  20.6521341  93.4244785   9.9620664  20.7060834
  94.5712242   9.8235357  19.7279378   5.2609462  52.4771404  62.1353626
   4.8475525  52.6831532  62.9737520   4.7554824  52.9725647  61.4909315
  19.5528388  78.6826038  50.6192589  19.8892474  79.5787382  50.6197214
  19.7195411  78.3646536  49.7319317  25.8057642  78.5391617  57.8526974
  25.7767677  77.7633667  57.2927523  26.6226172  78.9769506  57.6132774
  26.7308545  39.7852397  90.3907776  26.8554211  40.6823397  90.0810623
  26.3604403  39.3217850  89.6396255 108.9023554  60.7875443  66.8393660
 109.3844449  60.6725216  67.6582623 109.3650059  61.4922905  66.3860226
  25.4302454  49.8080730  54.3884420  25.4858923  48.9537001  53.9604473
  25.1981187  49.6071243  55.2950668  84.4497593  47.4164152  73.5281801
  84.5228180  47.8244162  74.3909883  84.9799617  47.9706287  72.9554987
  62.4947123   5.1697167  69.3538761  63.4074788   4.9979981  69.5853949
  62.1231656   4.3036755  69.1861010  12.1384144  61.9860220  64.2912436
  11.8298185  62.8576565  64.0437460  11.3537478  61.5327454  64.5995760
 100.1270815  34.0950298  87.9076481 100.2098402  33.5311365  88.6766720
  99.1971537  34.0595365  87.6835823  33.7677813  81.2730789  87.1961117
  32.9408407  81.7534637  87.2365379  34.1975474  81.6020775  86.4066219
  10.1182008  46.5917969  61.5494347  10.6398976  46.8585062  62.3063564
   9.2409217  46.4448023  61.9029951  26.4661050  95.4598236  48.6421013
  27.0218277  96.0148716  48.0949926  27.0446968  95.1575184  49.3421555
  35.2840018  53.9595079  43.0542660  35.1495218  53.8616800  42.1116209
  35.6240869  53.1106281  43.3370590   5.8475125  70.1045084  76.3309479
   5.1633930  69.4921398  76.6015387   5.3743571  70.9007597  76.0894108
  10.4743147  96.8377590  59.6483946  10.5244231  95.9986782  60.1062870
  10.5601716  96.6108322  58.7224579  22.2129631  95.9381580  54.8903656
  23.1083846  95.7271862  54.6258974  21.9344211  96.6153908  54.2739201
  18.7227678  82.1500111  60.0795317  18.9632249  82.7370930  60.7962894
  19.1551232  81.3228989  60.2921009  20.1568317  97.4726295  74.9547625
  20.9974313  97.6974964  74.5559406  19.5059764  97.7235889  74.2992973
  40.3831148  80.4568291  65.7290697  39.9542260  80.9610462  65.0376558
  40.3880310  81.0434723  66.4854145  58.0903673  92.9053402  72.3756123
  58.3355045  92.4293137  73.1690502  57.3668051  92.3989868  72.0064306
   4.9416801  74.7029018  50.8123589   5.0329167  75.6100750  50.5209064
   5.0551403  74.1831207  50.0166321  33.8643336  85.5134773  45.8765984
  34.1015673  85.2734947  44.9808550  34.6096087  86.0239506  46.1931610
  10.1395762  30.8235145  67.8846312  10.7225072  30.5099416  68.5760736
   9.2934734  30.9366584  68.3176899  92.8809460  65.7265806  65.6347036
  92.1827253  65.3774643  66.1886263  93.6695214  65.6606340  66.1732483
 108.8518610  57.7200460  40.0073385 109.0556080  57.9595089  40.9114265
 108.7895020  58.5565472  39.5462489 106.3254239  64.4742346  55.2505445
 106.2111893  64.0433645  54.4034719 106.9370063  65.1893425  55.0749731
  31.3794017  64.7037745  78.8044882  30.6349874  64.1149569  78.6804962
  31.0027289  65.4834127  79.2125559   9.3839723  85.3917789  65.9924603
  10.2512610  85.4269123  66.3959551   9.0982848  84.4867611  66.1171436
  50.1102686  85.4060364  63.7001181  50.4249525  85.8759499  62.9278564
  50.0178194  86.0825443  64.3709612  58.6817360  80.9063053  66.6434240
  57.7570629  80.9450626  66.8877697  58.8742113  81.7769814  66.2954187
   4.9562460  94.3791199  89.9002075   5.1218307  94.5222855  90.8320427
   4.2597666  93.7228489  89.8787689  32.1717143 100.0562954  67.6213074
  31.4548945  99.5778084  67.2048235  32.8674006  99.4064331  67.7210045
  39.3433142  76.2008715  63.0425310  38.6257482  76.8343306  63.0501413
  39.1179514  75.5921268  62.3390579  12.8730857  94.0466022  80.3352165
  13.6204469  93.4535313  80.4123688  12.1087289  93.4704208  80.3388309
  40.5541699  82.7147321   7.6877710  40.8795945  82.6964287   6.7877694
  40.9645431  83.4878735   8.0751630   0.8545133  72.5121546  80.2261162
   1.2230511  71.6310072  80.1629066   1.5338272  73.0250549  80.6639481
  45.8541107  87.0521832  76.3990450  45.5394125  87.4485397  75.5865812
  46.4859009  86.3918591  76.1143732  28.1193948  83.7030506  15.9216750
  27.5165987  83.0168343  15.6353438  28.4218597  84.1101742  15.1098907
  47.2152996  60.4590940  68.0291319  46.7783976  61.2203026  68.4111118
  47.2533512  60.6500435  67.0919418  41.6244936  90.4291153  60.0012064
  41.2402344  89.7281933  59.4746208  41.2527609  91.2329102  59.6379375
  49.8348241 104.7225455  36.3497754  49.3395655 104.6416215  37.1648809
  50.6584995 105.1349954  36.6099283  28.3877850  83.4649372  79.5924664
  28.6249352  82.5377178  79.5764208  28.9004159  83.8555527  78.8847542
  77.9592852   4.0104302  58.8974237  78.2937960   3.1172666  58.8161516
  77.4142413   4.1336926  58.1202745  12.8241205  82.4609470  76.6432095
  12.6330197  83.0304623  77.3884344  13.5534453  82.8894043  76.1951637
 102.3341300  79.6216106  28.2949066 101.9855680  79.5582676  27.4056792
 101.9613048  78.8680887  28.7525463 103.6909232  14.4142712  12.9391786
 103.2545623  13.8754452  12.2792646 103.3946714  14.0552843  13.7755987
  -0.0334883  56.0920095  75.5224180   0.8177423  55.9671736  75.1028252
  -0.0890012  55.3858900  76.1662674  53.7516212  30.8393526  46.8724918
  54.3506050  30.1044822  46.7405319  53.6345625  30.8855224  47.8213882
  26.0967994  64.2339849  55.5411673  25.3201365  64.7800016  55.6632090
  26.5684724  64.2994261  56.3715124  19.9320842  25.3555477  41.1580106
  19.7363187  25.5562866  42.0732137  20.3921557  24.5167721  41.1898824
  21.6239882  75.3250027  89.4097996  21.8411541  75.6903028  88.5521126
  21.8834400  76.0044003  90.0321674  58.9677982  16.4502438  13.2431054
  58.2458310  15.8282956  13.3334911  59.6360760  16.1312684  13.8496435
  36.6761351  65.2225256  51.6663742  37.0719171  64.9028158  50.8555889
  36.0359001  65.8738279  51.3797855  77.1648507   6.9883832  67.4828243
  77.3845916   7.7302941  68.0463028  77.8013806   6.3129529  67.7170420
  40.2591228  76.4911270  85.5828953  39.6011400  76.3917112  84.8948479
  40.2554226  75.6507158  86.0410690   6.9399905  57.4037552  43.5028124
   7.6604927  56.7773724  43.5717535   7.2257131  58.1555462  44.0218544
  36.4761472  69.9948788  81.5551281  36.6826653  70.3599977  80.6947422
  36.2055922  70.7501936  82.0771790   9.2326248  59.8399830  75.3695059
   8.3698040  60.2346039  75.4961872   9.7934079  60.2800798  76.0083103
  81.0813704  15.8692825   6.0460016  81.9871071  15.6345451   6.2479135
  80.5582538  15.1810778   6.4570447  31.7346001  86.0747814  77.7265024
  31.9308138  86.5112495  78.5554934  32.5674558  86.0711479  77.2547293
 105.0320741  94.1491318  76.6328192 104.2970487  94.7539234  76.5318823
 104.6252861  93.3145428  76.8656731  22.9600620  76.9950628  85.7206345
  22.0860529  76.7979527  86.0575104  22.8294897  77.7447224  85.1399517
   3.8442996  66.2783527  75.1055336   4.4394210  65.7497787  75.6372023
   4.1642964  66.1713600  74.2097712  18.5293245  56.3121271  69.3987608
  17.9155469  56.4092064  70.1268339  17.9733455  56.1481333  68.6370373
  43.8050652  67.7801800  66.7690086  43.9057875  67.9471874  65.8318901
  42.8878498  67.9843044  66.9514465  34.4236517  58.4869051  89.9321079
  35.2908492  58.8399696  90.1309681  34.3233609  57.7467394  90.5307102
  87.8163036  83.9135361  72.4053049  87.1639212  83.9379787  73.1053257
  88.1116017  84.8201752  72.3213482  53.2844782  23.4680653  59.8433971
  53.1276894  22.6191378  59.4299126  54.0546465  23.8151264  59.3932676
  87.5022205  93.4789467  65.6149483  86.9062003  92.7931976  65.3137207
  88.2903632  93.3611870  65.0846672  37.5343132  93.7701225  76.1908340
  37.8147793  93.7236977  77.1048450  37.8730130  92.9669762  75.7952785
  24.8349595  72.2887135  69.3103838  24.3243361  71.5440798  69.6282148
  25.1444960  72.7234936  70.1049852  26.1442041  67.3093271  83.8904095
  25.2299690  67.0333195  83.8254452  26.4981627  66.7964935  84.6170139
 103.2584640  82.9196167  76.6508722 103.0883255  83.3519840  77.4877357
 102.8205689  82.0717716  76.7259359  19.4262469  87.4012375  44.4373655
  19.0916407  87.5228024  45.3258991  18.6582649  87.1491909  43.9246178
  40.0107527  80.0099945  85.3992081  40.9178782  79.7861481  85.6071663
  40.0446987  80.3363991  84.5000172  42.2292280  97.4355698  82.5947285
  42.6321459  97.6283360  81.7481232  42.7485466  96.7133808  82.9482460
  15.7894289  93.0924034  61.8488121  15.6019616  93.8865757  62.3491907
  15.6694615  92.3798656  62.4766064   8.4754050  90.3794670  68.5741186
   8.4607399  91.0595608  69.2475319   9.0308315  90.7391644  67.8824949
  18.5555351  84.3684006  69.0990114  19.3189359  84.5998383  69.6280575
  18.7107992  83.4604263  68.8388300   7.8440624  86.8456173  70.1158524
   7.6661789  86.0080624  70.5437422   8.0812722  87.4348068  70.8319664
   0.1676977  61.9205523  60.9821415   1.0055744  61.6038418  61.3196182
  -0.4843501  61.3443184  61.3809156   8.3208990  89.4891644  77.9618788
   8.1470776  90.4244804  77.8560686   8.8930303  89.4369888  78.7274981
  13.1278396  93.7606430  86.2123299  13.4310055  92.9762363  85.7551289
  12.1926594  93.8073063  86.0136127  49.2484140  73.4906197  67.2444725
  50.1138973  73.1164742  67.0795965  48.6650276  72.7331924  67.2913790
  15.6918144  57.1428156  57.7107859  15.2543128  57.8746939  58.1457329
  16.0679412  57.5254869  56.9181156  87.8789425  69.6379900  39.4668102
  88.4622955  69.5303822  40.2180481  87.2458935  70.2986670  39.7478485
  67.0503621   7.2472009  69.7274923  67.8497462   7.7120885  69.4803095
  66.4600234   7.9339703  70.0374746  17.5565231  73.2424784  80.7537651
  17.6481688  73.7327385  79.9367666  17.6608586  72.3264503  80.4963970
 105.6310811  65.7428312  83.3068275 105.6309374  65.7868433  84.2630196
 106.5357717  65.5308771  83.0769539  38.3167410  88.8900280  57.3200750
  37.4611235  88.8736534  57.7488852  38.1853175  89.4347000  56.5439987
  52.3021405  78.9827136   1.2236902  51.5298550  78.5963468   0.8107396
  52.4972277  78.4009437   1.9583436  18.0980635  56.1558533  15.9805703
  18.7563241  56.5560818  16.5486753  17.7132297  56.8917227  15.5045080
  40.3467377   1.5966138  51.9535160  39.4017939   1.4968022  52.0690680
  40.4412814   2.3922738  51.4298630  49.8020077  80.0140095  79.2033863
  49.1973877  79.2735004  79.2514610  49.3556929  80.7185173  79.6731901
  32.7314925  96.4779282  63.0276775  32.2478604  96.0153580  62.3433018
  32.6694608  97.4011135  62.7825260  26.2383914  56.7317343  56.7459249
  26.4088917  57.3227119  56.0125065  25.7255411  57.2555780  57.3613977
  21.8034601  73.3585835  69.8734808  20.8932090  73.4018135  70.1664114
  22.1178198  72.5126362  70.1925087  31.1317945  93.0657101  82.7052307
  30.3415585  93.0866051  83.2449722  31.2735128  93.9780426  82.4526405
 107.0769816  74.6460295  44.6911144 107.0210286  75.3258181  45.3626680
 107.3115047  75.1176500  43.8918638   3.5215935  96.3407612  69.2316484
   2.9532933  96.3335896  68.4614468   2.9455784  96.5969086  69.9519444
  87.2159454  15.2783096   1.7022725  86.8738815  15.8000505   0.9763166
  87.7558717  14.6086681   1.2824079  37.6359391  61.8186998  69.7238207
  36.9140887  62.0376921  69.1345835  37.6452541  60.8618021  69.7458553
  58.2065110  20.3326138  41.1770105  57.7885203  19.5406636  40.8388853
  58.2574110  20.1916036  42.1223974  34.4538395  27.2623834  81.5066242
  35.1597418  26.7032346  81.8311024  33.6538278  26.7717561  81.6950417
  51.3962555  70.8803701  55.9700727  51.3749170  70.3832006  56.7877531
  51.0241413  71.7323208  56.1979961  30.2152967  82.2945309  73.8483191
  30.2966094  82.6044369  74.7503042  29.5707059  82.8801155  73.4510565
  43.2787561  78.9071703  67.9004383  43.5856104  78.1449795  68.3914995
  42.4291945  79.1161346  68.2887840  73.9141135  97.6879672   2.8727456
  74.2391400  97.2914580   3.6810609  73.0033593  97.3993806   2.8137704
  17.3879910  81.4170742  87.2639942  17.4919951  82.1849251  86.7020130
  18.0746973  80.8152676  86.9767761  37.1644473  92.1713924  58.3628702
  37.5718236  92.6356030  57.6315832  37.5210047  91.2845325  58.3120346
   3.7425515  92.8845787  64.0705681   3.0913180  92.2063637  63.8912868
   3.5912567  93.1263542  64.9842930  26.6475558  65.9284353  57.7767897
  25.8033395  65.7033825  58.1677914  26.5707803  66.8574572  57.5594139
  70.9033290  45.7449806   9.6517297  70.1168505  46.2775696   9.5332834
  71.0003171  45.2737224   8.8242360  45.9083687   4.2953881  39.5392966
  46.2120323   3.4394654  39.8416591  45.2102815   4.0952786  38.9157057
  10.1316178 100.3822041  63.1671429  10.0689387  99.4282722  63.1190252
  10.2504754 100.5677414  64.0986347  47.8381824  79.1596270  33.4138703
  47.6689196  78.7527323  34.2635894  47.7439070  80.0984669  33.5748553
 105.4153642  60.0267017  13.9822694 105.5175409  59.3872726  13.2773324
 104.5828352  60.4598797  13.7938997  27.2443175  94.2457581  61.0000992
  27.4205136  93.3049774  60.9889126  27.6615810  94.5770550  60.2048874
  38.9511745   7.0464238  84.0312290  39.4439145   7.3647794  83.2748604
  39.4768275   6.3227757  84.3721962   3.5686964  90.3487873  73.7188959
   2.9555976  89.7057247  74.0749931   3.4863120  90.2581596  72.7695656
  32.3788309  71.2037373  81.0794926  32.6674628  70.9529018  81.9569874
  31.8432879  70.4674864  80.7839203  18.7353492 100.8408546  68.1959867
  17.9421425 100.3205204  68.0682898  19.0611863 101.0020542  67.3105049
  74.0503263  82.9868126  73.6397839  73.7430954  82.0879841  73.7578535
  74.7752237  83.0753899  74.2585802  16.9022012  79.6972513  81.9293118
  17.4927425  80.2768898  81.4481640  16.7587352  80.1415348  82.7649403
  20.9122229  52.0080042  50.1690197  21.0843444  51.4264441  49.4284868
  21.7069173  52.5355387  50.2490282  37.2826529  59.8572540  90.5561447
  37.8563499  60.5567884  90.8688068  37.6153493  59.6466208  89.6836948
 103.6751767  74.6231031  77.1891642 102.7810445  74.6173429  76.8475103
 104.2290702  74.5510912  76.4118338  21.5984154  83.8293934  81.0666180
  22.0474815  83.0267906  81.3319492  21.4516139  83.7222099  80.1268291
  52.1704769  97.0324898  51.0982370  51.9694757  96.5267086  51.8856430
  52.7356434  97.7409077  51.4063883  14.8337030  55.0311518  55.8940172
  14.1084337  54.7476721  56.4506626  15.2111900  55.7800627  56.3553905
  17.0040870  72.3769379  87.6402950  17.4960506  73.0844784  88.0569267
  16.7548311  72.7293158  86.7859364  55.5188227  78.5653973  68.8350248
  55.3207350  78.5170078  67.8997946  56.4631939  78.7170553  68.8722897
  22.0949889  18.0877340   8.2035657  22.4735976  18.6680925   8.8639184
  21.3235951  17.7125872   8.6283513  15.8954215  81.7166328  76.3930750
  15.1551890  81.1228085  76.5182304  15.5958056  82.3359299  75.7275438
  22.2553825  75.2084970  62.2519159  22.6602054  76.0353708  61.9899464
  22.9638171  74.5671129  62.1973515  65.8414650  91.4887428  32.2849202
  65.6622982  91.3255310  33.2109308  66.7637491  91.7437744  32.2607350
  30.6956458  59.8388958  78.5290956  30.6732821  60.7814503  78.3637905
  31.2888098  59.7403526  79.2738628  52.7832794  70.8289814  66.3086843
  53.1906271  70.1861525  66.8892622  52.1524858  70.3231764  65.7963419
  26.6007042  60.5380630  85.5133343  26.2522340  60.6498384  84.6288586
  27.5506306  60.5235672  85.3964520   6.4994389  57.9027843  59.0959930
   7.2861391  58.3975601  58.8667917   6.1632782  57.5856161  58.2577610
  29.4421816  45.1450014  41.6258717  29.9912715  45.9243011  41.7120218
  28.5476160  45.4843283  41.5968275  32.3865819  41.9655943  80.9898186
  32.8259635  42.6613569  81.4787960  31.5456510  42.3457241  80.7357121
  76.5915798  54.5444382  21.8311330  76.2899851  55.4447067  21.9527551
  76.8747464  54.5080746  20.9174939 110.3865906  72.5268745  69.7023249
 110.0282820  71.8409586  69.1389704 111.3310529  72.3713017  69.6980000
  13.0252314  79.2120600  79.6784544  13.0078924  78.3040953  79.3759108
  13.2744288  79.7175980  78.9047861  96.8316970  45.5442989  20.6275770
  97.1015343  44.8775566  19.9960157  96.5423474  46.2809837  20.0892469
  89.0223107  49.2984474   9.9059411  88.3668050  48.6029899   9.9596425
  89.7203896  49.0157402  10.4966947  97.5460669  92.6704884  48.8044548
  96.7388984  93.1448555  49.0036726  97.7626141  92.2141838  49.6175528
   9.6937644  72.8489828  71.5592289  10.0173259  71.9481802  71.5689325
  10.4804790  73.3870268  71.6476774  20.3532219  19.1621792  22.6557064
  21.1238909  18.5995054  22.5802302  19.6908617  18.6071968  23.0674171
  17.0456803  60.2689075  78.9027882  17.8600860  60.5967474  79.2842293
  16.6064548  61.0505867  78.5676908  20.2444124 100.0456810  43.6235762
  20.4418516  99.9736404  44.5574188  19.3069851 100.2364731  43.5909891
   3.5028935  46.6189564   6.0787984   4.0323545  47.2049892   6.6196081
   4.0293838  46.4782703   5.2918741  83.2473073  23.2710588  29.0948221
  82.5501988  22.7982700  28.6401292  83.9120564  22.6054943  29.2719289
  73.9050102  74.1648626  77.7612829  73.0087805  74.3332958  77.4703598
  74.1797161  74.9824524  78.1763983  18.4027863  71.0886431  82.2903824
  18.5507190  72.0342541  82.2774696  19.1959107  70.7275248  82.6863289
  34.2936778  66.9472933  51.4888048  33.3651161  67.1722507  51.4304781
  34.5341039  67.1547174  52.3918056 100.1452991  81.7554760  61.9386482
  99.4527432  81.1957073  61.5875626 100.2258953  81.4906216  62.8549385
  32.4583292  83.8181591  65.7577610  33.2592416  83.3268452  65.5750751
  32.5291038  84.6024704  65.2136326  57.1265754  33.2323254   3.2521459
  56.1883518  33.3795059   3.1325551  57.3701796  32.6456726   2.5360986
  20.4177928  96.1593437  62.1463966  21.2380958  96.3942051  62.5801849
  19.9741292  95.5831623  62.7688217  31.3873196  89.0152836  57.1931648
  30.4353285  88.9863205  57.0977354  31.7152238  89.1021919  56.2980938
   9.4112939  74.9795008  64.8936844  10.3560638  75.1215458  64.8348284
   9.1389877  75.4920578  65.6548500 107.4059829  10.4795730   7.2169324
 107.3740086  11.4312876   7.3141404 106.6966662  10.2771557   6.6069051
 103.2663449  60.4541111  60.8195066 103.9454802  60.4679203  60.1451063
 102.4549349  60.2899551  60.3389835  20.4495025  33.7016082  65.0479841
  19.8213553  33.3017850  65.6494856  20.1452351  33.4438992  64.1777897
  41.1415672  99.0262127  76.1054468  41.4854050  99.6344662  75.4512024
  41.8999434  98.7995625  76.6437101  60.7510576   7.4760521  12.0556375
  60.9802160   8.3439720  11.7233201  59.8150024   7.3899067  11.8750593
   9.7361106  99.2698574  88.3139324  10.2743375  99.9280548  88.7536144
   9.2644161  99.7580528  87.6390934  19.6990490  78.8127661  76.1125660
  20.5643964  79.2034006  75.9908581  19.6311665  78.1593466  75.4163885
  23.9744592  63.4460163  61.5496683  23.8426065  62.5009632  61.6252708
  23.1701469  63.8288546  61.9000244 108.0044136  32.9866207  20.6621095
 107.6801238  33.8670242  20.8517095 108.9208731  33.0044067  20.9378263
  23.9400172  64.7016191  90.9449959  23.7279510  65.4383278  90.3718281
  24.8904276  64.7456598  91.0499477  18.9015496  83.7561035  30.5719924
  19.5934868  83.1134701  30.7284331  19.3428516  84.6032143  30.6344199
  64.6444225 103.4187222  15.4743731  63.9178419 103.9697552  15.7653594
  64.8744678 103.7619495  14.6109462  41.6097145  13.2806119  49.4619989
  42.3583673  13.7207803  49.8644924  41.9832163  12.5018987  49.0492678
  65.1362424  10.4343900  43.8739300  65.1930528  11.3873586  43.8042593
  64.2184787  10.2640256  44.0858603  19.3574095  83.7554741  47.3137140
  18.8473630  83.2560730  47.9514313  19.2269647  83.2916164  46.4866400
  45.0380850  94.6007919  41.9186974  44.2082739  94.9944973  41.6491652
  45.6644583  95.3242874  41.8976545  16.0631562  63.1793487   2.2020742
  16.7137481  63.8577259   2.3831006  15.8531905  63.2902038   1.2747880
  47.4502563  89.0410423  68.4026194  47.2206831  89.7928429  68.9488029
  47.4621201  88.2998085  69.0081501  58.5559397  11.7980489  57.9740334
  59.1879635  12.1813306  58.5822010  58.9376526  11.9439229  57.1084404
   0.1422406  50.5416763  12.4434015  -0.3838967  50.3134811  13.2097837
   0.7367350  51.2238682  12.7555200 104.2556771  74.7568035  55.1620054
 104.0096583  74.7209263  54.2376566 103.6342784  74.1737413  55.5980492
  51.7920780  79.7230864  48.8550520  51.4881468  80.6263924  48.9438677
  52.0145273  79.4564247  49.7470379  13.1280184  80.7184505  59.4053555
  13.6302423  80.4822922  58.6254597  12.3664212  80.1389980  59.3843365
  43.6677885  76.5326881  69.9415541  42.8397131  76.7286873  70.3798580
  44.2942142  77.1443462  70.3284597  24.2798686  82.5997162  65.2214766
  24.1769934  82.8003407  66.1517429  24.9248600  83.2344437  64.9094725
  65.5605058  10.5069646  60.4946327  65.3633051  11.4029225  60.7677698
  64.9014096   9.9713906  60.9362078  22.8781601  16.3414391  56.7417955
  23.6510178  16.8060883  56.4208317  23.1239983  15.4169091  56.7096281
  92.8246710  52.5938213   8.7160894  92.6526997  52.0260132   9.4672509
  93.7697909  52.7434528   8.7403699   1.0445739  44.1958416  12.4242421
   0.5868317  44.3128002  11.5917608   0.5104090  44.6717155  13.0601999
  22.8182220  82.2029114  69.7714758  23.1460929  81.3043690  69.7345161
  23.2253838  82.5744438  70.5540466   6.7957974  35.7972038   3.0578157
   6.9190599  34.9158085   2.7054426   6.2448693  36.2386883   2.4114343
 107.5794253  42.3315895  19.6972104 108.4641204  42.6725758  19.8286649
 107.4313459  42.4068535  18.7545415 109.8506924  87.9151154  66.6335630
 109.3270139  88.1133461  65.8572292 110.6951425  88.3335495  66.4660978
  24.4063044  76.9608545  77.6563740  24.9695945  76.2724876  78.0100489
  24.0124631  77.3680496  78.4279442  32.5617003  53.8799906  48.9775419
  33.0472112  53.7810755  49.7965193  31.6765165  53.5815048  49.1863155
  89.8276572  19.0031156  67.4742174  89.7479920  18.9184865  68.4243345
  90.7258849  18.7324056  67.2841263  30.5575395  94.7074318  85.5644035
  30.7074738  95.6126785  85.8369637  29.6294975  94.5544052  85.7420349
  34.8631668  95.2973175  53.6763334  34.4058895  94.6901131  54.2580843
  34.8991656  94.8418903  52.8351879 109.3529043  25.7367027  25.6644555
 109.4667539  25.9051741  26.5998098 109.9022493  24.9724663  25.4901334
  32.0607877  77.0503330  41.6795349  31.5743756  77.3368454  40.9065247
  32.1372437  77.8369427  42.2195578  48.1822495   6.5534982  61.1378098
  48.7109856   7.3081216  61.3970613  48.6380737   6.1913403  60.3780031
  43.2692433  42.5753391  15.2957841  43.8226987  41.7999065  15.2029344
  42.4029685  42.2871578  15.0081273  16.3147795  74.0419054  65.7197523
  16.8590391  73.9660501  64.9360085  15.4166090  74.0391350  65.3888226
  69.3081860  26.8136510  75.7163000  70.1782207  26.9973573  75.3620100
  68.8950233  27.6735219  75.7946682  24.6206498  47.0715714  72.6873446
  23.9402914  46.5164518  72.3063087  25.4057407  46.5239763  72.6849699
  29.5983696 103.4746742  40.1489353  30.2312565 103.6660099  40.8410883
  28.7717843 103.8304234  40.4751730  47.2271156  84.1025352  85.5993080
  47.2599936  83.3134651  85.0584412  47.6577950  84.7738171  85.0700283
  62.2104645  82.2482872  41.3711643  61.8096161  81.6463566  41.9982529
  61.4695740  82.6877117  40.9537697  81.0589223   5.4962453  57.1778965
  81.9096856   5.8472737  56.9148064  81.1835198   5.2221307  58.0865049
  46.5181160  90.3976440  71.4508247  46.3088274  91.2978172  71.2016058
  47.4570751  90.3151226  71.2841558  56.3758068  38.4838971  87.2147942
  56.0726337  39.3166169  86.8529892  55.8421461  38.3549794  87.9989052
  35.7464513  24.2739495  59.8996258  35.2595410  23.6263284  59.3899870
  35.1329987  24.9999341  60.0130320  37.7354097 104.6727180  85.5074787
  38.5164022 104.6282673  84.9558353  38.0531240 105.0079441  86.3458729
 108.9364719  81.8657875  54.8296547 108.8906381  81.3781834  55.6520796
 109.2448994  82.7355766  55.0837612  77.1385913  10.5520924  51.5176010
  77.1041064  10.8790788  50.6186485  76.4127784   9.9306401  51.5744257
  58.1175232  85.0149059  81.6301155  58.4064817  84.5214653  82.3977375
  57.6824760  84.3654251  81.0777187  72.6280408   2.3060903  61.9775105
  72.9425816   3.1640252  62.2625542  72.1031670   2.4901208  61.1984921
  73.5068588   5.8891114  74.9435472  73.4766083   5.5686006  74.0421152
  72.5923281   5.8961495  75.2260637  84.5118425  50.0877560  33.2353326
  84.6604130  50.3525913  34.1430875  85.2165100  50.5101955  32.7441999
  19.3251002  94.0448666  84.8245239  19.3501163  94.2999172  85.7467747
  19.1195393  94.8547554  84.3575478  58.3564234  80.1486397  74.3014860
  57.8315067  80.4461765  75.0445652  58.5827684  80.9512043  73.8315010
  20.5439353  84.5308590  51.8018579  20.7822800  84.8346615  50.9259987
  20.3458810  83.6013985  51.6873217  43.5091019  85.6974506  71.5167665
  44.1707182  85.6655598  70.8257675  43.8101006  85.0618267  72.1660852
  69.8701243  22.7486047  40.9347725  69.0910082  22.6649865  41.4845181
  69.6865229  23.5007485  40.3719282  52.2799079   8.6089620  62.3422575
  52.7329402   9.4518002  62.3670292  52.8893869   7.9972085  62.7552128
  43.1813049  94.2934322  49.0159941  42.8389549  93.4883881  48.6274815
  44.1132355  94.2872906  48.7976027  49.3849087 102.0474434  64.6649933
  50.0819921 102.6792717  64.8413515  49.6942186 101.5556717  63.9042568
  10.7207441  56.8155766  79.6195650  11.0766792  57.6847887  79.8039818
  10.8396828  56.3299370  80.4358006  36.2697554  97.0335484  88.8027191
  36.5990067  97.8560734  89.1650677  35.4138494  97.2582054  88.4377766
  52.7888393  89.9590969  79.0096283  53.6576366  90.3583908  78.9650917
  52.8753233  89.1419983  78.5186100  43.8425636  90.3423977  69.7170687
  43.0387688  90.8594513  69.6641731  43.7515259  89.8403263  70.5269241
  11.4783955  79.9152470  51.8649864  10.5888915  80.2682972  51.8842459
  11.5772545  79.4690704  52.7060461  87.6451115  20.6791314  52.4677277
  88.1968026  21.4549359  52.3677349  87.2006564  20.5910119  51.6245651
  37.4454069  77.9331923  79.3138409  36.9218016  78.4593487  78.7094975
  37.4566770  78.4407425  80.1253223  43.7865114  79.4415140  35.2910089
  44.2032480  80.1280022  34.7701454  43.9935398  78.6300898  34.8273659
  31.1951327  67.0712280  44.4954395  30.3317070  66.9213247  44.1103935
  31.7641425  66.4346647  44.0627241 109.3828063  18.4922322  65.1268291
 108.5892110  18.9041718  65.4685116 109.1266112  17.5865373  64.9527311
  50.0679636  67.4727583  41.1426306  50.6993723  66.7959690  40.8986902
  49.3432188  67.3568249  40.5281925  88.2517819   1.7166146  38.1269145
  87.7483706   2.3830899  37.6593351  87.8467183   1.6744050  38.9931560
  92.5866398  37.7400959  17.9653188  93.2247278  38.4370315  18.1181642
  92.0690498  38.0481804  17.2213956  11.0614479  71.7929268  33.7377262
  10.9662867  70.8607006  33.9330053  11.8926764  72.0390224  34.1435909
  72.8351641  96.9354725  26.7348170  72.1585321  96.3828468  27.1259761
  73.3031464  97.3067284  27.4827409  48.7230062  69.0083981  84.0691662
  48.2048082  69.3606472  83.3455372  48.7980366  68.0736446  83.8772297
  30.9981728  91.4940262  54.3191862  31.3473129  91.0522461  55.0932407
  31.4906073  92.3132801  54.2684698  42.0618773  70.8877611  58.0964708
  41.8323851  71.7587614  57.7725601  41.2225962  70.4358482  58.1837034
  85.0598244  10.1785668  62.9885530  84.7989755   9.4117555  62.4784565
  85.1834349  10.8688744  62.3370695  63.9998536  14.7154721  22.1316934
  64.7683935  14.2763432  22.4960279  63.8144593  14.2408189  21.3214064
  52.5933628  13.4072980  83.8598442  52.3095851  12.8346452  83.1472683
  53.3203618  13.9079865  83.4896851   4.5523783  16.6514691  49.3836212
   5.0415703  17.3005399  49.8892164   4.1488882  17.1537694  48.6757231
 103.7095257  70.4168272  36.9596529 103.0883738  69.6888685  36.9815207
 104.3389287  70.2155113  37.6521516  29.1389823  81.4526558  66.0424805
  28.2933617  81.4518547  66.4909887  29.5764923  82.2435474  66.3576221
  14.1479123 100.9566593  55.8938932  14.5492661 101.3118744  56.6869688
  14.1454268 100.0092411  56.0304117  93.5557275   5.5948457  58.4610367
  92.7121119   5.7729348  58.0453110  94.1817145   5.5826768  57.7370071
  37.4309778  96.4689827  62.6653194  37.3542666  96.1368275  61.7708826
  36.6467834  96.1457539  63.1089306   1.2191344  65.6733883   7.9375860
   1.4462043  66.5489185   8.2508489   1.3845111  65.7057751   6.9953367
 102.5153794  93.5096359  85.6337166 102.1128645  94.2367554  86.1086082
 101.8679889  92.8060627  85.6794930  82.2644048  18.4252747  66.2807035
  82.8457885  17.8253182  65.8135080  82.7950148  18.7578496  67.0046377
 100.6706009  66.4124668  17.3920080 101.1917958  65.6103218  17.3582193
 101.2863383  67.0861996  17.6804277  93.4562072  24.3504179   2.6480981
  92.9393587  24.0144527   3.3803674  92.8837571  24.9899567   2.2243902
  36.7031860  81.5866661  79.9911976  37.1876025  82.1872902  80.5576134
  36.2587166  80.9928608  80.5962372  10.3004229  98.2781696  75.9974527
  10.9311128  98.9797306  76.1595345  10.6752026  97.7826977  75.2692509
  21.6197801  89.3688488  78.5915375  20.8619070  89.6032143  78.0558777
  21.8611765  90.1825809  79.0340281  88.2693820  18.3693799  90.3912258
  88.6028962  17.7701100  89.7234821  88.8988070  19.0904530  90.4018116
  18.0681908  96.6821671  67.5018883  18.3197665  95.9078121  68.0051994
  17.7099526  97.2852039  68.1532288  83.2982211  14.2973432  82.9800320
  83.0291800  14.2477998  83.8973045  83.5249524  15.2176389  82.8463078
  24.7819905   6.3435468  56.3377857  24.3498008   5.8435925  55.6453419
  24.9533109   7.1991071  55.9442139  10.0977540  81.9697189  75.2705717
   9.7349304  82.8524685  75.1975155  11.0429931  82.1041775  75.3389645
  18.0110860  82.9800701  89.8198986  18.9390647  82.8275776  89.6414852
  17.5521028  82.4803257  89.1447544  61.1479759  77.4304152  50.1211691
  62.0400858  77.7740955  50.0737047  60.6423521  78.1323957  50.5308151
  46.7453384 102.8628445  63.9447737  46.6368389 102.4875641  63.0709171
  47.6713991 102.7318001  64.1484261  23.8200545 102.6298046  69.7740984
  23.0463219 102.1257591  69.5220900  24.1007447 102.2398567  70.6019783
  64.9646239   2.1075925  40.2844572  64.9030356   2.2837933  39.3456316
  64.4938497   2.8325566  40.6956005   8.3726138  60.4284763  70.7007885
   8.3793128  61.3183928  71.0532665   9.1351438  60.0077820  71.0980225
  30.5088735  64.7708130  52.8032827  31.4097190  64.8131323  53.1240892
  30.0459194  65.4457712  53.2996082  47.9338074  83.6362553  64.4318962
  47.1756363  83.9831352  63.9617062  48.6797762  84.1137505  64.0688992
 103.7934830  84.1420937  61.3575220 104.3284550  83.3627892  61.2068033
 103.1465497  84.1285992  60.6521654  44.3822145  95.4042912  62.7272224
  45.0528288  96.0142612  62.4199200  43.9796543  95.8473110  63.4741545
  62.2288017  11.6917809  90.2398109  62.5348549  12.5885495  90.3753090
  62.9464297  11.1433324  90.5567455  46.4333820  80.3724861  57.9527140
  46.3796711  80.9491158  58.7148476  47.1046638  80.7702255  57.3982716
   7.7957059  58.1424892  20.1316663   7.7309943  57.6003349  19.3454667
   6.9370700  58.5588158  20.2068540  50.1921654  85.6828308  56.9960976
  49.8010921  85.8068085  57.8609228  50.0602627  84.7543335  56.8044615
  25.6486917 101.6742897  79.3932295  26.0751104 100.8301544  79.5410204
  24.7818089 101.4488792  79.0556860  39.2952395  33.8562191   0.7614919
  38.7373687  33.1291378   0.4851552  39.1848422  34.5163238   0.0771638
 104.1167435  35.8009136  23.8976499 104.0544614  36.6248596  23.4144708
 104.9154386  35.3894318  23.5674878  65.8441477   8.1168851  76.5132570
  66.2616687   7.3518762  76.1174345  65.5896501   8.6626538  75.7692099
  48.1905746 100.8307266  56.1789608  47.7627230 101.0634995  55.3549528
  48.9876556 100.3718948  55.9137058  73.6434655   8.8121327  75.7128382
  72.8984670   9.1909512  76.1794281  73.2652716   8.4502515  74.9114323
  35.0030613  95.2629471  63.7584734  34.9114656  94.6220589  63.0534124
  34.3126130  95.9042454  63.5904074   1.8828951  78.6040497  51.2035322
   1.3747247  78.7892962  51.9932652   1.3552710  78.9622259  50.4897022
  18.6890757  72.0108891  75.9836388  18.2576835  71.9588137  75.1307487
  19.4939280  72.5009346  75.8154297  17.1795512  45.2747810   2.9018899
  16.2977601  45.1761043   2.5428125  17.6982976  45.6150616   2.1729490
  68.5610680  31.5632924  57.5548553  69.1927485  32.2794351  57.6207256
  67.7314548  31.9938954  57.3485661 110.6596241  84.5831955   2.7728864
 110.9337959  84.1301430   3.5702535 110.0594315  83.9726437   2.3448297
  79.8327832   5.4478272  76.4193678  79.1959433   4.7383412  76.5048027
  79.3192582   6.2464913  76.5404463  17.7954280  73.1155825  71.9057798
  18.0031753  72.1972990  71.7330790  18.3919942  73.6064863  71.3406658
   9.3952012  75.4570627  81.8449879   9.5253390  75.5160284  80.8985138
   8.8033313  74.7135544  81.9595146  18.6840904  52.3256779  58.7402487
  18.7108099  52.6081848  57.8260756  17.8141820  51.9407511  58.8466549
  70.7023220  23.6076554  89.3672562  70.3123693  24.1908559  88.7160587
  69.9918227  23.0159577  89.6148682  54.9417643   5.3389939  29.6477222
  54.1888933   4.7513970  29.7121477  55.4287534   5.1941308  30.4589510
  40.4897213  88.2252026  83.7559319  39.6525359  88.2661915  84.2181778
  41.0948038  88.7156105  84.3123436 107.8105173  64.4580067   2.2747823
 108.3627042  63.6784161   2.3343965 108.4277758  65.1895893   2.2786542
  42.0065832  88.3216667  51.2799406  42.8236818  88.1789494  50.8022213
  41.5836477  87.4630642  51.2929487   3.5121781  94.0823650  38.4905314
   2.8505898  93.4262276  38.2713914   4.0602425  94.1405296  37.7079248
  21.0504270  91.4148331  50.8424568  20.3719234  91.5050030  50.1733255
  21.6834188  92.1024990  50.6358910  46.4130116  98.3021927  50.1195765
  46.7786407  97.4184895  50.1596642  47.1296978  98.8709068  50.4009199
  35.6528783  79.6239233  61.0413456  34.7657943  79.8044872  60.7303667
  36.1111093  80.4600620  60.9569263  18.2201100  53.6511696  14.3643686
  18.1431581  54.5351112  14.7234556  18.9809037  53.2773960  14.8090383
  19.8138619  51.8373764   4.6157476  19.2848445  52.6185406   4.4540330
  20.6798650  52.1770656   4.8413297  47.3472118  91.9292736  65.8611202
  46.6079235  91.6559029  66.4042139  46.9517660  92.4530506  65.1643324
  81.4252810   6.6735944  61.6120720  81.1106496   7.4758538  62.0287466
  80.6324582   6.2429055  61.2924337  94.4886451   0.4247197  58.1715250
  94.3517213   1.0567387  57.4658108  95.3379731   0.0285443  57.9767942
  39.9468303  82.5215530  49.5096636  39.8601937  81.6297817  49.8465109
  39.0589166  82.7665234  49.2492151  37.0500207  51.0536528  63.5256624
  37.1337509  50.7803440  64.4391870  36.2039328  50.7030630  63.2473564
 102.2746095  37.2711933   9.2170163 101.8889246  37.8566349   9.8687383
 102.8793296  37.8261936   8.7245485 105.4903178  28.7706574  52.6777697
 105.0301699  28.5050401  53.4739780 105.1511578  28.1870183  51.9991159
  29.2920303  54.7712278  57.4399042  28.8326144  53.9591837  57.6538038
  28.8233638  55.1188278  56.6811180  79.8018460  15.9276685  69.4249058
  79.7374682  16.2047299  70.3388691  80.2421145  15.0785645  69.4624710
  37.5931072  89.6893501  54.3893862  36.9560575  89.4119549  53.7310123
  38.3751321  89.1711712  54.1992426  55.9220028 104.4654179  31.2387872
  55.0055599 104.7040462  31.3781452  56.3339138 105.2702332  30.9243917
  43.0500174  82.3854065  55.1862431  42.1197319  82.6097870  55.2075338
  43.2967567  82.2992802  56.1070728  25.9009981  90.8296776  46.8711758
  25.0748515  90.7619572  46.3925028  25.9573698  90.0136280  47.3682880
  68.4946089   6.3133344  43.7156820  67.6903133   6.6079530  43.2884359
  69.0651874   7.0818433  43.7081194  55.8671522 101.9226456  45.0794125
  55.6105947 101.2391281  44.4603634  56.2461805 102.6109123  44.5327282
  78.5278559  94.1968918  86.3359356  77.8209305  94.6705151  85.8975601
  78.4430265  94.4396114  87.2579575   2.2905541  39.9088562   4.1813394
   2.1071673  39.2146957   4.8143884   1.5460611  39.8874939   3.5800859
  65.0484614  23.2004365  65.3197002  64.4645076  22.8320130  64.6567583
  65.7993369  23.5259160  64.8232317  48.1223636   1.8971261  81.6025448
  47.1754782   2.0188435  81.6720009  48.2252889   1.0082444  81.2626457
   6.7562581  52.7733124   5.3679582   6.7503882  52.2301472   6.1560937
   6.0360004  53.3904159   5.4969808  18.6705220  93.6926556  87.5573635
  19.6080613  93.8798428  87.6044083  18.3331037  93.9416122  88.4178257
  64.5878172  78.6664248  59.5648193  65.4420042  79.0917110  59.6405554
  64.6761370  77.8596020  60.0722313  22.8691484  74.7839439  18.3725854
  22.2953750  74.2213810  18.8927194  23.5499145  75.0631798  18.9848062
  99.6956448  13.9011868  82.8414249 100.5443625  13.9079102  82.3988628
  99.7484021  13.1637677  83.4494209  24.2483735  91.7901611  72.6623869
  23.6478925  91.9649124  73.3870363  23.8137603  91.1081314  72.1503401
  49.3682289  74.7137403  40.1777220  48.7020254  75.3880882  40.3106308
  49.8695278  74.7083044  40.9931374  83.1279759  31.8920239  51.8200159
  83.9082484  31.3453111  51.7277336  83.4586577  32.7895364  51.7832184
  61.7944288 102.0268726  32.7452183  61.1279869 101.3593102  32.9078650
  61.8080950 102.5516701  33.5456133  12.7104235 102.1783829  45.8122921
  11.8451107 102.1854019  46.2214565  13.2631981 102.6789093  46.4124203
  57.5500011  86.5705109  58.7991381  57.7912235  87.1814632  59.4954014
  56.7510080  86.9395924  58.4228182   5.3289891  60.7561386  11.9545289
   6.2177707  60.5024708  12.2034284   4.7633220  60.2511299  12.5386735
  40.3749323  61.6311884  73.2592440  39.9486756  62.3754549  72.8342724
  40.0684452  60.8679914  72.7695227  77.4282889  10.1108846  32.2856951
  76.7717771   9.4359788  32.1132731  77.3675732  10.7014665  31.5348530
  68.6250734  85.1407433  46.1295652  68.5329103  85.5671310  46.9815779
  68.9552307  84.2658615  46.3340282  41.7957544  55.0782156  62.1294880
  42.4963284  54.4682026  62.3603964  42.2189760  55.7274342  61.5676785
  41.3274050  85.7684326  50.8406115  41.2544298  85.1199532  51.5408754
  41.6697884  85.2770901  50.0938892  47.8470564  85.1124096   8.5767591
  48.4172726  85.8572292   8.7673420  48.4167242  84.3475437   8.6585832
  17.5306380  84.2633247  76.2009001  16.6614830  84.6041489  76.4121771
  17.3891556  83.3307266  76.0382032  98.9794688   7.1541413  40.5234289
  99.7009377   6.9239434  39.9380016  99.3442302   7.0564183  41.4029932
  21.9290973  37.6413525   1.7891141  22.6147080  37.9172600   1.1808034
  22.0349694  38.2170952   2.5464460  85.0747065  11.9900044  86.2440872
  84.1919761  11.6201028  86.2303066  85.1766400  12.3985585  85.3844833
  92.0554447  98.0231476  87.5492573  92.3883820  97.2458744  87.1006489
  92.5239563  98.0370998  88.3838463  42.5279332  36.3315094  14.8142263
  41.6110135  36.6038025  14.7775766  42.8922750  36.8161095  15.5549356
   2.7034464  62.5251341  62.5646877   2.8592625  63.2157803  63.2088614
   3.5673714  62.1435499  62.4089289  29.0897512  74.5744944  51.2760401
  29.1823912  74.6756029  50.3287125  28.1703424  74.3404913  51.4031649
   7.9310644  75.8097458  52.3438740   8.8468236  76.0162210  52.1568298
   7.4469507  76.5822363  52.0521116 103.1324324  78.6638916  10.0400373
 103.2431612  77.7194012   9.9308606 102.2555098  78.7608993  10.4112932
  49.0005779  95.9941101  80.2238655  49.5993757  95.2516747  80.3042316
  49.4994974  96.6530323  79.7410393   5.5805665  91.0886574  88.4201241
   6.2187696  90.3783512  88.4863567   6.0602111  91.8033123  88.0012608
  36.4091778 102.0890617  67.9384899  35.8865738 102.6270771  67.3438025
  36.1981368 102.4220562  68.8107300  66.2204552  85.0061798  85.2275181
  66.2106371  85.9232807  84.9535275  65.2962112  84.7682858  85.3010941
  21.6910052  94.0416431  60.4081488  21.6802001  94.9574757  60.6863022
  21.9773579  93.5591507  61.1836720  22.3224688 100.5552387  50.8646345
  22.8012562  99.7553539  50.6474066  21.4620376 100.2490044  51.1511850
 101.6326432   8.1372460  62.5369024 101.5964799   9.0888699  62.4402618
 101.4494233   7.8003034  61.6598988  46.9096522  22.1803674  69.3467379
  46.8804620  21.2373933  69.5085764  46.8461625  22.2621354  68.3951521
  73.5674699  29.2862881   5.1594850  74.2919065  29.7601688   4.7509977
  73.9156048  28.9974487   6.0030481  47.7406979  97.4275112  82.5826168
  47.9409838  96.5773773  82.1909618  47.4653864  97.9720879  81.8451405
   5.8429910  66.1341179   7.3359891   5.7019378  66.5014542   8.2085725
   6.2764503  65.2958668   7.4962064  44.9599075  93.3007336  70.9645939
  44.2785931  93.3511066  70.2941418  45.3788567  94.1611671  70.9454632
  52.5622749  65.8858299  76.0886145  52.8402281  65.0025320  75.8462000
  51.7168379  65.7610178  76.5197611  88.3546254  16.8307627  24.0038797
  88.9292273  16.5606535  24.7201940  87.4745247  16.6040790  24.3043348
  92.7649364  30.7326305  25.3969880  92.1677909  29.9891937  25.3136464
  92.2023127  31.4645756  25.6498739  81.8035412  65.9762907  19.0738738
  82.3897362  65.8462954  18.3284152  81.5970993  65.0909328  19.3734658
  10.3408051  96.6140366  66.2738609  10.9765458  97.3248768  66.1915636
  10.7424819  96.0038853  66.8924093  37.7932072 101.0969925  57.3588324
  37.1408820 101.6011715  56.8725109  37.6016831 100.1847076  57.1413660
  48.4330416 100.7617092  82.8428745  48.3816671 101.0596848  83.7510586
  49.0121365 100.0001526  82.8730679  66.5207701  25.2685841  85.9439278
  67.1406131  24.5642194  86.1333752  65.7384877  25.0407800  86.4462948
  57.7404308  92.2804165  37.0668244  57.1500874  91.7161942  37.5662065
  58.5700941  91.8033504  37.0495152  76.8327951  98.2483196  63.4744883
  76.7745781  99.1895199  63.6387777  75.9223270  97.9575825  63.4220219
  65.7535415  99.6410922  23.2924672  66.4993195  99.8377875  22.7255842
  65.4265218  98.7994937  22.9746457  50.5426931 103.7891579  84.1719627
  50.7637501 104.1403389  83.3093834  49.5958900 103.9098835  84.2442513
  38.7987781  71.2144470  85.7293797  37.8460360  71.3020945  85.7004833
  39.1253972  72.1034527  85.5907345   4.0828801  49.3358696   5.2230569
   3.3002187  48.9751709   4.8064348   3.8784505  49.3349541   6.1581727
  41.6574287  97.8791428  50.1687288  42.4921083  98.2632065  50.4371405
  41.2012339  97.6991558  50.9907532  56.3606215  81.8824768  70.3468847
  55.6903362  81.2745380  70.6589222  56.2538624  82.6591682  70.8960485
  59.6415758  82.6936150  73.6476088  59.7687387  82.8254223  74.5871258
  59.2570829  83.5146141  73.3404398  34.7335124 103.0548286  30.7310820
  34.7416639 103.3995152  31.6240311  34.2326880 103.6987782  30.2303410
  33.5899091  85.8423615  50.6529379  33.3641124  86.2958431  49.8407793
  32.7636385  85.4642200  50.9538031  58.4027057  43.0735310  80.2238464
  58.8616876  42.2594365  80.0169086  59.0728478  43.6332807  80.6160450
 109.1105661  76.9671715   0.7272645 109.3563757  76.1495293   1.1600229
 108.4336099  76.7122543   0.1003858  44.5066500  87.4365044  50.5795717
  45.2582407  87.6714325  51.1237764  44.8919582  87.1257782  49.7602892
  64.2203856  85.6014156  64.3660021  64.0869093  85.0187206  65.1135826
  63.4916592  86.2203693  64.4116640  54.9598598  83.9336586  81.9106007
  55.4515982  83.2101822  81.5220070  54.4153166  83.5205173  82.5806808
  87.1538310   6.6726502  79.3226337  86.4507060   7.1266374  78.8581610
  86.9452386   5.7436761  79.2239904  75.4499368  13.6813268  43.0417061
  74.6773391  14.0321359  43.4847116  75.7030968  14.3665131  42.4231100
  63.8048792  92.6042175  57.0193100  64.4610691  92.7493572  57.7009106
  64.3058348  92.5895405  56.2037992  68.1310034  75.9295702  54.8220205
  67.7432060  75.1361990  54.4526911  67.6394844  76.0831785  55.6288958
  43.3851480  98.1906605  53.9460468  44.2421913  97.9503250  54.2981052
  42.7939892  98.1364441  54.6969318  44.2899227  89.5717430  89.0571022
  44.9732447  89.7970867  88.4258175  44.0621614  88.6653519  88.8501930
 102.3405175  14.3668946  57.9168892 102.2643618  15.1202306  57.3312998
 103.2711940  14.1437444  57.9002810  58.0046515  15.0506219  49.6118212
  57.1782284  14.5893010  49.4688702  58.3197098  14.7222432  50.4539251
   0.7437035   8.3638009  76.9674253   0.5136152   7.7452954  77.6607752
   0.6004187   9.2257890  77.3581648  65.0076342 104.5129871  67.2758007
  65.2534914 104.5034027  66.3507652  65.5300140 105.2196884  67.6551628
  91.3277011  25.2226361  60.8665991  91.2384801  25.9818372  61.4426947
  90.8457188  24.5259198  61.3121510  55.6720404  11.2154302  71.5200806
  55.6031804  10.4549226  70.9429216  54.7677116  11.5021619  71.6473770
  69.9883537  27.6829251  71.9117355  69.6175008  28.5644444  71.8713188
  69.2594366  27.1057614  71.6841555  23.3418727  91.4048004  76.9362259
  23.0061555  92.0053482  76.2707424  24.2707372  91.3091087  76.7257881
  31.4067245  89.7758865  74.8273468  30.6645417  89.4571018  75.3409338
  31.5622735  89.0888405  74.1792822   9.3552490  28.5607728  86.5480995
   9.0546890  28.7259587  85.6544495   9.3129631  29.4155225  86.9768620
  89.5526938  21.8050584  83.1792355  89.9509625  22.6275262  82.8943634
  90.2861218  21.1933144  83.2431984  66.0912085  85.0424480  57.6347351
  66.4479589  85.9235382  57.7471447  66.3475609  84.5768833  58.4308290
  29.0978289  86.1238003  80.4915047  28.7185097  85.3077221  80.1653576
  28.7276077  86.8024063  79.9270010  27.9272699  91.8402195  49.0451288
  27.3846626  91.8619442  48.2568789  28.6870289  92.3804092  48.8278627
  31.8968534  88.1723404  84.7961330  31.5483761  88.3517647  83.9228630
  31.6223741  87.2747326  84.9837685  23.4171081  80.5615139  77.9934835
  24.2163992  81.0787582  78.0925846  23.5420489  79.8133516  78.5773325
  17.9365277 103.8441563  90.4053783  18.7447226 103.3472919  90.2781773
  17.8497124 104.3682003  89.6090984   5.9931964  81.9955826  75.6050158
   6.6534680  82.0671844  74.9157095   6.4762133  82.1518135  76.4165068
  25.0812531  80.0759983  69.9401951  25.3666234  79.5663166  69.1818953
  25.7477689  80.7562828  70.0361109  82.1252112  31.8722257  54.5484209
  81.2418656  32.2364243  54.6058130  82.3869471  32.0207414  53.6397600
  66.0878854   1.0965165  72.4217796  66.6986780   0.3787431  72.5889969
  66.5143590   1.8664750  72.7979803  87.2943406  20.0446900  75.9631109
  88.0304103  20.4088792  75.4713869  86.7831282  20.8086785  76.2299633
  94.5824442  64.5166958  11.3504525  93.8617656  64.4225490  11.9733354
  94.1936502  64.9670875  10.6006357  73.5684614   0.3308305  82.5545883
  73.1695895   0.7567510  83.3133507  74.3789820   0.8176335  82.4052429
  15.4580319  98.7980843  73.9500046  14.5973015  99.1031647  73.6631250
  15.2706611  98.1920147  74.6668053  26.9457484  79.0802086  20.2423116
  26.1634303  79.0858066  19.6907827  27.6325275  79.4501198  19.6875688
  49.6818070  23.7787637  84.1224289  49.8840778  24.2982587  84.9005318
  50.3835718  23.1292447  84.0790081  89.4360499   2.1993836  56.3244581
  89.3988328   1.3958272  55.8056641  90.3363995   2.2344026  56.6475439
  51.0749142  32.4215516  48.3055735  50.8470349  31.4989194  48.4198761
  51.8619315  32.5414952  48.8370323 102.6375470  82.6214016   8.4023115
 103.4399972  82.9909027   8.0338308 102.3600683  83.2592667   9.0598508
  80.2808189 104.4011784  80.8440018  81.0386944 104.9834442  80.7909775
  79.8903894 104.4361019  79.9707413 101.8555312  12.5835618  60.3768349
 101.8697934  13.4647473  60.7503700 102.4483924  12.6316937  59.6268797
  99.7009997   8.7612447  69.8179722  98.8959269   8.7812432  70.3353548
  99.8666339   7.8304013  69.6685648  46.4107609 102.4563885  49.6629047
  45.7101727 103.0862236  49.4934559  47.1933413 102.8626633  49.2904282
  95.6757407  16.4206609  70.5113125  96.6038041  16.2644776  70.6860638
  95.6637864  16.8748769  69.6688271  94.7535758  23.6665067  60.1772976
  95.5733065  24.0649804  60.4696846  94.2022281  24.4082173  59.9280930
  68.4474377   6.7979249  55.2767897  69.1827254   6.3416966  54.8675871
  68.7411623   7.7057752  55.3526640  54.1306067  82.6720524  53.7381506
  53.9469576  82.4877071  52.8169966  54.9456406  82.2035503  53.9183044
  75.2250056   8.7151059  31.0477686  74.5138316   9.3367871  31.2026024
  75.6282716   9.0109166  30.2316165  91.3017850  30.4599008  61.8905783
  91.1830239  31.1010560  61.1898279  91.6429858  30.9690865  62.6257944
  44.7865772  97.9203224  75.2524948  44.2324305  97.1798706  75.4992294
  44.1807604  98.5568619  74.8729563  59.7180848  27.9204759  46.1436081
  59.2526250  27.1292313  45.8724833  60.6285624  27.6414212  46.2405109
  66.7027597   8.5929498  44.9838972  66.1984997   9.0621289  44.3192053
  66.2910228   7.7301797  45.0321674  84.9353652  35.2967748  55.5547619
  85.4828124  35.6622800  56.2496996  84.1323619  35.8169373  55.5838490
  11.5896380  99.2152309  55.5712891  11.7679334  99.8688126  56.2475061
  11.5619195  99.7157192  54.7558260  42.0046091 101.6452217  67.4816608
  42.3176908 102.0141029  68.3075714  42.7845383 101.2634182  67.0789528
  92.9333119  23.8763150  38.4799433  93.3691983  23.7165269  39.3170261
  93.6327891  24.1752156  37.8988910  70.5840235   6.2821397  53.7726212
  71.1258821   6.3216313  52.9845476  71.1995201   6.4156922  54.4934273
   3.1340309  49.6873101  43.1225729   3.4250685  50.5882749  43.2633114
   2.6652285  49.7145757  42.2884798  37.5892495   3.8723763  50.5179214
  38.0942354   4.5265683  50.0349569  36.7523327   3.8266667  50.0556278
   7.3831936   8.7966451  43.9147186   6.6609188   8.2001981  44.1116953
   7.6986309   9.0822038  44.7721481  55.4875820   2.6737412  75.9074926
  55.8471994   3.0989465  75.1289606  55.5785196   3.3272942  76.6009188
  66.5844230  10.2041921  69.6322823  65.8454494  10.3727921  70.2168560
  67.3063044  10.7087907  70.0071144  92.5188737   7.9392442  53.3827066
  92.3673396   7.9498395  52.4376345  92.6906352   7.0201119  53.5874510
  50.9044218  89.5937347  81.0048199  51.3072491  88.8353443  81.4276600
  51.5494442  89.8774433  80.3569794  17.3846638 103.8406754  80.7760906
  17.8228366 103.8905621  81.6256523  17.3355675 104.7490215  80.4782200
  80.8151774  21.2551888  74.7186804  80.8548169  21.3426789  75.6710482
  80.0006728  21.6931161  74.4716215  70.1444130   6.9174870  28.3191156
  70.7039051   7.5456342  27.8623629  69.5982938   7.4556264  28.8921714
  90.7334265  58.7334812  19.2150518  91.6484687  58.4613979  19.2850133
  90.2335498  57.9263389  19.3369790  18.7078416  99.9214649  90.7145405
  19.3270898  99.2447472  90.4410076  19.1490841 100.7462025  90.5112267
  69.9065065  89.3268871  55.1015663  70.0692654  88.4928989  54.6608734
  70.6468678  89.8790836  54.8502254  78.9765792   9.7255048  58.6088800
  79.2776875   9.0330037  58.0206585  79.7564368  10.2554044  58.7739944
 105.1078114  57.3000515  11.9189569 104.9942717  56.3906277  12.1951600
 105.0089488  57.2754276  10.9671899 103.6736807  56.4070022   1.9679757
 102.9232654  56.2994182   1.3835737 103.4605155  55.8719242   2.7324888
 100.4480271   3.8076219  24.4415593  99.7251706   3.1923875  24.5648623
 100.9908633   3.6989602  25.2224255  30.7492638  90.9820175  50.5648327
  30.2714467  90.4882812  51.2312794  30.0747633  91.2669086  49.9482965
  78.0038214  82.4282074  56.7526674  77.3641539  82.8102112  56.1517239
  77.4755096  82.0441628  57.4523973  29.7287440  98.4850407  79.0589428
  30.1480532  99.0018654  78.3709717  28.8659000  98.8851452  79.1668653
  31.0491900  17.1154031  84.6468639  30.1440613  16.8086728  84.5930862
  31.4882927  16.4699754  85.2007961  64.5611315  10.9642419  71.5511608
  64.0475254  11.6163167  71.0744524  64.0353732  10.1656350  71.5061426
  84.5221286   4.5427236  55.2030230  85.4046826   4.8479661  55.4131651
  83.9425902   5.1816377  55.6179476 105.8577736  92.5072575  61.0037756
 106.2585052  92.2093868  61.8204260 106.1228397  91.8551636  60.3551292
  88.9994058  35.9195316  16.3091203  89.2613253  35.6329334  17.1840402
  89.4913540  36.7278183  16.1645814   7.4847556  90.6177795  33.4041520
   7.3994685  90.8672703  34.3243238   8.3671475  90.2532089  33.3356401
  10.4390049  92.6260376  80.2089405  10.2640629  92.4565411  81.1346340
  10.7094479  91.7779255  79.8570967  35.7546187  22.0490826   1.0486337
  36.0422946  22.9266394   0.7969209  35.5836392  21.6055668   0.2177926
   0.6841293 103.1124401  82.0032692   1.0636684 103.9905739  82.0356941
   0.1252493 103.0642796  82.7788734  39.0031886  95.1685143  67.3790836
  38.8229704  94.2863750  67.0541382  38.2269573  95.6750393  67.1400595
 101.0828690  32.8184136  90.3701115 101.5682845  32.0271787  90.1365376
 100.7222371  32.6310834  91.2367630  91.6161346  97.5733185  56.9200325
  90.9899807  97.3307037  56.2378979  92.4282551  97.1345329  56.6667175
  67.0848370  94.2559242  81.2954712  67.8357792  94.8228741  81.1197186
  66.9533014  93.7728596  80.4796410  84.7873978   5.6037816  62.5710678
  85.1965813   4.7551545  62.7402830  84.1354279   5.6980523  63.2655287
 110.0837335  73.7241161  12.8471013 110.5400214  73.5605991  13.6725160
 110.1680359  72.9042519  12.3603364  80.3892795  53.7392033   3.1174108
  80.4315743  54.3245018   2.3611852  79.7063998  53.1070602   2.8931257
  26.7761804  23.3366526   6.8141290  27.7256681  23.4578169   6.8088838
  26.4783479  23.7432182   6.0003492  80.4095177  19.4168958  38.9661646
  80.7056670  18.5493096  38.6908007  80.7797293  19.5296487  39.8416424
  97.7925114   8.4472188  66.3508558  97.0106654   8.9007386  66.0357857
  97.4796967   7.9060658  67.0758009  23.9148904  60.4635895  14.3014642
  23.5581590  61.3065422  14.0214654  24.4121743  60.1510132  13.5456678
  94.2960744  14.8039540  72.3885822  93.4683757  14.5367440  71.9889021
  94.7009663  15.3790006  71.7392588  16.0679337   8.1249246  81.1048508
  16.8261143   8.7061700  81.1643505  15.6867691   8.3154210  80.2477264
  13.9307166  52.2506225   4.1841909  13.3721496  53.0224216   4.0916654
  13.6773349  51.8710792   5.0256082 105.7223372   0.7937154  75.5834198
 106.5737872   1.1956796  75.7557297 105.4543309   1.1535272  74.7378778
  86.0281043  30.8544644  54.5026922  85.6058030  31.2959298  55.2395725
  85.8465390  29.9253472  54.6441507  90.6669431  36.8844899  61.9310904
  90.2562718  36.3578328  61.2453699  90.7470803  36.2881001  62.6754856
 102.5344376   5.6434068  44.0812969 102.1766906   6.5286073  44.0129900
 103.1396966   5.5720624  43.3431911  80.1617432  90.7631016  41.5739155
  79.3595409  90.4154491  41.9635773  79.9969482  90.7461452  40.6311607
   7.9445792  92.6540077  18.0592271   8.8550855  92.5426281  18.3327218
   7.9324437  93.4961307  17.6043340  68.8271713  96.9330597  66.9872046
  69.5465517  96.3201237  67.1389961  68.2535267  96.4806652  66.3687277
  31.6063452 101.7118263  48.6877203  30.8907795 101.6227818  49.3172216
  32.3928380 101.4900017  49.1861725  66.5840912  87.5774288  88.4887695
  65.9143114  87.7932739  89.1376400  67.2758055  88.2227516  88.6347771
  90.5187035  95.4575920  52.7575207  90.4826355  94.6567249  53.2805347
  89.6134853  95.7676697  52.7315617  88.7515549  13.4777936  47.4352455
  89.6556907  13.7118539  47.2255182  88.4355693  14.2024621  47.9749107
   2.5012780  18.6830604  28.2494088   3.0421449  17.9832399  27.8834268
   2.9309608  19.4904364  27.9670163  15.8721066  98.5243988  52.2961998
  16.2713170  98.7023163  53.1477928  16.4989376  97.9530430  51.8525076
  75.0138645   4.8780831  69.3902254  75.4596953   4.0675649  69.1441917
  74.4934754   5.1083287  68.6205435  94.2292266  18.8653573  71.3517666
  94.0088849  18.1330308  71.9274187  95.0402789  18.5956582  70.9208488
  80.1817608  93.0901241  74.2682552  80.7194042  92.7271271  74.9721098
  79.6664143  92.3475647  73.9532185  91.1106305   5.8700379  57.1501207
  90.4599147   6.4440450  57.5542355  90.7892184   4.9850091  57.3223543
  19.3618071  62.9584980  82.7921295  20.0867367  62.8864431  83.4130287
  19.3751478  63.8741732  82.5135708  87.0680909  12.6931294  59.3728399
  86.2240224  12.8790482  58.9614820  87.6301389  13.4203919  59.1056013
  67.2738581  36.3831815  77.8026104  67.2500830  37.0332917  78.5047626
  68.1588321  36.4501580  77.4440527  89.8940945  97.9326057  71.2370729
  90.7691574  98.0601120  71.6034555  89.5437527  98.8180733  71.1399412
  48.6453943   2.3028668  52.6247931  49.3552713   2.5901517  52.0505333
  47.8476469   2.5964555  52.1847486  44.5159245  86.6389656  56.1913061
  44.5723677  86.0524082  55.4369926  45.4001570  86.6435528  56.5578365
  97.3593697  38.3526791  12.3478338  96.9582758  38.3717525  11.4789316
  96.6427765  38.5616100  12.9470559  66.4207964   6.4134320  49.3177128
  67.1792822   6.8179521  49.7387791  65.7722192   7.1155747  49.2669964
  64.0656090  99.5814705  46.1562824  63.2280970  99.7348881  45.7189369
  64.7236586  99.8401928  45.5110979  26.0269071  45.2224529   4.6421453
  26.0216046  45.0760544   5.5880662  25.9514619  44.3464554   4.2637655
  89.8567777  11.1440476  90.4919815  88.9675860  10.8030805  90.3954697
  90.1280026  11.3615521  89.6001434  63.6442280  92.6130676  60.8802891
  63.7416172  91.7859936  60.4083920  63.1847477  92.3764706  61.6859722
  52.2210121  83.9776039  64.7205448  52.9923344  83.7391376  64.2063189
  51.7200518  84.5568657  64.1463327  76.5045767   1.4116200  68.3618879
  76.9154577   0.7720670  67.7801847  76.3714890   2.1841725  67.8126287
  40.3004600  58.2692135   3.2080957  40.4699088  58.8481033   2.4648496
  40.3187800  58.8471783   3.9708825  49.3470478  94.2710876  52.0481777
  50.2075291  93.8718987  51.9199228  49.3856859  95.0883293  51.5513182
  79.8291302  86.3091183  52.1233320  79.1692305  85.6961632  51.7992067
  79.3768930  86.8117428  52.8008842  94.5838694   9.9519547  59.1251659
  94.0523677  10.5274114  58.5750818  95.4865556  10.2130135  58.9428473
  72.5183968  23.4807500  25.0954175  72.6596455  24.4051656  24.8911214
  72.0026355  23.1491097  24.3604064 106.7887168  20.0094708  59.1805696
 106.1086945  19.4138822  58.8658047 107.1775346  19.5553788  59.9281359
  74.0596437  75.5161810  71.8980455  73.1110907  75.5110502  71.7697668
  74.1734838  75.4497719  72.8461313  48.2173729  98.4620380  63.2155848
  48.4884167  99.2703056  63.6508846  48.6633205  98.4848309  62.3689175
  37.7144719  92.6389301  23.5128614  38.3615638  92.1404255  24.0118619
  36.8696548  92.3217953  23.8321515   7.2089435  80.9662903   1.0289689
   7.7962829  81.0420406   1.7809793   6.3334943  80.9167469   1.4128419
  64.0591669  76.0992527  72.9909086  63.8285875  76.8436813  73.5466909
  63.7103844  76.3267231  72.1290255  76.8780546  34.4321450  34.2598271
  75.9424763  34.2507943  34.3494701  77.1704297  34.6280011  35.1499915
  53.4308958  97.1605587  79.8377848  52.6838684  97.3557281  79.2720222
  54.1864538  97.1747684  79.2502785  65.8814907  78.6314011  91.0970974
  65.8494997  78.2140160  90.2362823  65.8273935  79.5687675  90.9109306
   2.1383377   8.2530984  66.7047691   1.9397732   7.3253735  66.8317556
   1.5547129   8.5283669  65.9977674  73.3502798  11.1411771  71.8614721
  74.0941362  10.5784425  71.6464329  73.6238627  12.0158299  71.5851116
 103.5856442  16.5644559  61.3360929 103.5544782  17.4777039  61.0510778
 104.4374375  16.2484368  61.0347462  87.3178534   2.4895772  77.2120667
  86.6601233   1.7965039  77.2693300  88.1503491   2.0430669  77.3663568
  64.2747526  16.3190946  43.5135555  64.5610456  15.9974297  44.3684244
  64.9231415  15.9754762  42.8989363  70.1541755  96.9986752  32.8464007
  70.3275055  96.8883065  33.7812829  69.4364304  97.6308665  32.8088760
   8.3622634  37.4720883  67.1620131   8.3833796  37.9858780  67.9693556
   7.4680656  37.5745583  66.8362188  97.4312564  32.0726442  46.1240530
  97.6393434  32.7075171  45.4385853  97.2100874  32.6073170  46.8865776
  80.6092819   0.2992316  40.3906012  81.1479004   0.7067731  41.0688591
  80.0319775  -0.2960457  40.8687210   5.8381426  29.8259687  44.2002058
   6.2014234  28.9596367  44.3838549   5.5566299  29.7788715  43.2865524
  14.1783297  10.0450826  53.5950136  15.1057208   9.8133355  53.6447191
  13.8130915   9.7518110  54.4297743   1.8136242   9.3657404  41.0422325
   0.8618873   9.4501406  40.9847450   2.0291339   8.6623925  40.4297876
  42.8413277  73.4049372   7.2052976  42.9996078  74.3476132   7.2557184
  42.6579724  73.1442431   8.1078740 106.9794252  11.6595209  31.1290312
 107.1147253  12.5812650  31.3488388 107.0765331  11.1979210  31.9619346
   7.6321858   2.2481360  42.1620989   7.8522152   1.4746174  41.6429806
   8.4065455   2.8072405  42.0988512   3.5813951  25.6745291  65.5301571
   2.9813656  25.7402182  64.7872686   3.1278551  26.1217952  66.2446356
  32.2079110  63.0588675  37.1452212  31.9823647  63.6194992  36.4028907
  32.0012593  63.5874271  37.9160333  94.4236854  99.9533874  28.2680964
  94.4384459  99.0048650  28.1403470  94.2021636 100.0671658  29.1923332
   4.2660016  24.1718841  85.3288364   5.0410873  23.6114335  85.2918339
   4.6124876  25.0630641  85.2843666  21.4772320  70.8830929  72.7222157
  20.6029296  70.5223846  72.5748444  21.7907381  70.4372787  73.5091066
 107.5656935  60.0681257  64.3903542 107.7722015  60.2749777  65.3018379
 107.4460181  60.9209061  63.9724112   5.1658666   5.2311122  24.1935301
   4.5825484   4.8545003  24.8524213   6.0113311   4.8122296  24.3546486
 107.3876783   2.9372227  75.4069662 107.2749104   3.4277362  76.2211609
 106.8276414   3.3889529  74.7756767  51.1101035  94.9604485  47.0765686
  50.2205685  95.0812671  47.4087715  51.6039184  95.6946543  47.4416971
 108.3305436  35.2652597  14.2348504 107.6898234  35.8354855  14.6597648
 108.1916239  35.4050994  13.2981658  99.4189521  56.7615509  49.2861462
  98.8495740  57.1210289  49.9664497  99.5587393  55.8512878  49.5471334
 109.8358825  84.2318097  18.3468425 110.7186893  84.5854250  18.4556508
 109.2791990  84.8141996  18.8637161  39.7579527  31.2273526  54.7563219
  40.1157331  31.1152244  55.6370354  40.1755857  32.0234871  54.4277096
  62.8405408  99.7744903  69.4654703  62.9743472 100.5407376  68.9076233
  62.0687369  99.9909425  69.9886322  12.7899909  58.4200764  49.7147465
  12.8365529  57.5640678  50.1405621  12.3270249  58.2542086  48.8935375
  38.8348317   3.3843303  39.9641633  37.9536366   3.1402194  39.6810818
  38.7409759   3.5815835  40.8961058  95.2674624  13.0833113  42.1259165
  95.9852131  13.2201231  42.7442598  95.6239780  13.3569348  41.2807798
  14.4897437  11.2242603  75.7264662  15.1224327  11.8452740  75.3655243
  14.9221849  10.8646977  76.5010262  89.3329552 102.1777294  47.2830915
  89.3384722 101.7256242  46.4394045  89.2382768 103.1033104  47.0582151
  87.0689448  20.8128595  40.8380365  87.1190866  21.5944409  41.3883543
  87.6101502  21.0210323  40.0764656   5.0644672  29.0997028  46.5704870
   5.6227094  29.4706893  45.8871365   4.4733858  29.8133087  46.8105268
  10.3440130  54.1449451  71.9003439  10.7051587  54.1253757  71.0141039
   9.6526313  54.8058605  71.8626976  18.3002639  38.1503367  22.3653769
  18.0394256  37.2306657  22.3163724  17.6722229  38.6075473  21.8061304
   9.7483504  22.3284554  68.2302475  10.2485466  22.4357843  67.4212265
   9.6109694  23.2211781  68.5471201  93.7788614  23.0191374  50.2100658
  94.6188136  22.7456212  49.8414183  93.5066303  22.2829390  50.7579088
  34.9187517  21.6321373  33.2059479  34.5699573  21.8935609  34.0581417
  35.7898021  21.2857747  33.3996844 109.3738659  24.4461966  30.6015539
 108.9301326  23.9149761  29.9403882 109.5950501  23.8271022  31.2972784
  15.6056023  12.1156776  30.3941011  15.4618597  12.6663744  29.6244907
  16.4670277  12.3779309  30.7187581 104.3078097  31.7488790  74.2440605
 104.6586075  32.5926661  73.9591074 103.7629267  31.4569068  73.5132504
  86.9579061   5.3896284  25.3529477  87.9123553   5.3488833  25.4129243
  86.6511115   4.7053444  25.9478140   1.0714269  33.6405635  45.1664829
   1.2278228  32.7163744  45.3605175   0.8975562  34.0383172  46.0195923
 101.7676487  13.6888325  78.3010530 101.8393704  14.1061020  77.4425840
 101.5795299  12.7707601  78.1061554   6.8943763  61.6763210  49.0229750
   7.3675299  61.2523031  49.7389126   6.1748528  62.1390867  49.4523525
 103.8544526  51.5480185  84.3585873 103.9168402  51.0902262  83.5202789
 104.2260935  52.4133158  84.1871929   0.3485906  44.5205545  62.9388952
  -0.5721086  44.2587805  62.9344749   0.3258307  45.4769468  62.9067945
 102.4451783  29.0682530  63.9106750 103.1807186  29.6579170  63.7448215
 102.5483169  28.3691883  63.2649899  73.6598204 101.7605794  14.2818391
  73.6234239 100.8130321  14.4124579  73.4449407 102.1289173  15.1388025
   7.7431607  15.1186180  16.6941047   6.9352877  14.6053779  16.6815686
   8.3404034  14.6392381  16.1198854  18.2402086  17.7810049  23.7005305
  17.5449824  17.8640532  23.0478477  17.8256392  17.3299277  24.4359851
   6.0434848  38.7563109  87.4518299   6.8385959  38.2583356  87.2619534
   5.3395730  38.1090784  87.4090481 109.0021447  63.0198041  39.6261549
 109.6173433  63.6080352  39.1882658 108.1458071  63.4260121  39.4923043
  35.0213146  30.2084398  25.4858208  35.6232095  30.0689054  26.2169051
  34.2229795  29.7462344  25.7412791  12.9567063   3.9995414  82.4819279
  13.3447802   4.6680814  81.9174099  13.7006402   3.4754705  82.7788162
 103.3820602  38.3671761  76.4076042 103.2574656  38.3346105  77.3561049
 103.8124319  37.5392962  76.1940050  18.8622391  40.3693247  16.9223237
  18.7052345  41.2560844  16.5979218  18.7603283  40.4399633  17.8714585
  20.9759712  26.7815018  53.6632490  20.9757519  27.4212193  52.9512167
  20.9148312  25.9335423  53.2234097  32.3996973  18.7848973  49.2134714
  32.4118567  19.7419178  49.2274952  32.2592640  18.5337496  50.1264000
 105.9884807   9.9840331  80.6518173 106.2376501  10.6585789  81.2835884
 106.0802790   9.1608715  81.1316204  42.6034307  11.7050672  34.3966722
  42.1910810  11.1427760  35.0524378  41.8943548  11.9304931  33.7944865
  37.9890251  20.1890492  68.7144327  38.0991721  19.4731998  69.3402576
  38.8794756  20.4025984  68.4356403  31.5324664  23.0480051  79.1487455
  31.0220408  22.7399039  79.8975945  31.8803382  22.2497368  78.7512732
   1.6026825  14.2049539  79.6626091   1.0806179  13.9517248  80.4238987
   2.4957752  14.2797577  79.9987984 108.7389597   7.4654919  89.0551949
 108.2842707   6.9886643  88.3608341 109.6671423   7.2961348  88.8938618
  88.5902771  27.2604108  24.3304157  89.1411527  27.1098304  23.5622382
  87.9369005  27.8949261  24.0359330   9.4074148  24.4869685  73.3877754
  10.0815952  23.8407016  73.1778860   9.7653770  24.9741101  74.1299248
   1.9787301  29.7483039  36.1608434   1.6315226  29.1689301  36.8390799
   2.6227322  29.2139959  35.6960773  16.9618130  11.0992920  44.0186787
  17.4253428  11.8723273  44.3408442  16.0713506  11.4070952  43.8496733
  38.5948515  15.1916134  40.0357819  38.1272697  14.4956303  39.5740438
  38.0584288  15.3687525  40.8085108  10.0883210  35.5448127  66.5210247
   9.4821352  36.2650013  66.6945171  10.8569527  35.7447290  67.0553207
   6.1751378   3.7464428  64.5244360   5.7098192   4.5824361  64.5531607
   6.4044356   3.6315241  63.6022377   3.7359643  39.5626903  62.8141594
   4.4616851  39.5204592  63.4368801   4.1573855  39.6808791  61.9628859
  95.3508648  19.2603576  35.3938580  95.1291689  18.4794462  35.9010649
  96.2623354  19.4432771  35.6218767   1.8906128  34.6067047  33.0191469
   2.4827905  34.9381733  32.3441005   1.2352940  35.2966809  33.1226945
  20.4206181  54.4071531  67.3308134  20.1386499  55.0970602  67.9314423
  19.8072684  53.6888981  67.4861956  94.2232374  90.0049976  46.3956976
  93.3753709  89.8093859  45.9968328  94.4624618  90.8616177  46.0418558
  97.5799485  58.2351160  76.6479635  97.1602603  58.4517384  77.4805307
  96.9636365  57.6438570  76.2157583  53.3025459 104.3149540  41.5366316
  53.6732487 104.9102629  42.1881056  54.0490774 104.0563958  40.9961987
 106.0010215  22.8353071  58.7780666 106.1768993  21.9011664  58.6654663
 105.2290811  22.8672814  59.3431473  15.3815162  31.8378854  90.2140141
  16.2341285  32.0143437  90.6116867  15.1783538  30.9387851  90.4720402
 101.8490555  39.8324203  55.0593853 101.3306066  40.2608824  54.3783092
 101.4103457  40.0665855  55.8772659  70.6333480  94.9985615  67.2133398
  70.0815094  94.2927567  66.8763733  71.3549677  94.5491532  67.6532602
  82.1904572  41.4524937  43.6693239  81.5716609  42.1437883  43.9047718
  81.7043074  40.8915138  43.0650139  14.6376288  45.1099157  42.6292610
  15.3268528  44.8342133  42.0249510  13.8735032  45.2544785  42.0711899
   3.8820335  58.4117556  40.5921650   3.9430520  58.9838028  39.8271322
   4.7609085  58.0447054  40.6874800  32.3230316  50.7451630  19.2533418
  31.8311302  50.2535326  18.5956403  33.0875804  51.0766129  18.7823411
 108.4202503  37.4415708  89.0226841 108.6439713  38.1820583  88.4588909
 107.5436028  37.1814179  88.7397671  90.7542816  96.4502129  81.7883968
  91.5988997  96.0007766  81.8177509  90.5328993  96.6042486  82.7068233
  10.5515897  24.5898652  60.0659418  10.4376662  24.3101621  59.1576338
  10.2097929  23.8620949  60.5853224 102.7071073  19.8237693  74.3497086
 102.0576306  20.5052376  74.1764688 102.9753288  19.5223165  73.4817171
  17.5152378  75.9913305  24.2599126  16.6441302  75.6453089  24.0658208
  17.5470309  76.0378555  25.2154561 106.7561587  57.1838236  44.0639448
 107.1721848  56.4171982  44.4582033 106.7104118  57.8235006  44.7745466
  72.3542004  76.4945141  61.1575890  73.0937058  76.1019126  60.6936598
  72.2636599  77.3652807  60.7705498  86.2123863  90.1275567  53.9335585
  85.5998305  90.4417411  53.2685041  86.7354873  90.8965949  54.1597843
   9.5837541  88.4752539  39.7106957   9.4939847  88.2522694  38.7841702
   9.6809097  87.6313380  40.1518297 104.6247534 102.5965344  51.4679670
 103.7969092 102.7878519  51.9087648 104.4118789 102.6261779  50.5352068
  87.9276427  57.4080181  74.8710346  87.3597416  56.6939974  74.5813990
  87.5073632  57.7418852  75.6635809 105.4124560  33.4999967  56.7139626
 105.5932768  33.6288786  55.7828760 104.4578411  33.5275936  56.7786217
  23.2480145  33.6563134  80.0125122  23.7848568  34.3477488  79.6252775
  23.8610888  33.1439424  80.5396271   7.2736639   9.5695990  49.8137856
   7.0578939   9.2840290  48.9260197   7.9446852  10.2414119  49.6928358
  10.4974639  22.9878044  43.4783936  10.7566118  23.7694597  42.9904509
  10.7468259  22.2579527  42.9115009  54.2218666  68.0020265  15.2054426
  53.7253825  68.6114673  14.6592542  54.1843884  67.1709768  14.7319623
   8.5900879  32.5308299  34.2633557   9.0330815  33.3771086  34.3250179
   9.1081518  32.0349312  33.6293793  58.1329446  50.7393014   4.4607469
  58.4081821  50.6686539   5.3747960  58.5072570  51.5678079   4.1612455
 100.5970296  31.2715602  68.3787823 101.0383793  32.1113610  68.5059643
 101.1633988  30.7925344  67.7738094  15.5326247  36.5787387  41.7776203
  14.9069929  37.2073197  42.1377611  15.3485751  35.7634854  42.2442245
   4.6470070  35.9129691  77.1018076   4.0850127  36.3027883  77.7714634
   5.5373251  36.1184144  77.3870420  94.3746825  57.9191017  56.7264986
  94.0881821  57.6109505  57.5862646  94.0784486  57.2418451  56.1183882
  11.5521908  34.9897909  62.2367620  11.1047781  35.3439808  61.4682579
  11.3752270  35.6248188  62.9307795   7.8869838  29.2383718  81.6121674
   7.7840978  30.1835108  81.5009975   7.2269106  28.8559461  81.0339928
  14.1318238   7.1939373  58.8207912  14.0837872   8.1346935  58.6507845
  13.9233732   7.1076995  59.7510290  78.5964950   4.3219939  67.8262329
  79.0770825   3.5179505  67.6292992  77.6942905   4.1306198  67.5700331
  17.8643465  37.1610785   4.6437889  17.7179968  37.5350094   3.7748876
  17.0526016  36.6949034   4.8437440 108.9587136  19.3847787  51.2462234
 109.8131917  19.6587336  51.5794659 108.8144290  19.9346805  50.4761457
  39.5702437 101.3295529  88.0252647  40.0267819 101.0953030  87.2172260
  40.1274685 100.9857312  88.7234879  78.7054936 105.0121719  25.5979490
  79.4546751 104.5495148  25.2225733  78.3472261 104.4034318  26.2439442
 110.0239737  50.0256300  85.3715324 110.1347891  50.2484798  84.4472504
 110.6803500  49.3483639  85.5349731 104.1626265  10.9472573  43.1978464
 105.0289025  10.7627869  43.5608482 103.6241712  10.2057838  43.4744596
 111.2088999  28.2056427  60.8406639 111.3470903  28.3072543  61.7823696
 110.9188167  29.0691328  60.5466080  43.2981157  16.4997566  18.9404726
  42.7007151  16.9665504  19.5248079  44.0492487  17.0858097  18.8478899
  95.9077760  33.7129188  58.8386250  96.0467526  34.6483541  58.6907148
  96.7886110  33.3539033  58.9457226 110.5587414   0.2805680  54.9234343
 111.1566048   0.9490765  54.5889378 110.6807298   0.3034304  55.8725548
   4.3916243  31.5679932  31.8550038   5.2738273  31.5559340  32.2262239
   3.8876158  30.9785485  32.4160433  13.7351239  38.4582734  34.8651671
  12.7935684  38.6271262  34.8997211  13.8203847  37.6920509  34.2978334
  24.3939948  50.7451487  63.8840008  23.7664104  51.1434031  63.2808733
  24.5338511  49.8641491  63.5368586 107.7396270   8.5820317  53.6058426
 107.7815797   8.0725688  54.4151115 106.8713280   8.9845979  53.6209917
 103.4907296  11.9960260  35.2842855 103.8166448  11.4673853  36.0126734
 103.4880372  11.3981223  34.5368004  72.7102499  60.0110320   3.4017488
  72.2505216  60.3456811   4.1717454  72.4361043  59.0961532   3.3379384
  91.3043734  30.8866787  43.3369541  91.5394624  30.0139499  43.6520863
  90.3862866  30.8084416  43.0776739   1.3852574  18.3932674  87.1801567
   2.2598237  18.6518025  87.4708939   1.3733873  17.4407828  87.2743130
  15.4899736 105.0094354  59.3261099  16.4378400 105.1270553  59.2632484
  15.3245492 104.1670862  58.9026546  28.8793683  10.8628905  58.5434628
  28.9233112  10.0984883  57.9690170  28.7762475  11.6047728  57.9474688
  91.1117133  25.1852942  55.3885794  91.6171070  25.4975533  56.1391115
  90.3040370  25.6983900  55.4135132   3.8355762   1.7123677  32.9476690
   3.2917100   1.7951405  32.1643496   4.6769059   2.0935528  32.6964855
   2.7812573  24.5385027  42.5057364   2.2456093  25.3234577  42.3910332
   3.5562631  24.8441672  42.9770803  11.0152173  22.8602862  65.9121037
  11.7112386  22.3844099  65.4589748  10.6537628  23.4464407  65.2472639
   6.7566729  27.0020509  84.0956974   6.1598957  27.4616551  83.5050583
   7.6078665  27.4124646  83.9431763  17.0745218  42.8427696  54.6876907
  16.2530255  42.3562384  54.7559786  16.8254077  43.6795282  54.2952442
  52.3690418 100.2819264  49.3094444  52.2665170  99.9658859  48.4117603
  53.3151201 100.2874855  49.4548225  25.7815695   3.1231710  72.3576927
  25.9053183   2.9625914  73.2931757  24.9364376   2.7217883  72.1555185
   7.1826649  50.9477139  60.1927471   6.6648310  51.3500547  59.4954681
   7.2988856  51.6453362  60.8377647   3.2984295  21.0098672  30.1445961
   3.3120880  20.1975942  30.6508136   4.0138432  20.9124947  29.5161605
   4.4825175  38.8259387  70.8575630   3.6050671  38.4438968  70.8386803
   5.0405186  38.1646800  70.4481649  35.5662012  68.3468103  74.6318293
  35.1495981  68.7372589  73.8635683  36.5010142  68.3522797  74.4261074
  30.7259440  12.2678649  24.4414139  29.8915958  12.7116227  24.2891765
  31.3728523  12.9731798  24.4578552   0.8065964   0.8538282   3.6769220
   0.8062697  -0.1027834   3.6434957   1.7130066   1.0996473   3.4919187
 102.5454440  66.7617226  26.8136954 103.2592573  66.1241245  26.8268704
 102.3314150  66.8625164  25.8861923  46.0555696  22.0113158  23.9701867
  45.8574581  22.1828055  23.0495477  46.7127180  21.3156819  23.9482188
  18.2931221  77.2508144  60.2181482  18.1859970  77.0351744  59.2917299
  18.7629271  76.5021324  60.5855608  28.5884523  46.6315556  67.4263763
  27.8920007  46.4248705  68.0496454  28.2988477  46.2365913  66.6039610
   4.8637104  36.7635798  34.6901250   4.6473178  36.7017984  35.6204939
   4.0564331  37.0688939  34.2762184  62.7254677  44.7286129  17.6344860
  62.0946884  44.3963814  16.9957590  62.8408766  44.0082455  18.2541454
  27.9832387  45.6610489  86.0098553  27.4912548  45.3721142  86.7784309
  27.5948739  45.1770973  85.2810287   5.3069979  71.6926527  34.3368888
   5.7946384  71.8911076  35.1362967   4.4439220  72.0809841  34.4801736
  26.1707997  62.2815561  62.8071308  26.1823487  62.7186108  63.6586475
  25.6938791  62.8832579  62.2355270  95.5295666   0.7182714  70.4743052
  95.7645734   0.3834281  71.3396883  95.4444810   1.6635901  70.5982590
  11.5441632  74.0626526  51.5111256  11.0561812  73.2545757  51.6696072
  12.2744799  74.0264845  52.1288347   9.3397671  66.9480371  77.0401812
   8.7391657  66.9787216  76.2954855   9.0588778  67.6685476  77.6042700
 100.1047262  21.2230849  76.7741060  99.8694607  21.3909960  75.8615923
  99.8473867  20.3134441  76.9243145  88.6048826  85.2543449  67.9163694
  88.2860859  84.4900799  68.3964825  88.6158808  84.9746895  67.0009995
   6.5423518  31.0027075  33.4471560   7.2380018  31.5225816  33.8496923
   5.7864940  31.1290503  34.0206957  89.8955182  83.0403057  58.7149096
  89.6729783  83.9399925  58.9542294  90.8488635  83.0010000  58.7912035
 104.7612514  31.4050364  67.4382401 105.1993837  32.1889734  67.1070051
 105.3758546  30.6934118  67.2591209  47.8583193  40.9202099  58.3677864
  48.5108566  40.6899643  57.7064180  47.0276308  40.6190825  57.9996681
 104.9390235  74.6903706  74.8655510 105.0722744  73.7870121  74.5784616
 105.0124576  75.2094936  74.0647078  33.2265806  11.4010346  80.5682945
  33.6601305  10.6437969  80.1747704  33.7415314  11.5911078  81.3524628
  12.1526444  49.3527985  46.2376595  13.1068838  49.3198347  46.3052940
  11.9230163  50.2383423  46.5192890  18.0690503  46.3006020  48.2430315
  18.9554763  46.2967539  47.8818321  18.1969297  46.3264036  49.1912985
  26.1344337  67.2369194  39.8062181  25.5213976  67.1956444  39.0722466
  26.5714025  68.0826473  39.7060442  25.2343416  49.5088100  60.4771566
  25.2126336  49.0819168  61.3336134  24.6539497  48.9789772  59.9306679
  51.7133570  42.7502537  61.8815947  52.1392965  42.9457664  62.7162075
  50.7896280  42.6361609  62.1050501  19.9616575  53.8067341  82.8139305
  20.3906298  53.5673475  83.6354542  19.2449307  54.3839407  83.0773067
  32.8104758  64.7761869  39.3635845  33.7361979  64.7476864  39.6053648
  32.7464509  65.5050516  38.7464213  40.7787418  46.8917942  88.7984657
  40.5999947  45.9841728  89.0444374  41.0763597  47.3053741  89.6087837
  37.8013706  36.8035054  83.5157394  37.8525019  36.2358785  84.2847729
  37.1244931  37.4437475  83.7351894   4.5746225  37.6822758  46.1372805
   4.0009677  38.2738495  46.6243076   4.2868200  36.8057060  46.3922930
   6.5426660  39.5477915  54.0867186   5.8896267  38.9414692  53.7372255
   6.4688003  40.3248358  53.5326624  16.4692569  66.8405724  37.4010563
  15.7471228  66.6706705  36.7961693  17.2538221  66.5878487  36.9144130
  77.0870595  94.4246654  14.4620248  77.0203452  94.9966983  15.2265951
  77.8000741  94.7987918  13.9444658 106.3365533  23.8599825  63.8776684
 105.8755853  23.0476022  64.0868998 106.0111298  24.1036582  63.0110931
  22.5864124  12.7882385  22.4075103  22.1061826  12.3655438  21.6955113
  23.1134009  12.0868933  22.7904320  50.6992750  92.9772834   7.6745435
  50.4399268  92.4962739   6.8886682  50.3489237  93.8582496   7.5426790
  95.3425833  42.6033688  60.7439947  95.2588948  42.4108505  59.8100996
  95.0965067  43.5251474  60.8215094  92.3841926  25.2780414  58.0002785
  92.1201678  25.1813555  58.9152527  93.3186873  25.0708175  57.9974747
  26.0025883  23.6995292  38.7044430  25.4610205  22.9122591  38.7604952
  25.5582118  24.3362808  39.2641830  44.5456648  67.3608446  72.0703888
  43.9770651  67.6316547  72.7912188  44.4391632  68.0462933  71.4108086
  18.8249373  35.8086967  50.1700115  17.9142046  35.8766580  49.8833418
  19.2600238  36.5591955  49.7654295  23.6248207  42.5967789  60.5654097
  23.3665323  41.7112446  60.3097773  22.9248977  43.1567621  60.2296114
  18.1877124  44.9721718  61.2505293  18.8248754  45.6843328  61.3060474
  17.6365435  45.2017021  60.5023527 108.5091212  60.4680872  51.6168976
 108.5821166  60.4380703  52.5708342 109.3960711  60.6638527  51.3148546
  17.6513815   7.2284585  50.7031822  18.0256307   7.6716602  49.9417734
  16.8768120   6.7806870  50.3629255  97.2886249  36.7317438  52.8503370
  97.1855625  37.0275402  53.7548351  96.5830906  36.0973310  52.7239513
  88.0400809  45.1039457  76.7306614  87.9575618  45.3484821  75.8089113
  88.6618336  44.3761730  76.7306423  21.0251427  19.7018075  77.0363855
  21.6319489  20.2420163  77.5425434  21.5849471  19.0655661  76.5913630
  79.5301390  13.9458346  89.9236107  79.1231489  13.4253788  90.6162262
  80.2949524  14.3428457  90.3403473  96.2874933  50.3234673  56.6649723
  95.7947632  50.0990582  55.8756113  96.4206096  51.2693644  56.6034079
   7.8173882  22.1713281  52.8429556   7.3372835  21.3575482  52.9962254
   7.1663034  22.7674747  52.4729156  93.0168863  24.4254971  21.5810084
  93.0489107  25.1681614  22.1840477  93.9346608  24.1975331  21.4328408
   2.7176899  56.3438511  61.1439276   2.3828587  57.0533419  60.5955267
   2.1724761  55.5898333  60.9193611  13.9549303  30.2529645  19.8710096
  13.0612934  30.2437019  20.2138782  14.1491973  29.3345571  19.6838725
  19.2599273  20.8770084  48.5963964  19.7219300  21.1972213  47.8216362
  18.3636189  20.7269669  48.2958078 106.2003949  39.4569707  57.9330635
 105.6051173  38.7108278  57.8613377 106.8906911  39.1566753  58.5242891
  18.7828171  33.2097054  42.9295874  19.4313586  32.6012444  42.5754690
  18.3268106  32.7074385  43.6048746  83.4633359  21.4712477  77.9872513
  83.3727344  20.8312893  78.6932802  82.6370772  21.4167333  77.5070858
  20.1260114  43.9477444  25.7962799  20.4699016  43.4291983  26.5236592
  19.5851052  44.6176815  26.2144136   2.6518506  54.2913866  56.1234856
   2.7229699  55.2323771  55.9631205   2.2047004  53.9495945  55.3492308
   6.5617388  19.9706733  71.1934710   7.0817578  20.6485462  71.6250992
   5.8893180  19.7401309  71.8345118  18.8872707  48.9769125  48.7210131
  18.6181414  48.9155149  47.8044796  18.1161952  48.7002277  49.2161036
   1.8489145  45.6817245  46.8568182   2.3093888  46.0619450  46.1087322
   2.5363451  45.5150652  47.5017166  36.6196990  40.9951162  57.6658964
  35.9813738  40.3756332  57.3123312  37.4169636  40.8311796  57.1621847
  38.1606674  54.0611267  58.3947325  38.0866361  54.9259901  57.9912996
  38.0433750  54.2226839  59.3308830  21.0796881  21.6542482  86.1195278
  20.5862975  22.4702001  86.2033176  21.9156575  21.8346167  86.5494728
  11.7977953  55.6434536  65.7378149  11.0390508  55.7094431  65.1580000
  12.2804427  54.8824739  65.4150152 101.1337527  47.8146172  35.4762816
 100.9176727  46.9142962  35.7191062 102.0809003  47.8047180  35.3382754
   8.9386195  61.9774199  20.2240753   8.7250495  61.9327021  19.2920768
   9.5458442  61.2511730  20.3657627  18.8983524  74.5026112  53.1991339
  18.1318915  74.1004515  53.6078358  19.4926631  73.7709332  53.0327654
 103.2928159  16.7897308  45.4785299 103.7094798  17.6268637  45.6830597
 103.0242797  16.8730712  44.5635605  28.7208581  89.4347572  90.2406120
  28.2901549  89.8653507  89.5021534  28.0460668  89.3889809  90.9179497
  96.0691246  38.1801867  38.6957216  96.1849018  38.6558485  39.5182610
  96.4493402  38.7547398  38.0312228   5.6147969  20.9310794  21.8743062
   5.2029926  21.3492346  22.6304770   5.3811771  21.4912462  21.1341238
  93.5066267  68.9294338  40.6513929  93.2871266  69.7648382  41.0638905
  92.6725241  68.6020803  40.3147268  78.3541711  31.8547940  35.3425574
  77.9321679  32.7112103  35.2740264  78.3295282  31.6497445  36.2772107
  36.2770557  65.1944733  69.6671486  36.7804122  65.4563856  70.4380322
  35.5572343  64.6700382  70.0179386  13.1642449  70.9273863  72.5665140
  13.0834556  70.1308107  73.0910826  13.8459659  71.4355516  73.0061245
  53.1962995  48.3575333   1.3751432  52.6534443  49.0967659   1.6491433
  52.6992731  47.9440297   0.6693097  10.6283677  35.8356547  48.7179708
  10.8194780  34.9516869  48.4044266  10.4940021  36.3486195  47.9210711
   8.4991241   5.7681704  28.2801867   7.7083385   5.2465194  28.1431818
   8.1753081   6.6282272  28.5479140  28.1719780  35.8443093  14.8376012
  28.9702153  36.3725567  14.8401523  28.2164288  35.3392172  15.6494737
 103.3957311  45.9068871  68.2370090 103.3611842  46.6743326  68.8080263
 102.4785765  45.7031870  68.0537939   4.3594852  34.0945148  73.3589697
   4.5977983  34.8241615  72.7870846   3.4269357  33.9554930  73.1938744
   1.6594912  13.8591874  18.5516274   1.2632091  13.1726086  19.0881002
   1.2449194  13.7624967  17.6942992   8.8373214  30.5402064  63.1229639
   9.4989169  30.1332664  62.5635672   9.0760970  30.2720571  64.0102720
  89.7830947  41.8497086  79.3318653  90.1462682  41.1226940  78.8261032
  89.5939334  41.4727783  80.1911545  36.8132973  50.2461624  40.2339649
  37.6092649  50.7093573  40.4949522  36.8531823  50.2213573  39.2779183
  53.3061533  58.5582910   6.9731828  52.5434034  58.4755675   7.5455400
  53.6671285  57.6730356   6.9257280   8.7133360  33.9359546  46.9343901
   9.6036857  34.1441655  46.6512680   8.3741176  34.7601366  47.2835064
  13.5995102  48.2051563  71.2885666  13.5986090  48.5854006  70.4101324
  13.1668484  47.3578405  71.1832237 110.6061474  44.1261101  65.8483171
 111.0751319  44.6759319  66.4759970 111.1446880  44.1526556  65.0574303
 103.7353124  90.6011677  59.2272997 103.6685582  91.5356827  59.0312195
 104.6119042  90.3562737  58.9309168  13.5407662   3.5385361  76.4765978
  14.1932905   2.8674594  76.2763453  12.7169085   3.0569082  76.5509176
 102.8155258  27.6719499  49.7862053 102.3895552  27.8671169  48.9515257
 102.1910139  27.9674721  50.4486847   8.8728374   8.2460123  60.1498175
   8.3263588   8.9887798  59.8931265   8.4107441   7.8533202  60.8904219
  15.2311950  91.7335299  19.7286912  14.3209724  91.4399723  19.7680875
  15.7202487  91.0619072  20.2040693  39.5538950  64.5742416  82.3709011
  39.9181390  64.9673843  81.5778065  39.8215079  63.6562204  82.3278046
  21.2849998  56.9520044  52.2529030  22.0162249  57.2454214  52.7964592
  20.7895875  56.3589144  52.8177452  23.8165569  67.5286579  41.4000940
  24.7313166  67.7786064  41.2698174  23.4590721  68.2139969  41.9646645
   4.4078591  11.2751210  30.6243539   5.2260071  11.2000108  31.1155009
   3.7632924  10.8134770  31.1606836  40.4628801  35.0456095  48.0193949
  41.0113049  34.5791578  48.6501741  39.7987914  35.4800797  48.5546112
   3.1680110  12.1029341  41.5761662   3.7675539  12.1331549  40.8306026
   2.7494776  11.2444568  41.5123081  98.7742003  36.6622162  40.8419800
  98.0807706  36.1670327  40.4058838  98.4877380  37.5739455  40.7879257
  16.8177700  79.2778111  50.9006119  16.6396976  79.5337534  49.9956131
  17.7269530  78.9786243  50.8904266  34.7836045  82.6561717  13.0075475
  34.4975649  82.7557377  13.9155694  35.5636428  83.2068662  12.9403993
  98.6786660  43.7829161  60.0007200  97.9203149  43.2979727  59.6751976
  99.2480477  43.8778305  59.2371607  35.8471298  47.5026512  60.6829739
  35.0384951  47.9562998  60.9207630  36.1689544  47.9737949  59.9144125
 104.3522491  40.7708788  54.3737841 103.5732576  40.4163551  54.8024082
 104.0780177  40.9276867  53.4702158  33.9928484   8.3050185  33.4368181
  33.2862878   8.9493728  33.3942246  34.5021820   8.4550768  32.6403952
  21.4362478  35.6160212  34.3983769  21.9908142  35.6521153  35.1777244
  20.5653596  35.4031825  34.7337675  35.4261589  68.6610889  49.3850708
  35.2574229  67.8854084  49.9199390  36.0442066  69.1783190  49.9015188
 107.0440566  67.6018095  33.7473822 107.8760346  67.7548456  34.1952944
 106.3790341  67.8924179  34.3715024  97.5289377  42.4903631  41.0924196
  97.4659427  43.3632851  40.7047653  96.9027313  42.5039768  41.8162394
  13.4660959  48.9751816  77.6165533  12.5555408  48.7866735  77.8436756
  13.4859967  48.9428663  76.6601086  14.1640508  85.5292988  46.4913034
  13.8173509  86.4031792  46.6712046  13.6770260  84.9525642  47.0798731
  97.4298903  66.0858822  67.8318119  97.7147659  66.9351006  68.1693077
  97.5759288  65.4786491  68.5571909  26.9851613  32.0501161  60.4802656
  27.3179865  32.9194713  60.2573776  26.0773587  32.2014070  60.7433891
  33.1198215  27.6946831  48.6361074  32.6863337  27.1242428  49.2708635
  32.4913335  28.3993459  48.4789848  23.5696888  69.8635626  43.2712173
  22.9614949  69.3832254  43.8330078  23.0110478  70.2823639  42.6164246
  67.6678380  69.9720383  39.4344163  68.2413491  69.5205116  38.8151908
  66.8244752  69.5277119  39.3475461  13.3808219  24.7944880  39.5568109
  12.4843287  25.1214480  39.6318483  13.8891673  25.3519297  40.1459455
 110.7258722  49.3642378  69.8421574 110.7707182  49.1107416  70.7640934
 110.5232996  48.5510015  69.3797302  28.1730795  32.5187063  76.2217522
  28.2867932  31.6936159  76.6934776  27.4298477  32.3612356  75.6394815
  44.2062496  70.1405004  16.2390729  43.9580070  69.8483376  17.1161481
  43.8847862  71.0405735  16.1865255   8.9199442  43.1726837  55.4487848
   8.2641250  42.6531696  55.9138012   9.7009283  42.6193285  55.4390001
  61.8054255   5.9113520  28.6097503  61.5969285   6.0611743  29.5318747
  60.9719666   6.0280240  28.1537199 100.0554713  68.6425161  45.0378513
 100.1588174  69.4261074  45.5777931 100.8926543  68.5533333  44.5824337
  93.9901098  43.5476398  72.7025032  93.9333948  43.2878351  73.6220217
  94.8954841  43.8376141  72.5909472  47.1116161  14.3665397  61.4396620
  47.4760056  13.7395334  60.8149099  46.1938524  14.4550169  61.1825371
 100.7234057  47.0211267  65.1266909 100.5685934  46.0780334  65.0734138
 100.7998427  47.1987152  66.0641623   5.3957695  69.0568495  60.6909275
   4.9505752  69.6727133  60.1089096   5.6412029  69.5819187  61.4526987
 107.8880217  42.4822950  51.7064571 107.1865412  42.6032877  51.0665226
 107.4949601  41.9445753  52.3939085   9.7213185  43.5034227  49.1275644
   9.9176890  43.8798952  48.2696962   9.9769354  42.5842571  49.0499496
   2.2756554  22.0144629  60.3865385   2.8838474  21.6274333  59.7568226
   2.2878344  21.4136791  61.1316156   9.7452813  55.1747704  48.7764835
  10.0112736  55.6693125  48.0012989   9.4534045  54.3302250  48.4332895
  15.9029233  29.3357277  23.8406086  15.6697464  29.1359234  22.9340005
  16.4135659  28.5791755  24.1288853  22.0687056  50.2161407  84.2451859
  21.2092805  50.2914906  83.8305187  22.5873637  49.6987915  83.6290836
  27.5506186  49.4429970  70.3171921  27.5762510  49.9487400  71.1294746
  28.3604360  48.9327717  70.3270721   1.1108521  13.1152511  53.4591913
   1.0724051  12.3414516  52.8970623   0.4914131  12.9296219  54.1649294
  14.5190990  25.0013733  57.8517103  14.3199527  25.9376025  57.8587675
  14.1362298  24.6689367  58.6635780  28.6776066  46.3385248  24.2428350
  29.2175150  47.0734882  24.5336270  27.8111863  46.5187311  24.6076322
  16.5520751  36.4524150  56.1813831  16.4837396  37.4059200  56.1324883
  17.3264003  36.2951732  56.7216825  94.3059786  38.2882595  72.7086163
  95.0081535  37.7893639  73.1260920  94.7377595  38.7589431  71.9956970
  25.7500935  47.5237846  26.7379403  25.2560663  47.4957085  25.9185624
  25.7898450  48.4535646  26.9619107  63.0876207  47.7224350  81.6078186
  62.2926903  47.3956394  82.0291615  63.0630922  48.6685181  81.7512035
  24.9351764  84.2268372  49.8971987  25.1972246  83.3634663  50.2168083
  25.1135755  84.8174381  50.6290388  16.5386522  76.8295860  66.4296913
  15.9874928  77.1652985  65.7227612  16.6351843  75.8971834  66.2359476
  30.6802249  39.2990875  58.6373711  30.4431033  38.6968017  57.9322052
  30.9872770  40.0860023  58.1871271  32.7360487  52.1207619  84.5065403
  32.9406524  51.1884308  84.5781708  32.4493504  52.2341204  83.6003494
  42.6281595  40.3130198  40.4708624  41.8627834  40.7142878  40.8824635
  42.7275038  40.7813740  39.6420026  67.3411064 101.5520934   1.0496732
  66.8150430 101.9975642   1.7137834  66.8575959 101.6825608   0.2339288
  86.9664177  67.8516579  35.5941129  87.9068621  68.0045271  35.6859159
  86.5628608  68.6811781  35.8495951  97.2600754  32.7103782  73.6145210
  96.4544281  32.8228641  74.1190147  97.4563964  33.5849309  73.2785988
 110.1941226  52.1530008  49.0650892 110.2217884  52.0045996  50.0103092
 111.0584281  51.8829060  48.7548351  56.9181585  25.5065846  80.8925915
  56.5436125  26.3346577  81.1929893  56.5173817  24.8442316  81.4555264
  26.5970516   7.7844536  89.8131657  26.5885043   8.3571631  90.5800819
  25.6894255   7.4949217  89.7203255  95.0202223  62.4045658  27.4233389
  95.2573749  62.6770020  28.3097744  95.4203960  61.5408278  27.3231053
  33.8172722  49.5233870  71.1683130  33.6724734  50.4170609  70.8574963
  33.3782482  48.9708138  70.5216646   7.8159451  31.3915777  80.1334953
   8.5423464  31.0535836  79.6097279   7.2483844  31.8312025  79.5003796
  27.8352976  50.3032780  57.5626469  27.7550220  50.9851837  56.8957233
  28.3742857  49.6278477  57.1509266  44.2101765  45.8930731  49.8520470
  44.7932720  45.9758615  50.6066179  44.4735527  45.0729132  49.4346762
   0.8531820  16.1206901  35.2699065  -0.0439082  15.9887099  35.5765676
   1.3239676  16.4433014  36.0383558 107.9483213  10.3617489  28.6779857
 107.9885589  11.2097085  28.2357454 107.9033410  10.5791187  29.6090913
  21.7940736  41.5168858  70.2052736  22.1449757  42.0544100  70.9153175
  21.6043949  42.1403313  69.5041561 104.9011578  36.4763761  57.8114748
 105.4413243  35.6903100  57.7305317 104.1731211  36.2099266  58.3729029
  99.6809503  32.5884390  28.6920071  99.1325160  32.7084923  27.9167414
  99.4248863  31.7328262  29.0363741 107.2831704  38.9531398  46.0337496
 106.6016769  39.6221232  46.0990381 107.1101224  38.3626032  46.7669296
 108.7752777  17.5829709  76.3848019 109.0489278  16.6686797  76.3111973
 109.5926010  18.0804801  76.3583565   0.8855072  20.2941561  37.8170657
   1.0625937  20.0150347  38.7153769   0.1932446  19.7058690  37.5155306
 110.5067871  97.0843983  49.5259762 110.8824763  96.6239357  50.2763510
 111.2651603  97.3929596  49.0300989  30.2935505  26.3072658  63.0002451
  30.0867677  26.8608189  62.2472191  30.0042868  26.8157172  63.7578964
  34.6544099  32.0602369  68.9181614  34.8845148  31.4440918  68.2227135
  33.7498355  32.3089743  68.7281466   2.8825012  51.9771194  12.9168594
   2.4637020  51.5749550  13.6778474   3.2158077  51.2378407  12.4083304
   4.3799099  69.0610123  63.7872887   3.7152529  69.0147591  63.1000280
   5.1458347  69.4384909  63.3547354  42.0539808  39.5977998  51.7848778
  41.9354343  39.6231675  50.8353853  42.0050478  38.6681604  52.0076036
  33.7664795  45.5519915  61.1788225  33.1408548  46.0908079  61.6630745
  34.6098423  45.7326412  61.5939569  55.4927826  85.7851982  77.2126675
  56.3238621  85.3110695  77.1855307  55.5641127  86.3497257  77.9823828
  25.8729458  52.8077507  72.0858908  26.5101242  53.4841871  71.8563938
  26.4013386  52.0884371  72.4317503  85.3269299  56.9367599  25.9775496
  84.7793349  56.2456656  25.6050467  85.3643712  56.7349005  26.9124746
   9.8138350  17.5228667  56.4766407   9.1212189  16.9480109  56.8023014
   9.3480098  18.2684934  56.0981131   4.1351289  79.9968338  50.8506966
   3.3335522  79.5007515  51.0168600   3.9146480  80.8963013  51.0927248
  10.7378817  31.3183379  74.6533155  11.3069499  31.0257530  73.9414263
  11.1883485  32.0774913  75.0234461  18.9210010  65.6314898  52.9213619
  19.8056304  65.9949350  52.9609966  18.9474142  65.0163221  52.1884918
   1.4412312  48.6662292  72.2688293   0.8683182  47.9129791  72.4124146
   2.1884568  48.3105659  71.7878008  29.8762441  56.9720173  43.9842129
  30.7415628  56.9981241  44.3925953  29.3474507  57.5768232  44.5046139
  47.8438282  76.6507244  61.1633968  47.7748251  76.1060572  60.3793001
  47.8663731  77.5479174  60.8305788  15.5460763   1.0249610  41.4341021
  16.1859870   0.4731249  41.8837929  15.2570128   0.4980839  40.6890678
   1.0747507  19.8339725  17.0125687   1.5176240  20.0776577  17.8254116
   0.7702222  18.9393413  17.1646476  93.0487248  11.9462883  51.6851950
  93.2670673  12.7614403  51.2334347  92.1683248  11.7304528  51.3777161
  10.1216638  63.2064295  61.7177582   9.1966313  63.2908916  61.9488668
  10.5908537  63.5488081  62.4785948  12.6023448  69.1137552  79.0229940
  12.8252017  68.1871986  79.1127777  11.7695427  69.2057323  79.4858217
   5.5810405  33.4691608  23.2609769   4.9012710  34.1006744  23.4962102
   6.3326598  34.0075195  23.0130597   1.9041993  51.0980368  65.9567070
   1.8543972  50.4679251  66.6755342   1.0273058  51.4790964  65.9110451
  22.8771305  27.6324391  71.1017990  22.9383206  28.3860302  71.6888142
  22.3144865  27.9306006  70.3871202  10.6606507  35.1917982  38.7857246
  11.0952151  34.7681808  38.0454993   9.8236895  35.4926825  38.4318948
  94.1904350  87.8968430  43.2442474  94.5051356  88.7222862  42.8756714
  94.6152516  87.2211838  42.7158165   4.2971137  37.0304179  37.1891451
   3.9637294  36.2585688  37.6466775   4.4829366  37.6600933  37.8857160
  10.0851965  32.0933795  58.0244112  10.6263864  32.5846338  58.6424875
   9.1892821  32.2215390  58.3360910  56.8872547  15.4392219  54.7571898
  57.8196573  15.2739096  54.6174192  56.7019939  15.0561762  55.6146193
  93.4767648  25.2422857  71.2358046  94.3567201  25.5939412  71.3708973
  93.0041512  25.4648399  72.0378876   1.7932977  16.7760324  37.7359223
   2.2250532  17.6297486  37.7673769   0.9103473  16.9418573  38.0662751
   9.3030298  71.7768097  39.9105334   9.6172768  72.5948000  40.2957249
   9.9166423  71.5961218  39.1984487 111.1415680  44.2612219  48.1484079
 111.8919496  44.5608330  47.6351881 110.4879922  44.9525881  48.0431318
  18.9832592  48.7832308  28.1342983  19.6132708  49.2288446  27.5679588
  19.2920399  48.9612389  29.0226674  21.7168522  38.2844687  51.4972591
  22.4261856  37.6417780  51.4920950  21.4420795  38.3452749  50.5823612
  44.6521330  42.3141909  41.2193489  44.4042826  41.5028143  41.6626024
  44.4374037  42.1597767  40.2994108  35.9883881  51.2753725  58.0682230
  36.6844654  50.6184149  58.0788469  35.1919627  50.7775164  57.8836298
  61.4720588  83.9787320   2.3243924  61.0128431  84.5222405   2.9646608
  61.0511713  83.1216935   2.3919698  92.6006242  49.7350883  35.9882426
  92.6495417  49.0698385  36.6747403  93.2944139  50.3570223  36.2075305
  11.9251907  24.8463202  80.2192593  12.2201991  25.6220913  79.7424126
  11.0288441  24.7045183  79.9148130  22.2321153  66.1615086  87.0393085
  22.6406693  65.3401709  86.7659473  21.4018059  66.1859179  86.5636730
   9.9694127  45.0404453  30.1287150  10.8070588  45.5030966  30.1518583
  10.0203574  44.4164515  30.8527803   2.2533011  57.2434139  32.5905180
   2.0466326  56.4170361  32.1539140   2.8498268  56.9980049  33.2977414
  25.6240582  29.3324447  40.0854540  25.5400109  29.5854855  41.0047674
  26.3144732  28.6694646  40.0816774   2.1988639  66.2378502  89.4863319
   1.3643500  66.6122007  89.7686100   2.3222725  66.5708017  88.5974312
  22.9775214  22.9092646  56.5089798  22.1934056  23.1919527  56.9795942
  22.7646756  23.0450010  55.5856657  13.4110785  60.9965086  37.4711132
  12.7334154  61.6404390  37.6769280  13.5242188  60.5004120  38.2818651
  14.8480976  61.6437578  81.3424873  14.3714404  61.8891954  82.1354485
  15.3706026  60.8849955  81.6022968 103.0347451  91.7661095  36.3136959
 103.4637334  91.9096756  35.4701376 102.6070341  90.9145927  36.2230349
  27.3148584  24.9384689  79.7517443  28.1287599  25.2668357  80.1338100
  26.7224073  24.8413301  80.4972649  21.9573474  71.1987972  41.2136555
  21.3855004  71.8409538  40.7931089  22.5525284  70.9168816  40.5190229
  53.2214832  68.2575226  40.2073860  52.6296425  67.5158739  40.3335381
  52.7469826  69.0066147  40.5678606  47.9119253  63.2566643  50.4112482
  48.5555506  63.0510616  51.0892677  47.4233627  64.0010262  50.7626152
 106.7233830  54.8782015  32.5742292 106.1717542  55.0013828  31.8017244
 107.3665803  54.2216015  32.3070097  30.8648610  13.8827097  44.1479683
  31.5173936  13.6648214  43.4824181  31.3795614  14.1447377  44.9112892
  28.8515711  45.9867954  36.3431120  29.1734767  45.2853346  35.7769275
  28.5664821  45.5396128  37.1399713 104.0687140  77.8042030  45.4796553
 104.6915361  78.3817005  45.9210396 103.9207622  78.2170582  44.6288395
 102.1400871  76.1854744  39.2882872 101.6749825  75.6102943  39.8958063
 101.6354760  76.9988346  39.2946601  11.4668489  42.3396063  43.5614777
  11.6037273  41.3931084  43.6019468  12.3012757  42.7145433  43.8432312
   8.4932911  50.4426432  46.5555620   7.5601685  50.3316355  46.3733721
   8.7605572  49.6127844  46.9507027  33.4627008  47.0030403  65.1030588
  32.5251889  46.9793129  65.2947330  33.5297346  47.5172615  64.2984962
   5.3852290  40.6933975  32.5022817   6.0667694  41.3653231  32.5181079
   4.7455871  41.0159492  31.8674183  28.9316392  71.8960571  47.4633074
  29.0406537  72.5806093  48.1234121  29.2789888  71.1062241  47.8777218
  37.2576523   8.1053334  47.9914141  37.2021532   9.0453106  48.1634426
  36.9969845   7.6951212  48.8160372  27.8059435  83.0487537  31.3981700
  28.3417964  82.5472736  32.0126748  27.1987867  82.4065685  31.0304737
  44.3247223  54.5477629  49.5788717  44.7120905  53.7145948  49.3105268
  45.0671244  55.1490831  49.6379137  22.5227404  59.4503546  27.4413443
  22.9332733  58.7735176  27.9794788  21.6110706  59.1705465  27.3588872
  18.3472884  69.3859720  76.5745592  19.2407465  69.6881294  76.4112663
  17.7917898  70.0964069  76.2537289  18.6331952  32.5141811  31.7588353
  19.3031859  32.3188710  32.4139690  18.9946568  32.1776199  30.9388947
  44.2150021  39.1765594  48.8669872  44.9642420  39.0834761  48.2785988
  44.5393610  39.7223592  49.5833158  36.6774368  53.0620480  48.0765486
  36.1633301  52.2615433  48.1820202  37.0251465  53.2402658  48.9503717
  -0.0717163  60.5739403  29.3053389   0.3997103  59.7551346  29.4587851
  -0.2274678  60.9283161  30.1807761  26.5963125  34.3334961  47.6730633
  26.3539481  35.1404977  48.1272030  26.7129922  33.6907363  48.3726883
   8.8662630  29.2945480  56.4234686   8.9890039  30.1635957  56.8054628
   8.5752368  28.7502527  57.1550941  49.3915462  36.0939050  62.0163822
  48.9247799  36.8028855  62.4587727  48.7061214  35.4725289  61.7707872
  95.0841578  48.7087870  53.6040974  94.9464115  47.7677393  53.7121868
  95.9739228  48.7825298  53.2589722  29.0899467  32.7253819  43.5814428
  29.4223332  33.4533453  44.1066313  29.6892691  32.0025849  43.7674713
 100.8613511  99.2266560  46.1455965 101.5496286  98.6486626  46.4748907
 100.4313298  98.7191105  45.4573298   2.3551784  72.4021959  39.6218610
   2.3943800  71.8079996  40.3712797   1.6894469  73.0467510  39.8618197
  99.1030225  15.3469980  11.3815900  98.5504160  15.6178558  10.6484529
  99.6949300  16.0861719  11.5212365   3.2162607  56.8008089  55.6742573
   2.5489908  57.0497799  55.0347281   3.5331291  57.6327372  56.0260010
  18.2673752  55.3642130  38.0549121  18.9452851  55.8138990  37.5504804
  18.0457675  55.9759808  38.7569547  14.7008634  33.6671305  57.1277571
  13.8501894  33.4526014  57.5105906  14.5148909  33.8199878  56.2013197
  48.9101887  36.8133569  55.8322096  49.3168497  36.4917469  55.0275803
  48.0850649  36.3319421  55.8925343  39.6074605  56.2618971  51.5172768
  40.2149582  56.9837856  51.3558578  39.8270702  55.9563065  52.3973989
  93.9228567  26.3142610  68.8286877  93.7978395  25.5346823  68.2875204
  93.6640867  26.0392618  69.7082567  19.6894288  80.9481239  72.7734995
  19.4366503  80.9368324  71.8503475  20.4804564  80.4104996  72.8118134
  94.7373816  82.8269196  33.2785869  94.9901959  83.7402821  33.4130692
  95.1004227  82.6015377  32.4220610 105.8417543  83.3351803  48.5398579
 105.7580348  82.9462624  49.4104719 106.7576721  83.1927967  48.3010006
  14.9584365  35.6981182  38.9543843  15.1888943  35.9698153  39.8428106
  14.3544734  34.9657059  39.0769863  80.1878031  35.3615618  51.4557552
  79.6103748  36.0822630  51.2039614  80.2907642  34.8463988  50.6556034
 101.1458119  40.9703588  37.1862388 100.9310993  41.2611866  38.0725503
 100.3074571  40.6962252  36.8144274  85.9441290  21.5202511   5.2326890
  85.4772756  22.2721613   5.5972501  86.2002465  21.0038555   5.9968683
  51.8438959  67.8463984  56.8902588  51.3388920  67.1514416  57.3124456
  51.2815237  68.1527567  56.1788416  17.4389362  36.4895630  64.7331762
  17.5357485  36.0166025  63.9066410  16.9168460  35.9057546  65.2834654
  26.1529088  68.0483913  43.9822197  26.3234472  67.1826029  43.6113262
  26.5489936  68.6579704  43.3595085  33.4172773  51.8337584  44.9841499
  34.3178201  51.9156933  44.6702385  33.1082153  51.0076857  44.6122408
  17.8754246  30.0107789  39.4021463  17.8254056  30.9555793  39.5473552
  18.4304714  29.9164867  38.6280251   9.1048259  70.2533770  46.5744781
   9.2779684  71.1671829  46.3481665   8.3056033  70.2841568  47.1003389
  43.5858393  56.5715075  57.2448683  42.9857635  57.1658230  56.7943907
  43.9560461  57.0970917  57.9540491  31.2061548  25.4883671  29.5981097
  31.4837337  26.2906170  29.1558695  31.9452453  25.2569556  30.1606274
  37.3319602  53.5288000  34.2665696  37.2093129  53.1445694  35.1346469
  36.5778971  54.1071367  34.1519165   5.1566762  41.2748194  35.7106853
   5.1135087  40.3455925  35.9363103   5.3196281  41.2849617  34.7675109
  30.0705791  36.6070819  36.0796332  29.3812132  36.4778614  35.4282427
  29.9806595  37.5222993  36.3451958  43.0481148  52.3272467  54.8368788
  43.1850576  53.2351255  54.5662546  42.7120733  51.8918848  54.0534449
  13.3827138  59.3187284  54.1691160  12.9958630  59.8326349  53.4602594
  14.0368462  58.7693310  53.7372541  30.5824161  60.7732677  37.0870638
  31.2527299  60.1942015  36.7243075  31.0591960  61.5649843  37.3362613
  27.1083355  41.4776897  47.7621031  27.8617644  41.0016108  48.1112862
  26.6667986  40.8449697  47.1955872  18.1192768  75.1393366  78.2590008
  18.9200604  75.5693913  78.5590553  17.4735427  75.8440924  78.2081842
  21.5353847  66.4250088  36.5515137  22.3760462  66.4178514  36.0938334
  21.3363290  67.3534584  36.6722918 100.5352481  75.7711506  73.6126375
 101.2244781  75.3962421  73.0643368 100.8085092  76.6774750  73.7545538
  28.5263395  18.2047880  79.1584539  28.6995387  19.1148281  79.3994093
  27.5917006  18.1852019  78.9527845 107.9420566  21.3918352  86.4434719
 108.4136697  20.6934428  86.8974113 107.5630417  20.9648061  85.6752110
  35.3444552  68.5403156  62.2110653  36.2035847  68.6479425  61.8029690
  35.5327821  68.1598330  63.0689669  21.0510254  28.6640978  81.6337490
  20.3866887  29.3531203  81.6220665  21.7356443  29.0012503  82.2115517
  15.8422792  58.9887524  86.4001179  16.0881412  59.4801092  85.6163120
  16.1030304  59.5529413  87.1280861 107.4758204  29.8169494  64.4323111
 106.7836847  30.2622676  63.9435673 107.0933681  29.6539879  65.2945232
 109.2019870  76.9449711  40.2840614 109.6509654  77.6764154  40.7079029
 108.8003073  77.3295498  39.5049691   9.9220204  45.1322508  46.8250847
  10.2435386  45.8108234  46.2314558   9.8482698  44.3504810  46.2777042
  36.9511604  60.7319880  52.3333740  36.5869617  61.5458965  52.6814222
  36.2109232  60.3023577  51.9047737  66.4355659  37.5486851  28.6697555
  65.8905172  37.2900510  27.9266167  66.3252878  38.4976721  28.7288666
 110.5303891  83.5302353  67.1139908 111.0216787  83.6515713  66.3014984
 110.3161149  84.4184589  67.3992443  94.1797801  53.8849068  63.5516977
  94.8560461  53.8855076  64.2291164  93.6098453  54.6187735  63.7815809
  40.5878448  65.3708458  79.8030043  39.7125244  65.7451677  79.9026632
  40.5420589  64.8677921  78.9899397  34.7167373  48.0541992  26.6561294
  34.9620533  47.2911596  26.1328483  34.1365981  48.5590029  26.0861802
  26.4578342  46.3464451  77.2813797  25.9896374  46.5062046  76.4619303
  26.9174051  47.1671915  77.4585915  13.8536251  54.3959713  87.9265785
  13.8354874  54.9348354  88.7174797  13.8691235  55.0270796  87.2070694
 111.0502555  42.7354145  32.3625374 110.9073507  43.5389948  31.8624640
 110.9561809  42.0329857  31.7191291  65.6589255  37.6691457  85.8500428
  64.9393282  37.1271535  85.5265257  66.3737253  37.5112363  85.2333108
   8.4838438  37.5980473  21.1249018   7.9330939  37.6483607  21.9061685
   7.9592800  38.0051327  20.4354477  39.8305202  51.8422556  58.6891317
  39.5748329  52.6706934  58.2834911  39.3892503  51.8452358  59.5385456
  42.4082279  13.1321740  76.7616463  41.7701197  13.8445449  76.8013430
  42.6221085  13.0537367  75.8319521  47.0748091  65.1399088  59.8542356
  47.5214386  65.3835535  60.6650352  46.7650652  64.2477417  60.0101995
  26.3077235  41.3498068  85.9290981  26.1291242  41.6077709  85.0247860
  25.7710171  41.9408035  86.4572048  16.8182600  67.8427553  65.4814005
  15.9924197  67.8085375  64.9986506  16.5577459  67.9793835  66.3922787
  48.7314844  34.7049975  22.5715280  49.5443964  34.8318124  23.0607367
  48.0397749  34.9276066  23.1945968  11.0757637  51.4730692  72.0799971
  10.2918422  51.0938597  71.6826344  10.9354758  52.4186802  72.0313025
  42.0560217  29.5918250  59.0824652  41.7852068  28.7995839  59.5464087
  42.7033329  29.9976325  59.6591234  19.3044651  66.9320154  29.2181349
  19.5041668  66.1957312  29.7962689  19.2388725  66.5413713  28.3467388
  10.1833510  52.6970816  77.1402550   9.7952414  53.4792995  76.7481613
  11.0767400  52.9588509  77.3628807  65.4158144  90.9250287  24.0454408
  65.9020834  91.7073468  24.3057271  66.0291247  90.4321174  23.5003492
  40.2294159  41.6296816  41.7130470  39.8891950  40.8331251  42.1204472
  39.4669366  42.2029924  41.6345072  98.8305470  75.4730558  61.8441391
  99.2289802  75.6146479  62.7028799  99.1411837  76.2057352  61.3122320
  26.3825560  74.1489315  51.3514519  26.4569020  73.2084131  51.1898184
  25.4542756  74.2869425  51.5398169   8.5541594  45.7902813  66.0007238
   7.8521019  46.2754202  65.5671501   9.0834975  45.4423714  65.2830982
  23.5925603  45.0720263  53.9946842  22.8035164  45.5064106  54.3186474
  23.2654619  44.3627453  53.4413719  29.9469304  53.1997633  67.5050735
  30.3701806  53.9789295  67.1445322  29.0163064  53.3251715  67.3194885
  13.3607125  41.8434143  58.5843611  13.9907610  42.2807837  59.1570568
  13.8638926  41.1470938  58.1622553  88.5343318  12.6763734  37.7258658
  88.0415873  13.4967431  37.7467561  88.1397681  12.1781548  37.0100999
  48.0005507  21.2578305  32.2557926  47.0434134  21.2556943  32.2450447
  48.2318239  21.9728669  32.8486466  41.8115950  44.1887188  40.6495428
  42.0060015  44.0947104  41.5820694  42.5947046  44.5982122  40.2817202
  36.1367249  71.8817854  61.6184425  35.4156256  71.6892290  62.2177505
  36.5970540  71.0481167  61.5219116  33.0591917  54.1331720  68.5293293
  33.9274383  54.4863367  68.7233782  32.8983760  54.3798065  67.6185417
  57.6429129  82.9537582  59.5965052  57.2044039  82.2620678  59.1010094
  58.4948444  83.0500221  59.1708565  23.1124163  79.6648598  16.3044214
  22.7390409  80.2558517  16.9582915  22.4942780  78.9353514  16.2601876
  29.7949076  84.5138645  66.0057926  30.6019092  84.0124702  66.1223650
  29.8823619  84.9103355  65.1389599  46.0325861  74.1309547  54.2682505
  46.4020777  74.9315882  53.8958359  46.7920542  73.6400938  54.5820856
  18.9122164  39.4059610  31.0269642  19.2331326  40.2227545  31.4091873
  18.1957054  39.6756577  30.4524159   6.1443675  36.4827824  62.0682001
   6.3524556  36.8904734  61.2275362   6.6232646  37.0042706  62.7123594
   5.6828326  42.2098780  83.1413364   5.8781540  41.3349485  83.4768581
   5.9088284  42.7985334  83.8615036  49.5276737  80.3045750  69.7984552
  49.9262142  80.8587170  69.1273975  49.2602730  79.5145035  69.3288660
  20.5835176  54.4735718  26.6387463  20.8372736  54.9331093  25.8383322
  19.6365941  54.6003866  26.6977763   4.2917877  52.2281742  83.1990337
   3.4865874  51.8435955  82.8526497   4.1578490  53.1729269  83.1233311
  25.7704020  49.2571735  42.5577784  25.5712700  48.3900309  42.2047281
  26.6184998  49.4824743  42.1754169   3.5445520  48.2272291  47.1035671
   3.8479325  47.4172783  46.6934824   4.1510022  48.3694601  47.8303576
  11.6493344  28.5041022  37.3815346  12.2071826  29.2795873  37.4420404
  12.2298586  27.8162813  37.0557618  37.4305058  48.9141083  28.0533814
  36.5434408  48.5948467  28.2189703  37.5855136  48.7218571  27.1285868
  20.0417161  42.3633671  38.4633803  19.7866702  43.2546759  38.2251477
  19.5013022  41.8027258  37.9067278   2.7222580  59.1103411  71.3801813
   2.1304841  59.2408609  70.6392384   2.9722938  59.9953079  71.6457939
  13.8301110  49.5572042  68.6406660  13.0387485  49.0499163  68.4600163
  14.5215333  49.1015053  68.1605577  16.5797222  55.1831293  46.1698055
  16.3569796  54.9908161  45.2589607  15.7350802  55.2345562  46.6172028
  38.3727431  45.9633970  44.6173429  38.0924082  45.0757599  44.3943024
  38.1045365  46.0772753  45.5291176   9.7746247  29.0153885  19.9934590
  10.3894377  28.4894061  19.4820106   8.9282501  28.5872936  19.8645484
  40.8896255  64.3512011  69.3204594  41.3546038  64.2717314  70.1533556
  41.5586424  64.1864729  68.6559963   2.8356242  84.3360710  38.0143213
   2.7495953  85.1615334  37.5374150   2.2555025  83.7309265  37.5522709
  19.1696990  64.5558977  44.9663925  18.3046806  64.3467140  45.3188419
  19.4581962  63.7469244  44.5438290  71.3881593  96.9792871   1.9218179
  71.4867596  97.4875955   1.1167547  71.6473846  96.0908679   1.6774007
  30.8529162  37.6663852  21.8644977  30.7325244  36.7271352  22.0043159
  30.7379580  38.0543423  22.7319694  28.9910126  65.9730530  67.8596544
  28.8819647  66.4444160  67.0337248  29.2184019  65.0808239  67.5980091
   7.9029781  79.4446993  71.1827993   8.1494308  78.5955572  71.5494776
   7.2849661  79.2331839  70.4831171  37.3093367  47.2428989  64.7781897
  37.4779820  47.3699045  65.7118177  36.8469214  46.4061928  64.7299814
  17.4324977  59.8662519  88.5209560  18.2615566  59.3892050  88.4846306
  17.6289690  60.7179880  88.1308556 107.5077315   7.5460660  44.9549103
 107.0001679   7.9367012  45.6662560 106.8490275   7.2182459  44.3426371
  16.5049708  49.1264725  50.6053638  16.3387442  49.6582937  51.3836718
  15.8391535  49.4064903  49.9772596 109.3147079  55.4397345  70.3562307
 108.5449477  55.2583981  69.8169565 109.3271311  54.7327137  71.0013676
 105.3195520  29.9651909  58.7821627 105.7107713  29.1742969  58.4111309
 104.5316591  30.1109886  58.2585192 106.8238773  73.3372068  39.9631214
 107.3814359  73.8149452  40.5772305 106.3876196  74.0205717  39.4542742
  22.9258394  80.0850201  34.8181033  22.7916050  80.0297165  35.7642293
  22.0731807  80.3459263  34.4700646   2.8794286  18.0398369  60.7308292
   3.0276251  17.9657102  61.6735792   1.9656511  17.7812386  60.6109571
  21.8105006  54.4584990  60.3793669  20.8548498  54.5076656  60.3560114
  22.0128751  53.5783577  60.0621462  38.8945198  40.8844137  26.9802189
  38.4212732  40.9938240  26.1554170  38.2157731  40.6651258  27.6185346
  38.0824113  28.5141635  48.0715942  37.2364497  28.8463736  48.3719540
  38.7245011  29.1095066  48.4582710  14.1817677  54.1299391  46.6014671
  13.4979439  54.6162081  46.1408615  14.3519557  53.3702660  46.0445452
  30.3803682  85.3781033  23.5506558  30.8864164  86.1905193  23.5620332
  30.0778127  85.2717400  24.4525313   9.2105567  56.0386610  61.7789173
   8.6386132  56.4883947  61.1569452   9.7110301  56.7406178  62.1948719
  35.2031755  78.8536501  65.1964903  35.9522533  79.4042063  64.9684620
  35.5215788  77.9578638  65.0850630   5.3219306  52.8760099  70.7840586
   4.9745196  53.7050200  71.1131191   4.9001274  52.7606773  69.9325800
  40.1328373  73.6596918  53.6103249  40.9540749  73.8661098  53.1640148
  39.4566298  74.0640640  53.0667639  25.7434177  74.4028521  80.4765415
  25.6325221  73.9110279  79.6628809  26.6554666  74.2523003  80.7250023
  57.3996830  31.6893029  30.4316592  56.9107962  32.4455357  30.1071119
  57.3184872  31.0355997  29.7371745  33.8971829  60.0369549  73.2513618
  33.8186264  59.0906572  73.3721161  34.8095250  60.1707125  72.9945087
  99.1730054  30.1323056  29.8874521  99.1637274  29.3133521  29.3920135
 100.0256880  30.1395059  30.3223252 108.2338604  64.7788334  30.0945258
 108.4554353  65.0330162  30.9903646 109.0792399  64.6932364  29.6537995
  13.1669807  73.9150906  74.5645428  12.7222812  74.4792366  73.9319181
  13.9805996  73.6613941  74.1287756 100.0142904  67.5665236  61.9823122
 100.9653493  67.4876356  61.9081783  99.8539051  68.5096741  62.0136166
   1.8835278  47.2142553  59.2593575   2.7460852  47.2916555  58.8516378
   1.4793298  46.4636707  58.8240671  11.0485888  28.6595774  33.4906030
  10.4791832  29.2526698  33.0004501  11.7308342  28.4121943  32.8664446
  21.8248916  51.5430307  59.3579245  21.8471050  50.7428455  58.8330936
  20.9116793  51.6236448  59.6331930  82.1293947  39.8512447   1.7494699
  81.2782261  39.4528568   1.9312211  82.7579251  39.2922485   2.2063180
  19.2749476  40.6706095  72.0608330  20.0804830  41.1833429  72.1275330
  19.5473874  39.8484731  71.6532755  24.5450211  28.6396241  28.6778665
  24.2467427  28.4609914  27.7860403  24.6506977  27.7741861  29.0729380
  25.3262520  44.2430925  43.7576914  25.7442880  44.7201872  43.0408525
  26.0484004  43.8019276  44.2050219  17.6064432  46.9288588  35.1810741
  17.6644182  47.8832102  35.2267170  18.5151565  46.6368818  35.1088023
 111.5179666  59.4999552  82.3703194 110.9751175  60.2808857  82.4784756
 111.0406217  58.9620447  81.7386341   3.3770658   1.5278757   4.5780488
   3.4444285   2.2905481   5.1525327   3.7360478   1.8252838   3.7420484
  18.9342058  47.1141195  55.4854155  18.9079177  48.0709553  55.4830360
  19.7537279  46.8959284  55.0415564  19.4164586  66.7206001  33.4006262
  20.0249887  67.4441528  33.5502553  19.8470020  66.1783171  32.7397203
 105.7277777  40.4227209  67.7145433 104.7735592  40.3830051  67.6503468
 106.0265084  40.4844999  66.8072557   7.8807569  52.8226948  84.6376991
   7.3386353  52.2112560  85.1361752   7.2790122  53.5210609  84.3799686
   1.2597623  46.2297535  65.5639982   1.1953041  47.1092224  65.9363031
   0.9802400  46.3336277  64.6544313  20.2530384  42.3695660  50.0456047
  20.2757931  41.9487715  49.1861582  20.5072165  41.6786480  50.6573677
  37.9141092  81.5727615  52.2290850  38.7060237  81.0351658  52.2388554
  37.2021484  80.9479427  52.0914030  38.9665914  47.0984459  42.2009611
  38.4275293  46.7327499  42.9023218  39.8517418  46.7888021  42.3929501
  21.4682007  53.0738020  74.7701693  22.1820426  53.2711029  74.1637611
  20.8137584  53.7508059  74.5981169  44.7572184  26.6955304  43.3258533
  44.5967197  25.7618141  43.4624147  44.8886490  27.0472503  44.2063379
  25.9273148  20.3937197  46.1317825  25.7198071  19.5638633  45.7022381
  26.6958165  20.7201076  45.6636906  27.3471928  36.2763500  21.4414525
  28.2728624  36.0330367  21.4286208  26.9086552  35.5287790  21.8477249
  16.1054750 103.8320356  52.6034355  16.0138316 102.9693330  53.0078793
  15.6252189 104.4214358  53.1849766  26.9012070  33.0848622  26.1592197
  27.6363158  33.4854484  25.6951308  27.2921801  32.3597050  26.6465783
  29.3315387  48.3705759  56.2837601  29.2540550  48.0073118  55.4015684
  30.2457666  48.2212353  56.5248346  14.1475224  44.5563650  27.9139948
  14.5061517  45.1347733  28.5870886  13.8371718  43.7904167  28.3969474
  17.3583114  42.6529932  31.9138408  17.1485615  42.8020144  32.8358126
  16.5736032  42.2400141  31.5534067  23.2983732  44.4469118  31.8618631
  23.6288810  44.2066526  30.9962583  23.8470078  43.9549351  32.4727559
  16.5664446  44.3008041  50.4052544  15.8992314  44.0530443  51.0453129
  16.8703222  45.1604605  50.6966019  32.2629018  17.1530827  70.4317713
  32.6330234  16.7162331  71.1988497  32.7243076  16.7641362  69.6887636
   4.1270575  85.7088375  44.3814611   4.3678927  86.6287804  44.2722273
   3.9172429  85.4095078  43.4968090  14.4658053  79.2125893  57.4656343
  14.0599322  78.3735371  57.6835489  15.3737772  79.1216898  57.7546978
  92.4722072  49.4047642  46.5865469  91.9789549  50.2010059  46.3892174
  91.8313762  48.6988163  46.5016651   4.0893680  53.7042713  49.9272156
   4.3614644  53.3070612  50.7545090   3.2598040  53.2754517  49.7170448
  21.4209723  45.4299736  75.1979542  21.6508198  46.2802935  75.5726051
  21.4946318  44.8178434  75.9301472  33.6565208  56.8269444  46.6360474
  34.3186331  56.7110777  47.3175287  33.4904623  55.9422398  46.3105488
  11.3410866  47.5362396  64.2298651  10.8980656  46.6891098  64.2781878
  11.1025596  47.9781055  65.0447845  28.7020826  70.4725790  36.4705944
  28.0517483  71.1721134  36.5334439  28.2087636  69.7143364  36.1576486
  34.6582222  75.8211040  49.6006823  34.0166759  76.5314865  49.6033669
  34.3345213  75.2035618  50.2564955  28.8753653  61.4713287  52.7176380
  29.0683222  61.2921429  53.6379051  27.9913020  61.8382072  52.7253151
  35.6750607  40.1341009  47.0582771  35.0124383  40.6151772  46.5625668
  36.4599633  40.6788874  47.0002794  32.5412655  35.6588960  49.0706253
  32.8944230  35.8802843  49.9323130  33.1690121  35.0339508  48.7078524
  50.2790356  58.3912373  44.0026665  50.4710102  58.4895468  43.0700827
  51.0642624  57.9827547  44.3670797   8.2668680  51.0036039  20.1745391
   7.5306058  50.4814529  20.4931355   8.1491715  51.8597555  20.5861068
  98.6457392  73.9241934  73.7711811  99.1962930  74.7059298  73.7263203
  97.7950104  74.2110109  73.4391737  13.5887349  91.3127232  42.4754477
  12.6973283  91.2496090  42.8184414  14.1312468  91.4758968  43.2469940
  11.9547951  55.6205273  50.2680874  11.6321898  55.4542398  51.1538124
  11.2510312  55.3152275  49.6955967  18.4032977  76.1200809  57.8285837
  17.8442216  76.2110806  57.0569706  18.6365342  75.1919174  57.8472471
  24.1383052  73.3382177  62.9927874  24.4628239  73.6088800  63.8516617
  24.4154263  72.4258804  62.9086590  22.3281574  26.3979149  41.1302423
  21.4198160  26.0975480  41.1607313  22.2688699  27.3493075  41.2172413
  24.8559904  60.9104490  52.9502773  25.6115294  61.0927725  52.3915768
  24.2543864  60.4226017  52.3878670  75.6043081   1.1917313  74.8034573
  74.9883346   1.5630921  75.4350376  76.4197306   1.6696843  74.9546957
   1.0061162  95.7939816  51.1109972   0.8859766  95.4708099  52.0039511
   1.9318444  95.6394672  50.9228849  31.2280440  86.9772720  17.1620512
  30.4153609  87.1576595  17.6345325  31.4569712  87.8114128  16.7521298
  36.0948658  67.0347834  56.3586903  36.0397172  67.9902077  56.3397789
  36.1223221  66.8148422  57.2898769  12.5441611  50.2532768  51.6288519
  13.4664834  50.5092430  51.6232109  12.1022713  50.9602213  52.0991659
  40.3781700  89.0035248  35.5327749  41.0207605  89.5406342  35.9962726
  39.9590945  88.4852123  36.2197661  21.9354987  75.2699327  48.9944744
  22.5876451  74.6261787  49.2710924  21.3315368  75.3321981  49.7344637
  97.7055987  82.9435444  47.6522732  97.2103866  82.4369049  47.0086050
  97.0929154  83.6156559  47.9507923  49.1512012  83.4407997  37.0906305
  48.7223244  83.9931679  36.4370346  49.2214918  83.9977264  37.8659511
  33.1617832  70.3555584  57.7986670  32.6421142  71.1592436  57.7822351
  32.5489736  69.6799850  58.0890131  61.7175226  28.2631596  60.8518076
  62.2780852  27.5906476  60.4648542  60.8720784  27.8305444  60.9713888
  32.0228267  59.3293047  47.5717258  32.0320654  58.4514952  47.9533005
  31.7752790  59.9030590  48.2968187  42.9548836  76.8002653  38.1021976
  43.1807327  77.6915836  37.8361654  43.7370586  76.4786720  38.5505390
  44.2934227  61.7997742  51.7559052  43.3521652  61.8882751  51.6061354
  44.6900940  61.9891596  50.9056044  43.0493212  59.8374462  60.8731174
  43.0907774  60.7463360  60.5757380  42.4913359  59.8649645  61.6503716
  14.1020465  85.7692814  71.2724590  13.5871565  85.1500702  70.7550573
  15.0099099  85.5875778  71.0295582  33.4069824  91.2845325  37.3887968
  32.7351165  91.0590363  38.0322075  33.7444448  92.1310806  37.6815557
  23.8074899  40.1786804  48.4615231  23.9868331  40.6037951  49.3001795
  24.0774751  39.2695570  48.5912561  99.9620994  31.0903311  56.1426353
 100.1553305  30.9623790  57.0713568  99.0139290  30.9765530  56.0773802
  45.3997707  62.3923111  68.3653212  44.5192766  62.0267200  68.2798529
  45.2676630  63.2368946  68.7959671  22.1758866  80.5311108  47.4748230
  22.3855686  81.4419556  47.6812744  21.7517328  80.5713367  46.6176748
  13.7477589  95.2994251  57.3067570  14.4947362  95.7779598  57.6662779
  13.5252094  94.6596336  57.9830503  59.2264462  72.0330524  45.2272654
  59.5437956  71.6307878  44.4187450  59.9861622  72.0319653  45.8095551
  41.2532043  93.7912560  70.9261322  40.4729033  93.7133598  71.4750385
  41.1487293  94.6312237  70.4791641  10.0575137  90.5219364  57.5558710
   9.3504721  90.6907082  58.1786394   9.6246374  90.4991817  56.7024517
 104.9336299  64.1784048  90.5910015 104.8363223  63.2679701  90.8700562
 105.8157810  64.4219351  90.8715916  30.7175565  47.3429394  65.0312185
  30.6408787  48.2942486  65.1044559  30.2934623  47.1317911  64.1994810
 102.7600970 101.2201309  65.3884935 103.5174193 101.4754105  64.8616838
 103.1359758 100.8959103  66.2069225  75.5662327   3.9328298  76.2528849
  75.0579409   3.2773217  76.7305660  74.9194150   4.5810708  75.9742260
  28.6636186  75.0355625  36.1174321  29.0130925  75.5111217  36.8710518
  29.3446255  74.3994141  35.8988476  50.1793289 104.3026257  42.0353174
  50.1423264 105.2542686  41.9391870  51.0471344 104.0626431  41.7104387
  35.8239412  63.4507036  64.0280008  35.7920575  62.5916815  64.4490671
  35.3499007  64.0283871  64.6261644  46.0304594  80.5155659  66.9913530
  45.3328657  80.1292706  67.5208521  46.7661047  80.6099892  67.5964499
  44.9983263  60.2796459  47.0621967  45.2198267  59.5002890  46.5525198
  44.1896009  60.0459957  47.5178289  24.9187899  76.0361147  60.0724077
  25.8164358  76.1536312  59.7615194  24.4480395  76.8001461  59.7394133
  38.9828524   0.1633843  46.1640549  39.2359664  -0.7554046  46.2534475
  39.4253986   0.6053265  46.8886709  25.4668999  97.9275227  67.2165918
  25.4776525  98.8392544  67.5078917  26.0964417  97.4864101  67.7869654
  18.0925679  50.1272154  70.8540106  18.9043105  50.0381947  71.3533926
  17.5972641  49.3341017  71.0586548  14.4228530  53.1870079  73.1630754
  15.2578580  53.0177212  72.7267933  13.9275217  52.3750162  73.0556154
  33.1143928  86.3362598  55.0382423  32.3263168  85.7936573  55.0108290
  33.6317921  86.0452461  54.2873478  26.8372965  55.7515526  59.9411678
  27.3087907  56.5411711  60.2065468  26.8669891  55.7649946  58.9845228
  36.0289526  51.4665556  43.9942741  36.5467954  51.9218063  44.6582174
  36.5215302  50.6659174  43.8137674  24.4758821 102.3969650  72.5292730
  25.0262117 101.6778564  72.8395081  24.7279501 103.1432819  73.0730581
  42.7569866  78.0276442  31.4732385  42.2789478  77.9628277  32.2999859
  42.6205015  77.1797466  31.0505414  30.3241205  52.3139572  49.7726727
  30.1135015  51.6584301  50.4376221  30.7372403  51.8156528  49.0675068
  43.1627846  49.2068386  57.7974749  43.0799437  50.1342678  58.0193949
  42.9263258  48.7459135  58.6023760  11.5024030  31.8509412  53.6525393
  11.8841672  31.0745096  53.2430983  10.5798888  31.8266654  53.3983517
  16.1063194  96.9734001  60.2992010  16.1015701  96.4407539  59.5039082
  15.3297710  96.6901016  60.7818460  80.8802180   0.3044995  46.4869022
  80.6122308   1.1007127  46.9456482  80.0606160  -0.0806323  46.1768055
  13.8673329  70.6482458  43.2016611  14.3689620  71.0528421  42.4939156
  14.5184946  70.4531050  43.8755608  43.5853720  70.5110836  80.8911610
  43.2221794  71.1575079  80.2858067  43.0649233  70.6105328  81.6883278
  46.6637707  68.8855028  67.9831982  46.7055130  68.1847143  68.6338806
  46.7635441  68.4382820  67.1427965  21.6122651  69.8637676  54.6082640
  22.0019174  69.8976278  53.7346172  20.6910563  70.0828934  54.4683075
  89.9609661  93.8891506  84.4956303  89.4539738  93.5508251  83.7575817
  89.5324707  94.7145367  84.7222519  39.0544319  87.4006462  50.3682041
  39.8444557  86.8672466  50.4552746  39.1787481  88.1163311  50.9915543
  37.0863318  78.6318541  43.7256145  37.7873850  78.1120920  43.3324242
  36.6720080  78.0394745  44.3530321  29.1985583  45.3033066  60.1537037
  29.2860246  46.2518740  60.0598526  28.3226323  45.1093674  59.8199797
  33.7768364  37.6430249  58.1945229  34.3507624  37.9093337  58.9128017
  33.1057978  37.1028256  58.6118078  41.1520290  60.2562237  62.9644918
  41.2503529  60.5824995  63.8589811  40.7120037  60.9665060  62.4974728
  33.2720661  81.3712502  43.9292431  34.1124845  80.9142590  43.9622879
  33.4478784  82.1590519  43.4147549  35.6815720  88.6557961  70.5462933
  36.3215566  88.6920452  71.2571621  35.0788212  89.3764114  70.7296801
  58.1752825  63.8449955  45.6721973  58.2441616  64.5402002  46.3265467
  58.0833530  64.3080711  44.8395252  19.7661817  56.9633770  18.8124263
  20.6356025  57.0958281  19.1903067  19.7237349  57.5847626  18.0855763
  27.3932600  76.6990328  46.8826437  27.0438671  76.6915369  45.9915209
  27.8824210  77.5197172  46.9412279  58.7238693  69.8292398  68.5873556
  58.0231762  69.9769497  69.2225266  58.2916403  69.8899889  67.7354670
  65.5133677  74.9296570  69.4046116  65.3763676  75.7235050  68.8876343
  65.1208448  74.2316484  68.8802624   2.9901506  46.0150898   3.0347844
   3.7351514  45.4154575   3.0753537   2.4579836  45.6871975   2.3098584
   8.2531798  70.0952578  52.4612570   7.3168337  69.9930239  52.2908545
   8.3205539  70.1303148  53.4154367  40.2711153  96.9923592  36.2143397
  40.1244307  96.9631672  37.1597838  39.8224282  96.2164974  35.8782721
  36.0922360  85.1780987  50.0424194  36.2464237  86.0000420  49.5767260
  35.1391745  85.1109982  50.1007414  37.4954624   8.3534249  52.8932667
  37.1120908   9.2300328  52.8647757  37.1230697   7.9545888  53.6797094
  24.0245628  26.2973404  58.1033230  24.4908142  26.5097380  57.2947884
  23.1172490  26.5479255  57.9294920  62.1492100  90.6065464  57.8396940
  62.9249811  90.9438992  57.3918009  61.5942001  91.3755417  57.9694653
  17.3063993  90.4463482  73.8746119  16.6297817  89.9817944  73.3820629
  17.0331454  91.3634014  73.8505030  34.1114211  87.9063702  75.3459072
  33.7221122  88.2345295  76.1564493  34.7317767  87.2360611  75.6324005
  31.8756747  67.9810715  52.0206118  31.1159468  67.5098658  51.6785526
  31.7725968  67.9435301  52.9715061  66.5175438  78.0808258  50.2043295
  66.2141943  77.9900312  51.1076403  67.4536228  77.8850937  50.2452087
 103.3006468  83.8022900  72.8620768 102.9535230  84.6936893  72.8959560
 102.5240447  83.2427216  72.8609371  32.2823048  63.5630751  81.5331364
  31.8521857  64.4178772  81.5564060  32.6885629  63.5228634  80.6673622
  28.7422824  77.7519417  57.9310894  28.7629318  77.0983267  57.2320938
  28.6406803  78.5873079  57.4749422  45.9661770  83.5493469  71.6620493
  46.7729950  83.6416626  71.1553478  45.3746605  83.0666447  71.0846996
  15.8345163  65.6405067  50.7932138  16.3464844  65.1390600  51.4277792
  15.9009171  65.1379824  49.9812460  13.4804070  50.6856489  58.4807444
  12.6353168  50.5973673  58.9214897  13.4388232  50.0618601  57.7559042
  25.0463271  91.8069458  31.8565655  24.1898680  92.2339249  31.8763661
  25.5551600  92.3197651  31.2286019  27.0980835  83.6588860  56.3357830
  27.0488954  83.1799221  55.5084944  26.1853886  83.7756824  56.5995550
  27.7692366  65.3059673  50.1794624  28.1252623  64.4180727  50.2129126
  26.8204069  65.1826763  50.1519537  15.6050813  57.9675007  34.6527410
  16.1186850  58.4714413  35.2839994  14.8018146  58.4752274  34.5377946
  39.3446136  92.0887852  28.3789492  39.9713731  92.3421574  29.0565944
  39.8812199  91.9375420  27.6008677  22.4376082  87.0017529  54.2815399
  21.6109872  86.7960072  53.8449621  22.3314619  86.6592789  55.1690483
  27.2632551  59.0049696  59.5758867  26.4374471  58.7631559  59.1566038
  27.5193858  59.8216009  59.1472340  26.3706946 103.1406403  62.6598406
  26.0487294 102.3444939  62.2371006  27.2560453 103.2541275  62.3141384
  70.7131243  88.2899570  39.2994189  70.7065058  87.5808525  39.9423456
  70.4571772  87.8707504  38.4778404   9.9289244  58.2944918  63.6465788
   9.3373531  57.7988195  64.2127800   9.3801486  58.9830112  63.2710600
  48.0095434  85.6176662  38.8848782  48.5849142  86.3783836  38.8042903
  47.3538399  85.7394981  38.1982613  25.0011659  67.1917677  69.5596504
  24.1379309  67.5693560  69.3908787  25.0378919  67.0938444  70.5111217
  30.7178903  98.4487820  60.5953693  31.5729260  98.7713814  60.8801126
  30.9198332  97.7841759  59.9367762 108.5702681  75.0642538  62.6351309
 108.1938129  74.3078852  63.0850410 109.4381379  75.1675892  63.0254555
  18.7210703  63.6079121  57.0735598  19.2375422  63.1576061  57.7419281
  18.6471331  62.9737377  56.3604116  52.9285240  74.6373034  61.9059372
  52.6321888  75.5085182  62.1693850  52.1899414  74.0623426  62.1063042
  32.7188921  59.4848061  51.5514755  32.3573399  60.3486872  51.7495251
  33.5082793  59.6667004  51.0415602  37.8790474  60.0231743  56.3059235
  37.1236610  60.5117702  55.9789705  38.4730935  60.6955576  56.6394567
  34.0298343  71.5266657  77.0455742  33.9556766  70.5910587  76.8574858
  33.1734705  71.7687082  77.3981142  22.6192570  76.0538673  46.5452814
  23.5412979  75.8445263  46.6944456  22.1671152  75.7049084  47.3134089
  29.5152426  59.4203663  50.9011936  30.2641177  59.0648746  51.3797760
  29.1492867  60.0830269  51.4870167  28.0029392  23.6266923  55.0598001
  28.5869598  24.2203426  55.5317450  27.3206711  23.4072804  55.6943083
  41.3832903 103.8253498  49.7634697  41.0526466 104.2028046  50.5785942
  41.7535734 102.9817104  50.0230789  40.4768467  86.0150719  60.6666899
  41.4018250  86.2029362  60.8259249  40.0376844  86.2689781  61.4784145
  43.1851864 102.3540783  62.2113800  43.2501936 101.7517662  62.9524755
  44.0926838 102.5136662  61.9521189  36.1048293  80.4274273  48.7251472
  36.5068150  81.2734222  48.9224577  35.6367278  80.5707073  47.9025984
  28.7880802  85.9126854  36.0868192  28.1737614  86.5996552  35.8281350
  29.5543385  86.3861465  36.4107203  84.4479942  63.8705444  40.0529480
  83.9437294  63.9943743  39.2488170  84.2480469  64.6425676  40.5823183
 107.0932084  66.6082859  68.5705900 106.1763307  66.7286348  68.8177395
 107.5771984  67.1930265  69.1537380  26.9695592  90.5188560  88.6954689
  27.0627093  91.4701653  88.7462616  27.1240139  90.3119469  87.7737522
  21.7272067  74.9513483  34.1204739  21.8067503  75.9031868  34.1830134
  22.1475291  74.6231318  34.9153543  26.3131905  36.0268950  82.2425747
  26.0503483  36.7681599  82.7881718  26.6391039  36.4266706  81.4362335
   0.4330498  91.9452000  57.0676088   0.7073981  91.7208195  56.1784363
  -0.0695099  92.7535439  56.9664001  26.7273808  89.6143246  82.2146511
  26.3668203  88.7654781  82.4709511  25.9991574  90.2261829  82.3221302
   7.8134865  65.3154802  30.5840993   7.6721436  65.5238295  31.5075946
   7.2489697  65.9271574  30.1114440   6.3140821  52.8206253  43.9705420
   7.2507882  53.0176258  43.9685345   6.1653203  52.3726892  44.8032808
  20.3787398  85.1045990  43.2032919  19.9988508  85.8314323  43.6968756
  21.1153078  85.4941082  42.7321386  61.0673904  92.6099014  40.2819014
  60.2804613  93.0961609  40.5279064  61.4190149  92.2876072  41.1117935
  14.2909694  89.8228645  61.0667419  13.8444018  89.0318394  60.7649422
  13.8388121  90.0589180  61.8767214 107.5543778  48.2294846  70.3821278
 107.6812660  47.3003340  70.5739832 107.2173824  48.2452393  69.4863510
  37.6786685  63.0904579  61.9752359  37.0476437  63.2243299  62.6824284
  37.4827194  62.2148037  61.6419744  83.1917338  33.7367829  16.8087220
  83.7604766  33.7409982  17.5786221  82.3188977  33.9230355  17.1547067
  39.5841169  79.7066116  49.6526241  40.4737663  79.5619249  49.9748278
  39.3674040  78.9036083  49.1788578  52.4883127  63.0714703  52.2196054
  51.9879913  63.6235476  51.6186666  52.5534201  63.5889006  53.0222607
 106.0802814  90.4404163  30.6355691 105.4208180  90.7395840  31.2615347
 105.5744966  90.1343536  29.8827481  36.1179328  72.0953465  86.1422062
  35.7358170  72.9550123  85.9655952  35.4996920  71.6769409  86.7413330
  98.1026230  36.4258850   1.6123697  98.4586963  36.9432438   0.8900281
  98.0389104  35.5373943   1.2619897  38.6516450  13.2650288  49.0430784
  38.4107778  12.5128278  49.5838308  39.6059914  13.3076009  49.1034269
  18.9174509  87.5736618  77.3248816  19.8351371  87.6178265  77.5934601
  18.9298987  87.7915764  76.3929033  24.0926480  58.4069777  63.4446669
  24.3981647  58.4828043  64.3486261  24.7860432  58.8108492  62.9228210
  76.0995035  15.2715691  40.3216410  75.3450112  14.9706086  39.8152876
  76.6919427  15.6454953  39.6693921   4.0092900  97.0593166  61.6565084
   4.4436640  96.4927387  61.0188961   3.8305137  97.8676414  61.1760092
  45.8090401  74.6367741  17.1385741  45.1683998  74.7991467  16.4461493
  46.2069368  75.4918671  17.3020482  44.3821764  68.1173754  50.4513836
  45.0065422  67.5843096  49.9592066  44.8873711  68.8806629  50.7313728
   2.6509717  60.7936239  42.7721262   1.8053919  61.0983944  43.1012821
   2.4467915  59.9882936  42.2967529  31.3541269  74.0086889  38.4369326
  32.2200108  74.1735458  38.8101602  31.0279703  74.8758459  38.1963158
  56.2697697  97.6189804  75.8021545  56.8024111  98.3986855  75.6453419
  55.9093142  97.7476406  76.6795111  23.7002635  86.7471600  67.3434782
  23.9634228  86.3811588  66.4990711  22.7558184  86.5972328  67.3856306
  32.6527047  77.4667406  65.9635067  32.0210552  78.1173563  66.2700224
  33.2697654  77.9656363  65.4281855  28.0727553  69.0009165  42.1053600
  28.6043930  68.2235956  42.2767115  27.9826808  69.0242481  41.1526966
  98.2581743  39.5641589  48.2839537  99.1121372  39.9873137  48.3729362
  98.4030994  38.6668158  48.5839558  20.0948858  56.6845942  62.3323154
  19.7896349  56.0228586  61.7117071  20.8455062  56.2783861  62.7656651
  22.9995823  68.5853291  49.5373583  22.0842242  68.6338663  49.8130322
  23.0268025  69.0678787  48.7111425  39.5707369  48.0428934  34.4187641
  38.8662529  48.2308578  35.0389314  40.1697493  47.4737930  34.9020267
  36.4310408  78.8436222  40.4774809  37.2621512  79.3112326  40.5601025
  35.7792902  79.4493866  40.8303308  36.0871935  40.7567692  22.0317245
  35.4165196  41.3711357  21.7334270  36.8309712  40.9130144  21.4498186
  18.4823799  31.5228009  52.5653791  19.2187202  32.1017671  52.3683167
  18.7931585  30.9775686  53.2881308  54.6835899  64.9330521  77.7984047
  54.2767239  64.2894459  77.2183466  54.2299652  65.7527971  77.6022673
  25.6815290  71.4210701  50.3524065  25.8455157  71.2927675  51.2866879
  26.2088799  70.7480812  49.9220419  39.2245483  77.9926872  65.7346869
  39.7223401  77.5793982  66.4401150  39.6674395  78.8282585  65.5867004
  54.1911888  79.7345161  32.3867440  54.1871691  78.9086199  32.8705931
  53.4180832  79.6864223  31.8244028   5.0601357  61.8924904  61.2237358
   4.7915530  62.4295855  60.4783297   5.0453168  60.9953880  60.8902359
  28.8164091  47.9351616  88.7462234  29.6080232  47.9032230  88.2090473
  28.3846426  48.7495899  88.4883118  44.4457626  73.5292625  75.4109573
  45.0225973  73.0089855  75.9702492  43.9806843  74.1058922  76.0171223
   7.7394694  37.0963788  31.9250989   7.6433593  37.6256394  31.1333418
   7.2065693  37.5467467  32.5803995   5.4330933  87.9087162  73.2972717
   4.9051055  88.5123730  73.8198280   5.7726401  88.4456921  72.5813103
  32.7552438  65.5618382  60.0691843  32.1687579  65.1929474  60.7296276
  33.4382057  64.9002838  59.9590158  13.7715185  57.1800852  28.6207533
  14.5403016  57.6954460  28.8648915  14.0878320  56.5856600  27.9404306
  54.1043711  59.6746731  45.9197474  53.9556742  59.8362064  46.8514299
  54.7418356  60.3398371  45.6600904  41.9538403  68.3179903  41.8677902
  42.0589638  67.7182817  42.6063871  42.5564909  69.0374947  42.0558262
  44.7210407  83.9347172  82.9487801  44.7339964  84.2331696  83.8581657
  43.9277554  84.3235588  82.5803661  85.3700844  21.7437955  88.0161810
  86.1361698  21.3047429  87.6466185  85.1844243  22.4565717  87.4048633
  19.7087872  65.8072519  22.9658532  20.4834890  65.3735209  23.3235478
  19.4185138  66.3935852  23.6645555  63.9100122  77.1358013  55.5558872
  64.6543694  77.7200556  55.7001734  63.1677580  77.5908136  55.9536982
   4.8563898  62.6848078  44.8719549   5.6106329  62.4838448  45.4259968
   4.4691402  61.8316793  44.6758938  18.3981121  56.4120150  29.0694213
  17.9525995  55.5650949  29.0475130  18.9208055  56.3870239  29.8709202
  39.9016571  66.6368628  73.1830072  40.6128359  66.0026217  73.0925083
  39.9712801  66.9476032  74.0856838  15.0910282  62.7438593  36.6757178
  14.4310188  62.1947861  37.0989680  15.9202135  62.4630785  37.0628214
  10.4074299  59.9034548  42.9942942  10.9896183  60.4905081  43.4766436
  10.3227556  60.3067589  42.1303463  23.9738989 101.6476440  44.7479868
  24.3475938 102.1821976  45.4485846  23.9432740 100.7629395  45.1121187
  74.7077470   3.2503041  41.9240427  74.4932990   3.0731782  41.0081434
  75.6619267   3.1853589  41.9635010 110.9008018  41.7252064  46.1178207
 110.1762235  41.7172670  46.7432404 110.6680907  41.0570049  45.4731607
  84.1556268   2.8172501  36.4084268  83.5703807   2.0636090  36.4842391
  83.7719302   3.4774693  36.9855833  48.0600643  81.6030025  51.0671616
  47.8120232  80.6848240  51.1751842  48.6638355  81.6021919  50.3244019
  75.3610759   8.6067971  41.5432501  76.0747437   7.9904565  41.7076683
  74.6757822   8.0767068  41.1363077  26.6838193  67.0140553  79.9321556
  27.3579717  67.1065903  79.2589617  27.1686053  67.0090151  80.7574940
  58.3139133  75.7999468  67.0683384  57.4767160  75.7436275  66.6077375
  58.9616156  75.9209013  66.3740206  17.3164415  57.5133944  25.7118249
  17.0812511  56.7340565  26.2153649  16.6050148  57.6135921  25.0793195
  46.9907522  88.4225178  82.1782112  46.4705849  87.8603554  82.7523518
  47.8271198  87.9655647  82.0892143  40.1115370  76.8581247  70.9960222
  39.8398709  77.3608685  70.2281189  39.9828053  75.9443140  70.7418489
  41.1398125  55.5474901  53.8761616  41.8265963  55.2714252  53.2692432
  40.5807829  54.7764349  53.9720345  22.8853273  35.1399350  42.0224619
  22.1842480  34.7805357  42.5661135  22.4966383  35.9108663  41.6091633
  41.7950153  31.5021539  47.3274422  41.2254333  32.2028208  47.0098400
  42.4465609  31.3907838  46.6351128  15.9038794  65.7347059  69.5723772
  16.6563869  65.2129412  69.2935801  15.3495979  65.1186943  70.0514746
  90.9456710  10.1507302  83.4877721  90.5919091  10.8278056  82.9110072
  91.5107230  10.6261607  84.0968004  18.7674344  70.3786421  41.9123220
  18.8016009  70.7128811  42.8086185  19.6219623  70.5992270  41.5417051
  30.4211664  53.9917612  70.4405451  31.1226845  53.8333750  69.8088646
  30.8708477  54.0788889  71.2810373   7.4183434  54.5804501  56.9629765
   6.9738436  55.3895187  57.2160673   6.8421841  53.8828230  57.2753716
  29.7412872  62.6373672  78.0295086  29.8360229  63.0410480  77.1667814
  28.8248491  62.3634911  78.0664635  14.1300309  68.6452198  74.0447855
  13.4243488  68.6622143  74.6912813  14.1670501  67.7338362  73.7545347
  22.8329134  73.2513714  42.7395058  23.7026358  72.9476643  42.9994583
  22.4435067  72.5034142  42.2865629  93.1590327  53.7363291  89.1951561
  92.7501806  53.1399441  88.5679436  92.5684603  54.4888115  89.2301559
   0.5566160  80.4733467  56.7980957   1.4715476  80.4182625  57.0739555
   0.3430322  81.4042664  56.8612814  23.5746336  78.2454824  59.1784000
  24.2379689  78.4383917  58.5158253  22.9105639  77.7379894  58.7118244
  63.0174494  84.4708729  67.8485250  62.2065592  84.4407558  68.3562469
  63.4114408  83.6077404  67.9750252   7.6118577  70.7414675  65.6124115
   8.5273510  70.8748484  65.8579922   7.1721941  71.5487003  65.8794355
  26.3678622  75.6529808  62.6652765  25.9845996  76.3214636  63.2331467
  25.7159948  75.5210781  61.9768715  36.4891887  63.4255791  53.7205076
  36.4648438  63.9704847  52.9339218  37.0718431  63.8938999  54.3183613
   7.6363552  95.6023407  61.3427162   7.9038620  95.7667065  60.4384756
   7.5213015  94.6532440  61.3896990  34.2314076  72.2484303  72.8308725
  34.6077967  72.8071308  72.1508646  33.8073421  72.8584146  73.4344625
  26.9315934  58.9965487  52.1720600  27.1762204  58.1899738  51.7183828
  26.9886208  59.6759748  51.5002298  24.9497676  71.5852499  74.2702770
  24.6766257  71.0340881  75.0036573  25.7526302  72.0083332  74.5746469
  42.2491455  84.8917484  56.7527485  43.1973600  84.9815750  56.6576481
  42.1305656  84.5137596  57.6241255  27.8488135  79.1170263  26.8807817
  27.1894526  79.7338581  26.5629864  27.4108791  78.6406088  27.5860977
  37.4512649  44.4085884  26.7525339  37.0871305  43.5374975  26.9101596
  37.4648023  44.8222923  27.6156092  39.6847796  55.9607029  63.8037205
  38.9541912  55.3439713  63.7577391  40.3908920  55.5320215  63.3201218
  14.1908896  96.1032009  54.4937563  13.8410938  96.0325146  55.3819466
  14.8565102  95.4171848  54.4431829  40.2931643  94.0146065  38.8538480
  39.3861413  93.8005829  38.6353540  40.4300547  93.6243725  39.7171044
  53.3233213  60.6561279  51.8112993  53.1980085  61.5924978  51.9653749
  52.4705410  60.2656984  52.0025206  14.2301738  73.3146620  84.7571087
  13.3549297  73.6683178  84.5986652  14.7523248  74.0742636  85.0151730
  48.9053154  89.0556717  60.2397203  48.6440182  89.8118019  60.7652998
  49.5250320  89.4099140  59.6019888  45.7561159  72.6510525  48.7070227
  46.3873291  73.3189631  48.9747810  44.9549150  72.8752184  49.1803646
  53.1940985  36.9553757  71.5083361  53.9568806  36.4507604  71.7907524
  53.5325146  37.5433111  70.8330345  64.6990824  76.2272596  29.3177652
  65.6336880  76.4328194  29.2956495  64.2653227  77.0794392  29.2745113
 102.7902868  84.3782425  84.8394108 103.0236145  84.9027920  85.6053352
 102.4102315  85.0066566  84.2254925  67.7095556  77.0737553  57.6677704
  67.3748207  76.2059402  57.8937817  68.6582088  76.9989491  57.7711678
  93.5838513  31.1711415  70.7824707  93.9621739  32.0385941  70.6388378
  94.3404822  30.5923566  70.8760309  38.0373788  97.8458118  72.8972673
  38.3096957  97.2915649  73.6286306  37.1910000  98.2013130  73.1683493
  63.2507133 100.7011890  53.0553150  62.9515839 100.0750732  52.3959780
  63.4051466 100.1705647  53.8368607 100.8910779  34.8557111  84.4117103
 100.4985193  35.5744096  84.9072949 100.2230433  34.1701718  84.4141099
  81.0637479  11.4320477  59.5256901  81.3563161  11.9150266  60.2985859
  81.6598992  10.6852254  59.4700861  23.9551497  86.1396599  47.7306509
  23.9838433  85.5080795  47.0119524  24.1168952  85.6165600  48.5157871
  60.8643627  74.7181797  57.3621178  60.3913116  75.1167965  56.6316700
  60.1816273  74.3138170  57.8974676  37.0842195  69.2020226  54.6695614
  36.4566946  69.9219131  54.7343826  37.8965569  69.6176910  54.3804979
  55.5024910  71.2609816  47.0031261  54.7569036  70.6812143  47.1586990
  55.8780479  70.9522057  46.1785984  37.2406173  55.5932331  72.2829628
  37.9994345  55.0372028  72.1061563  37.5353885  56.1887503  72.9719496
 105.9900304  89.6464634  24.6242356 106.6450255  89.3642521  25.2626491
 106.4999872  89.9083519  23.8576937  61.6630225   8.9327535  55.6631613
  62.2778444   8.2007703  55.7124710  62.2043376   9.6843728  55.4217482
  74.8130083  98.0513382  36.0121965  75.6767321  98.1884670  36.4013124
  74.5183516  98.9286709  35.7678771  77.3850393  68.8238955  17.8055632
  76.5049696  68.6783981  18.1527567  77.8449917  69.2874622  18.5054040
  14.7258115  59.3833113  58.8245010  15.6501722  59.5521355  59.0069485
  14.2683327  60.1447248  59.1811419  50.8694792  75.0844383  49.0558577
  50.7515478  75.8508396  48.4946537  51.5456772  75.3467512  49.6805000
  77.6397757  20.6283387  77.6950693  77.9334311  19.8229226  77.2692776
  77.7344899  20.4526147  78.6312246 101.3731246   5.3266820  48.9925051
 101.8725495   4.9065980  48.2922697 102.0159631   5.4839333  49.6840668
  45.8416653  76.5153074  56.0877609  45.5001545  77.4075174  56.0280418
  45.2431965  75.9934902  55.5531836  39.7559738  84.2866707  37.6492333
  40.6526327  84.3155193  37.3154664  39.2096877  84.2407608  36.8645692
  22.1162200  59.2450428  58.1529140  21.7347884  60.0429487  58.5190916
  21.8848848  59.2731905  57.2245169  12.1574922  27.4136325  84.8855326
  11.2599607  27.1177836  84.7333971  12.7041240  26.7214223  84.5136831
  60.0023794  77.2567463  28.5313916  60.2403116  76.3308668  28.5801244
  59.5567036  77.3454905  27.6889396  36.1184835 101.2466145  79.0101433
  36.7510343 100.8301449  78.4247732  36.6181016 101.9317436  79.4542313
  55.4307585   1.5879353  55.6596994  54.6987395   2.2046288  55.6681824
  55.2758925   1.0219392  56.4159346  50.4493189  32.5216651  62.0040989
  50.0187397  31.7222667  61.7011166  50.6916142  32.9823995  61.2008238
  80.2464008  62.4431610  48.7791491  80.2765751  61.5004492  48.6160278
  79.3151855  62.6622248  48.7463665  62.3076391  88.5102463  48.4027910
  62.8235054  87.7156639  48.2658863  61.8243647  88.6259747  47.5846910
  49.1366243  81.8382645  76.2125015  49.0205765  81.4048290  77.0580196
  49.8104143  81.3225555  75.7694626 110.0829539   6.4652193  14.6436712
 110.4494629   6.6577042  15.5067273 110.8468399   6.3717163  14.0744897
  18.5931587  75.7357979  85.0908756  18.1816864  75.2055264  84.4084263
  18.9182520  76.5091372  84.6299076  47.5738811  98.6987591  29.0798950
  47.8563166  98.7537479  28.1669664  48.3848095  98.7552452  29.5853043
  17.2529888  60.8557129  69.5406294  17.3586619  61.7588139  69.2414999
  16.4179921  60.8545637  70.0086164  21.8088460  86.6917133  70.4380798
  21.4123106  85.8216286  70.3938580  21.2034130  87.2555923  69.9567080
  36.8981028  74.8409510  74.6098900  36.9242764  73.9313412  74.9068117
  37.2707868  75.3407955  75.3361797  74.9647570  80.5854416  51.0673237
  75.6570864  80.9048176  50.4886103  75.4236603  80.0590801  51.7219925
  67.1349478  73.1243420  78.5979700  66.5110064  72.6845217  78.0204916
  67.0173359  72.6979113  79.4468260  20.1290011  25.4843259  69.5791578
  19.2112958  25.2462673  69.4473362  20.5719018  24.6510839  69.7397280
  20.0301337  74.7005844  60.8524370  19.7419393  73.8120031  60.6436443
  20.7268095  74.5809841  61.4978600  48.8125496   2.6702317  34.4795656
  49.5425587   2.0619115  34.5947313  48.0840545   2.1188458  34.1940951
  49.1880655  71.3832951  70.0010633  50.0686884  71.0143423  70.0689173
  49.1513824  72.0442772  70.6924295  53.9560461  68.2911110  29.9065948
  54.6314144  68.3703661  30.5802631  54.3492079  68.6817408  29.1261697
 106.2984380  45.6650532   1.9162580 106.8907866  45.8489979   2.6453134
 106.8092165  45.1101959   1.3267919  62.0705223  90.7194901  44.3672466
  61.4133501  91.3189316  44.0136528  62.4036741  91.1625671  45.1475811
  29.6660256  85.2431583  28.1969357  29.3999839  85.7774258  28.9452720
  29.5621061  85.8210945  27.4410129  29.6162176  88.6724758  54.1833305
  29.1331410  88.3115673  54.9267101  29.5391393  89.6210957  54.2853880
  15.3302968  84.7610474  57.3761749  15.5732703  84.2446136  58.1446123
  15.4743338  85.6690884  57.6425314  49.7769551  17.1922215  71.2753630
  49.0445607  17.5885495  70.8033943  50.4270892  17.8918084  71.3397074
  48.3347034  93.4985352  77.9599857  49.2732906  93.5658932  78.1353474
  47.9329205  93.4372425  78.8266134  77.0726732  49.0163887   4.6699544
  77.5485897  48.9953983   5.5001947  76.5939832  48.1877888   4.6472665
  26.9146943  83.5104370  53.3308554  26.1460900  84.0680313  53.2101440
  27.5355005  83.8113689  52.6673269  57.8959751  86.0885525  44.0138292
  58.3666611  85.2833748  43.7984800  57.2667027  85.8257771  44.6855402
  28.6228228 102.8545380  53.1508350  27.7393770 102.7600098  53.5069561
  28.9951038 103.5964298  53.6275196  57.9321337  95.2419758  65.2233410
  57.8104877  94.4357872  65.7248402  58.8088799  95.5427170  65.4623175
  48.1513548  96.1479950  34.7639632  48.1206894  95.9153271  33.8359785
  49.0745831  96.3354397  34.9335122  37.3448110  57.5289011  52.3114491
  37.8209496  58.1177425  52.8969288  38.0154705  57.1825171  51.7228317
  48.5073853  65.5919075  62.0406055  48.7635660  66.3060236  62.6242495
  48.9024544  64.8114729  62.4292898  68.8006258  90.3462601  60.2364731
  69.3769073  90.0879860  59.5171499  68.3072567  91.0909271  59.8925543
  17.5676247  23.0640611  64.8373175  17.6079365  22.2832116  65.3894758
  18.1322762  22.8597173  64.0919018  23.6507511  81.7476177  56.1005402
  24.3151450  81.4189720  56.7061853  22.8555298  81.8121815  56.6293955
  56.0667562  93.9524078  40.2029371  56.0352421  93.0849075  39.7996092
  56.2311935  93.7797070  41.1299610  95.8815102   6.5741738  64.7509718
  96.7191796   7.0198354  64.8771572  96.1037879   5.6431493  64.7467804
  52.2295332  66.4709377  30.3976750  52.9859734  67.0069885  30.1596069
  51.9339466  66.0926056  29.5695901  48.7165594  67.8108358  52.6159430
  48.0764484  68.2424164  53.1818295  49.5588303  67.9705620  53.0417395
  42.7547741  61.7098331  69.1202450  42.1754122  60.9771824  69.3295097
  42.5747538  61.9022703  68.2000303  51.8372345 100.5964184  23.3391953
  51.3887501  99.7528362  23.2803512  52.7282190 100.4153824  23.0398583
  50.8014774  96.0958481  60.6066895  50.7076216  95.1896477  60.3130245
  51.5878916  96.0905552  61.1523628  32.3944998  83.2529259  48.5269785
  32.5346804  84.1668415  48.2793188  32.7596831  83.1851196  49.4091797
  58.1052065  85.8074856   6.2343156  57.6499271  86.4861107   5.7358867
  57.7737331  84.9841022   5.8760041  97.9037432  10.5677327  55.5869102
  98.2455735  10.4676255  56.4753675  98.4373193   9.9756345  55.0568628
  75.9054904   0.0780591  55.7788992  76.1793022   0.9058770  55.3839588
  75.4355650  -0.3768817  55.0800180  75.0073671  65.2479792  10.2217579
  75.8802128  64.8640203  10.1384425  74.8511839  65.6730223   9.3784451
 101.5132241   1.1099824  64.5048904 101.9539790   0.3358373  64.8551130
 102.1136718   1.4472493  63.8400984  27.5880909  69.5502472  39.4977093
  28.4387946  69.3224478  39.1226816  27.3493886  70.3718519  39.0684986
  48.9217901  85.6423283  59.3957949  48.3036900  86.2056160  58.9300823
  48.3929873  85.2089024  60.0656700  63.2309294  76.4004850  34.5977712
  62.3274803  76.7123508  34.5452714  63.5063171  76.3095808  33.6855602
  79.0256886   2.6467713  40.1760101  79.4557099   1.7933759  40.2310991
  79.6800380   3.2192906  39.7756696  60.2952957  92.7927303  21.2544274
  59.8358250  93.4989929  21.7086554  60.8633423  92.4082851  21.9220734
  21.7163062  98.5658073   9.0363425  21.5514374  98.0411625   9.8197967
  21.2664652  98.0957317   8.3342671  52.5751209  99.6604347  39.6447134
  53.3370972  99.0818119  39.6732783  51.8274593  99.0788841  39.7826862
  17.7722069  11.7632493  60.1208687  18.4835335  11.2198743  59.7817802
  17.9516884  12.6369294  59.7734594  21.7134547  76.6403627  69.5635653
  20.9451699  76.6488218  70.1344395  22.0662999  75.7547712  69.6499538
  55.8960342  91.4579868  39.3660331  56.6445255  90.9593868  39.6937299
  55.2596426  90.7917976  39.1063619  50.4625778  31.1660584  75.8344698
  50.4648154  30.7268914  74.9839640  49.9134843  31.9390782  75.7034206
  38.0556107  98.7767315  38.9094782  38.7228680  98.1145763  39.0898848
  38.4667945  99.6048355  39.1572881  31.1743426  80.5534840  45.7006788
  31.9112015  80.8704281  45.1783657  30.6195259  81.3236427  45.8242416
  39.8773646  75.9749651  24.1368747  40.5570173  76.0197878  24.8094034
  39.0567350  75.9347820  24.6279836  29.0506983  40.1034403  48.9974260
  29.7937703  40.6945372  49.1185856  29.4119406  39.2302251  49.1498470
  22.5812840  50.4597712  53.0294275  22.2171664  51.2102938  53.4988642
  23.3750367  50.2355862  53.5151529  34.2307806  98.4237766  83.5050392
  34.6808910  98.7604046  82.7302456  34.0536880  99.2005730  84.0355587
  37.3629689  67.6273251  76.6933823  36.8599868  67.5297785  77.5019169
  36.7418242  67.4124861  75.9975004  62.5563335  92.5754642  51.9731331
  61.9412661  92.4497128  52.6957083  62.7088118  91.6941166  51.6322517
  34.4718051  79.0847492  38.1431913  34.9384451  78.7081432  38.8892794
  35.0309682  79.8038578  37.8491640  93.4502820  74.8368665  84.2321501
  94.3956736  74.8556539  84.3808529  93.1150070  74.2362996  84.8978362
   3.2720897  86.9259357  39.7489953   2.3936173  86.8303490  40.1169348
   3.1647342  86.7290306  38.8184381  58.4999514  81.8642139  45.6857538
  58.6752796  80.9558964  45.9316063  59.2164278  82.3616314  46.0800457
  76.6371441  88.8501740  58.4182549  77.0898771  88.7176037  59.2511320
  75.7392502  88.5637188  58.5854721  28.3167863 100.6348515  63.8051176
  28.5686517 101.5568638  63.8569498  28.7488675 100.2260113  64.5550442
  82.0159678   8.7333402  73.0209875  81.5756898   9.3811807  73.5711622
  82.1321826   7.9737386  73.5917234  40.4090166 103.7363338  64.0933037
  40.5569983 102.9982090  64.6844912  39.6927381 103.4495831  63.5267830
  32.2389150  83.2833862  35.5352283  31.6512871  83.7457371  34.9376059
  32.1684837  82.3643494  35.2770805 109.3385892  14.7035226  52.4681664
 108.9349656  15.2941235  51.8321609 109.5674949  13.9250287  51.9604492
  30.6836963  71.4592934  70.3695869  30.2177501  70.6268215  70.4477787
  30.0916481  72.1026611  70.7591867  26.3839054  28.8129330  62.6134109
  25.7151914  28.2301474  62.2536659  27.2100687  28.4664011  62.2763634
  91.7316155  18.0751141  48.6421680  91.4513783  18.9122876  49.0120983
  92.1741013  18.3098229  47.8264761  43.6042595  77.6831055  24.5414948
  42.9541159  77.3397923  25.1544237  43.9367437  76.9092607  24.0866828
  14.1617584  69.3939066  61.5767479  13.4808087  70.0344324  61.7823267
  13.8599801  68.9736319  60.7714319  59.4238615  77.4715328  48.0174732
  59.9740458  77.5865936  48.7922573  59.1491604  76.5552759  48.0527067
  89.4968848   7.7282056  57.9012823  89.4693618   8.5251721  58.4307384
  88.8304095   7.8648480  57.2279501  60.7757282  71.2904596  58.6612892
  60.2445841  70.5469227  58.3762121  61.5734816  70.8944607  59.0120125
  68.1665468  89.6603298  62.6861715  68.3147383  89.8789501  61.7661333
  68.4681559  88.7556648  62.7689648  59.3645906  72.0331287  82.2982883
  59.2349863  72.9329348  82.5979233  58.5098171  71.7684031  81.9584084
  52.2945356  96.9909477  27.9005241  51.5939140  96.5389442  28.3706903
  51.9502831  97.1111679  27.0154977  10.5959988 103.6280346  55.5156040
  10.3871036 104.0712738  54.6933270  10.3373659 104.2502022  56.1954927
  60.6084919  73.4550095  42.1551228  59.9668121  74.1554022  42.0371199
  60.8776188  73.2244349  41.2659454  68.8204098  80.5728817  54.1686726
  68.7381697  80.2391434  55.0620317  69.6464157  80.2076054  53.8516283
  41.0879278  76.1667681  76.0120249  40.2967930  76.3563919  76.5163803
  40.7682991  75.7434130  75.2152538  70.1930599  16.3524159  50.7965803
  70.0061922  15.8735761  49.9890947  70.9701710  16.8725690  50.5922079
  29.7414541 101.9127274  50.8644724  29.3748975 102.2840500  51.6669607
  29.0213108 101.4116001  50.4817200  41.0909843  70.1485348  71.7051029
  41.4226770  70.1466322  70.8072090  40.2502632  69.6941423  71.6508245
  24.1156554  65.8692694  45.9754038  23.3057833  66.0413551  46.4557409
  23.8422346  65.8043003  45.0603867  90.3503899   2.6140794  61.8687153
  91.0850577   2.9491242  62.3827696  89.5898156   2.7211579  62.4399328
  42.4917841  75.6535625  49.0125179  42.0149755  75.5268145  48.1922579
  42.7773142  74.7746229  49.2618561  25.5273915  27.6497734   7.7109357
  25.3236199  28.5043228   7.3308774  25.2604962  27.0200241   7.0412942
  47.3919535  98.8744736  79.8143625  47.7151537  99.7692299  79.7085905
  47.6493883  98.4297943  79.0067625  96.2322578  15.9071768   0.3827783
  97.0395264  16.1456573   0.8384916  96.0217724  15.0326908   0.7101938
  58.1990099  86.8465710  79.2138100  58.2704115  86.2444687  79.9545002
  57.3121119  87.2008896  79.2778111  69.8105292   4.3217286  29.9188972
  68.9976649   4.7789868  29.7034907  70.4810982   4.7693643  29.4029593
  66.3570642  88.3246803  27.5406361  65.8621979  88.4777737  28.3455586
  67.2464943  88.1343555  27.8388357  40.8999062 102.9054356  72.5813246
  41.0036373 103.2943630  71.7128754  40.3080225 102.1659184  72.4434280
 103.6605220   4.4073972  61.1013889 104.1485696   3.6670693  60.7409096
 103.6702256   5.0630196  60.4040384  32.8575730  66.9587564  37.5144339
  31.9368911  67.0751190  37.2798395  33.0605888  67.7122784  38.0687094
  51.5464067  70.5524492  70.8923388  52.2916412  70.6489563  70.2994251
  51.8888760  70.0425291  71.6264582  63.4111595  65.6154919  20.0259304
  63.7430239  64.9648142  20.6445694  62.7242994  65.1571941  19.5417666
  38.2672882  80.4417229  45.3773499  37.7569985  80.0266838  44.6819496
  37.6277161  80.6294060  46.0643387  30.6746674  59.6778822  13.7437797
  31.3196349  59.0127754  13.9843726  30.9727645  60.4720640  14.1872227
  82.3842049  80.9597301  61.3633633  82.3133278  81.6794395  60.7362890
  81.6498280  81.0913372  61.9630289  52.0614939  12.3312863  68.6792040
  52.6940625  12.9775628  68.3654976  52.2084551  12.2914037  69.6242142
  14.7175527  73.9056730  41.8728065  15.0198579  74.8132229  41.9073534
  15.5140519  73.3929920  41.7350483  50.7930899  97.1420670  12.2897851
  50.4700041  97.2384262  13.1856441  51.6319942  97.6030064  12.2868454
  72.4300866   5.5288609  59.0494490  73.2319360   5.9073934  59.4099855
  71.7394476   5.8183392  59.6456480  96.4808898  27.1902570  53.4452581
  95.6908326  26.7452153  53.1386900  96.8888526  26.5670403  54.0464306
  48.3450890  73.8622236  48.6739063  49.2452049  74.0864658  48.9099884
  47.9594660  74.6899462  48.3868456 108.5859160   0.7641419  67.5745249
 108.6017709   1.0647019  66.6658783 108.4007506   1.5527543  68.0844641
  11.2213254  96.9459438  73.5133362  10.9364903  96.1567688  73.9740992
  10.9913814  96.7851353  72.5981855  53.8213396  86.3396072  59.7865534
  53.0677128  86.0118198  60.2773046  53.8984108  85.7448673  59.0405083
  61.5959506  17.9192456  28.1696725  61.9247870  18.0760106  29.0548420
  60.8537726  18.5171231  28.0805016  11.4915574  89.8346043  35.6314993
  12.1910441  89.2550564  35.9332919  11.7093623  90.6881237  36.0060596
  47.1696043 102.3927212  32.5245142  46.9083548 101.9364929  31.7246222
  47.7612400 101.7831039  32.9656076  41.8420935  75.4555559  89.4409657
  41.5141964  76.2837839  89.0905952  42.7893496  75.5792618  89.5012379
  42.4773312  87.3878479  27.1764541  41.9932508  86.6256809  26.8586445
  42.4541664  87.3058128  28.1298518  33.6070037  75.0415611  60.1034260
  33.7560058  75.7582235  59.4866323  32.6790023  75.1082087  60.3283787
  97.2281079   9.0021809  70.7911587  96.9579272   9.4574841  71.5886068
  96.5491443   8.3423146  70.6503820  24.5787430  80.8165359  32.5455880
  24.0279460  80.4168320  33.2187104  24.4216275  81.7565441  32.6346040
  16.6775393  52.2057486  49.3423700  15.9034860  51.6838932  49.1308594
  16.6638827  52.9224348  48.7080145  23.6450768 104.2992878  17.1408939
  23.8410783 105.2026558  16.8924105  22.8865623 104.3695164  17.7205133
  49.6256590  88.3128929  77.0813847  49.1537762  88.8560772  77.7126598
  50.0325441  87.6278305  77.6118279  59.9495606  21.5545854  59.7649193
  60.0278621  22.3639687  60.2698898  60.8386688  21.3766583  59.4582272
  38.3569694  78.7547302  82.4087048  38.8374805  79.5553827  82.6191711
  37.4709082  78.9147711  82.7335358  69.6347074  18.0477914  35.5257368
  69.0092473  18.3708295  36.1743331  70.0668769  17.3102101  35.9563756
  47.5280714  46.3707447  58.4993982  46.8866110  46.5917158  59.1746283
  47.3206186  45.4679489  58.2582378  77.7525430  17.3458489  34.3028998
  77.4189906  17.7639970  35.0967026  77.7279095  18.0360612  33.6401558
  14.3254828  79.0200758  62.1992111  14.3262422  79.9763393  62.1568537
  13.6963511  78.7511730  61.5297985  73.5550833  76.2967730  64.8876095
  73.8058472  76.5137243  65.7855415  73.3274984  77.1383953  64.4925022
  51.4182520  73.0346727  66.0214710  52.0002604  72.2819471  66.1259031
  51.9964838  73.7949514  66.0835409  47.6079464  73.2038641  21.8091726
  48.2403946  72.4862289  21.7738914  47.6481295  73.6015034  20.9394026
  32.5312972  35.2440858  31.7044234  32.6679373  35.6090689  30.8301520
  32.4244261  36.0093260  32.2694159  31.6839790  81.2165737  52.5229263
  30.8832216  80.7819939  52.2293901  31.4430833  81.6270351  53.3534193
  83.5840468  21.1841973  33.4338832  84.3580584  20.6227788  33.4780836
  83.8737254  21.9532880  32.9431581  55.1587200  95.0306129  44.8943520
  54.4453049  95.3902435  44.3671608  55.8910942  95.6288910  44.7462749
  57.2833204  80.5957031  63.4404373  58.0421638  80.2135754  62.9995680
  57.6460028  81.3074207  63.9678431  24.5792985  81.1688137  84.4228363
  25.4934645  81.0298252  84.1754150  24.6152854  81.8375683  85.1067257
  51.8819332  70.4874086  15.1507127  51.4626122  69.7265673  15.5526030
  51.8525124  71.1628628  15.8283019  75.2956867  98.2448959  30.9053159
  74.3923283  98.2331371  31.2216043  75.7449055  97.5895596  31.4391375
  67.4306107  64.3368149  47.6827621  67.2633457  64.0379000  48.5765791
  68.3670759  64.1881323  47.5517845  90.4759034  53.3619642  69.5094442
  91.1598118  54.0155792  69.6553326  89.9203404  53.7441492  68.8300943
  65.3194475  80.6997108  71.0343695  64.5691204  81.2876987  70.9477139
  65.8683014  81.1087990  71.7034292  50.3227282  65.9683657  34.1642261
  49.9869347  65.2845764  34.7438049  50.0357676  65.7037640  33.2902288
  87.9682879   7.2931870  22.7790332  88.0547147   7.9603299  23.4599733
  88.8631491   6.9898232  22.6259947  57.2978592 103.4899807  52.4152756
  57.6384735 103.2036018  51.5678072  57.3375368 104.4456577  52.3788023
  63.4787302   4.8056516  48.9014006  64.3636112   4.4710931  49.0473223
  62.9059176   4.1476830  49.2953444  27.7028728  45.8949566  29.7186160
  27.8729367  45.0339651  29.3365097  26.7512894  45.9300327  29.8160529
  13.0351067  70.3717184  50.1276636  12.9845023  70.8782721  49.3170643
  13.3780181  69.5200634  49.8568773  75.9885006  12.4464806  72.2531414
  76.8671326  12.0669183  72.2661686  75.7674341  12.5068673  71.3237810
  50.8765173  89.9386406   9.7986573  51.6009855  89.7762394  10.4028094
  50.1714039  90.2711201  10.3540933  22.2485685  74.9482346  40.8982325
  21.6477132  74.2743635  40.5802631  22.5002241  74.6514130  41.7727613
  65.0364356   7.9080018  71.3602304  64.5163493   8.2501611  70.6331348
  64.4541411   7.2890862  71.8007994  18.5314465 103.6108017  44.2519045
  17.6075733 103.8609600  44.2414474  18.9555490 104.2360497  43.6641693
  35.6396818  68.2381344  42.4609089  36.2013865  68.1343412  41.6928291
  36.2439394  68.2244396  43.2031441   7.9903406  76.8629265  45.2418375
   8.5773832  76.2232924  44.8387527   8.3045125  77.7096128  44.9245834
  48.7517643  69.7022581  37.5820494  47.8584623  69.4564867  37.3415637
  49.1870117  68.8704300  37.7687287  81.7184071  20.2510461  41.3336182
  81.5508990  20.0031861  42.2428656  82.1578173  21.0993108  41.3936615
   6.6975685   7.8774270  68.3486366   7.2621342   8.5372552  68.7512779
   7.2980305   7.3141774  67.8603411  59.4510870  14.8047646  55.2415466
  59.6111731  13.8612374  55.2225256  59.8871331  15.1056584  56.0387659
  12.3732924  88.9153957  50.2196407  11.6539514  89.2165089  49.6645594
  13.1299329  88.8825226  49.6342802   8.0944568  71.0211182  28.9813399
   8.7808299  70.6678867  29.5473361   7.4833614  71.4465380  29.5828485
  79.4083071  84.5588303  71.5918970  80.0816345  83.9241982  71.8370485
  79.7527313  84.9816227  70.8052254  33.3010745  87.4098587  68.8260841
  33.1169200  86.4775276  68.9404345  34.1758394  87.5283718  69.1961813
  36.8411064  80.3728676  36.9315219  36.7077208  80.6568050  36.0271907
  36.7402864  81.1708450  37.4504590  70.7286100  15.3477391  43.7246561
  69.7971659  15.4941472  43.8895988  70.7578831  14.5328530  43.2233286
  68.3811455  11.4001092  64.8359871  68.3620362  10.4865273  64.5509911
  68.6954908  11.3626870  65.7393217  51.0933542  74.7767162  42.5010014
  50.9268427  74.5041132  43.4033298  51.4423275  75.6645679  42.5795507
  77.6277733  60.8917665  36.7026973  77.4220419  60.0362825  36.3257885
  77.9970121  60.6919622  37.5629139  77.4069886   7.2789487  53.6272573
  77.5693469   6.9223412  54.5005894  76.4573841   7.3926076  53.5876942
  58.9701252  18.9361485  16.4299548  59.8502903  18.6089238  16.2443089
  58.9098410  18.9326486  17.3852479  12.9424345  80.8914471  38.1250405
  12.5425112  80.1856899  38.6331701  13.6233830  81.2432575  38.6984301
  49.5944040   8.4047135  58.8830805  50.5135028   8.2837590  58.6446285
  49.2866974   9.1024693  58.3045578  59.5238400  91.9751930  70.1745224
  58.8748026  91.9661903  70.8780098  59.5250034  92.8796864  69.8612738
  40.4966068  82.4935150  55.3769636  40.0237274  81.6860104  55.1755857
  39.9661279  82.9202938  56.0497808  19.2496228 102.2012424  57.9042625
  20.2037406 102.2367096  57.8361940  18.9984500 103.0740643  58.2064533
  53.4126377  81.3987923  35.6876302  53.0175877  82.0457172  36.2721419
  53.5837984  81.8802452  34.8782229  74.7535038  54.1066170  38.6653090
  74.7464371  53.4735823  39.3832564  74.1513109  54.7951937  38.9471936
  44.1895247  87.9124641  74.6094322  43.8916540  87.1936321  74.0519428
  44.1054726  88.6920261  74.0604019 110.2824788  12.6010713  55.4554224
 109.9236874  11.9828233  54.8188162 109.5169453  13.0596932  55.8016157
  49.3118238  90.8095264  55.8157873  49.5184469  91.7274189  55.6396866
  48.7463140  90.5476761  55.0892401  76.6319351  19.5546826  60.0412750
  75.7115464  19.7615632  59.8790455  76.6736846  19.3676671  60.9790945
  91.9982295  13.6283692  48.4786320  91.4091067  14.3730172  48.5997057
  92.5398927  13.8711175  47.7276945  16.5000154  39.5680416  20.7086488
  15.8556367  39.3824947  20.0255796  16.1711789  40.3565681  21.1403009
   4.9316546  23.7281903  40.5449295   5.2118012  24.6413716  40.4830027
   4.0647312  23.7704572  40.9485197 108.7003283  24.1994199  33.7442493
 108.9317708  23.5102567  33.1215835 108.1573586  24.8053464  33.2399893
 109.7795348  26.4446744  54.3774033 109.2736487  25.8664140  54.9483061
 110.6881862  26.1720094  54.5048189  59.2059040 100.1456547  21.3597417
  59.8336363 100.5332279  21.9696355  58.5888767  99.6735859  21.9189048
  81.2949376  17.4353608  43.2004929  81.9907813  17.2927960  43.8421345
  80.8862977  18.2582005  43.4691763  74.3563938  87.8450680  59.4174528
  74.1120768  86.9689274  59.7156429  73.6169147  88.1302738  58.8807392
  48.4406519 100.3190041  69.6362734  48.0829382  99.9472904  70.4425621
  48.6734200  99.5580006  69.1043663  46.7453576  24.0436304   0.5868551
  47.1261312  23.7921656  -0.2545813  46.5751935  24.9817503   0.5019590
  64.4001918   4.9312505  28.6174560  63.4729771   4.7049626  28.6902523
  64.4102816   5.8871087  28.5678267  57.6241446  87.3943806  16.6449642
  58.4066010  87.0078182  16.2518132  57.3164892  88.0259514  15.9948111
  83.5372353  93.0310345  52.5782156  84.2073250  93.7145519  52.5757504
  82.8719234  93.3500481  53.1879950  69.2846827   5.8769902   9.5824504
  69.4794802   5.4495820   8.7484181  68.3375578   6.0144814   9.5656610
  65.2606440  66.7063284  76.2316704  65.2178049  65.8089638  75.9013128
  65.2673054  67.2512054  75.4447174  54.2317057  77.8997469  65.5100727
  53.7055445  77.5243139  64.8040771  53.7107325  78.6354685  65.8318377
  58.3267789  29.5038232  47.8991365  58.7254314  29.0242204  47.1729898
  58.9559727  30.1956662  48.1033421 107.4261670  14.1441258  54.7432566
 106.8890385  14.9238881  54.8835850 108.1723552  14.4562253  54.2313719
  50.4048061 104.2955971  52.2410154  50.4473877 103.3679485  52.0088720
  50.3969288 104.7528076  51.4001083  47.0561981  79.9457073  43.0569220
  47.2990847  79.8158598  42.1402025  46.2997055  79.3739748  43.1875610
  94.7258472  77.4266529  58.6141205  94.7752762  76.8958092  59.4090986
  93.8295555  77.7625513  58.6057520  19.6029842  86.0689735  53.5984516
  18.9947200  85.5629063  54.1370964  19.9723470  85.4296684  52.9892826
  67.6100378   7.1826848  35.2503538  67.8719430   6.3126763  34.9491334
  66.6638164   7.1167954  35.3790283   3.7300583   1.5800961  52.8660297
   3.3552977   2.4141988  52.5830746   3.2709404   0.9219464  52.3442364
  28.9487077   6.4744318   4.9175283  28.3011247   6.1476267   5.5420801
  29.7905828   6.3386906   5.3523465  50.5233812  60.1530266  52.1689844
  49.8686266  59.4868898  52.3782444  50.3735781  60.3542519  51.2452412
  49.9998808  84.6835995  46.2869167  50.8102798  85.1913166  46.2454796
  49.6294975  84.7514153  45.4068899  41.5471932  24.4431504  41.7583275
  41.3089463  24.8884686  42.5714493  40.8743187  24.7110852  41.1324835
  53.1232643 100.1394272  79.5222950  53.6770010 100.2706909  80.2919579
  53.4401655 100.7814121  78.8869476   4.1391703  30.5986794  80.3109455
   4.1526695  29.8201093  79.7542763   3.5316416  30.3778562  81.0169029
  58.9981890  80.0585175  70.2803659  58.8278961  79.5605707  69.4808149
  58.1338596  80.1873207  70.6709766  67.4654774  10.9502801  50.5575180
  66.8974690  10.8131322  49.7993660  68.2252650  11.4148530  50.2066326
  80.8716297  92.4187374  31.4300895  80.1825714  91.7609310  31.3366818
  80.4172802  93.1975555  31.7514086  29.9759054 104.1774464  37.0843387
  29.8898268 103.8336372  37.9735065  30.9202528 104.2160416  36.9328451
  97.7681308  12.7997598  28.0638957  98.7177138  12.7124604  28.1469631
  97.5624375  12.3893174  27.2239780  55.4308128 101.1471653  63.4163141
  56.2373781 101.6235733  63.2195234  55.4928637 100.3460217  62.8961658
  12.3895645  85.6946278  80.2358818  12.9990923  85.4121304  80.9177113
  11.5241539  85.5984783  80.6334305  73.4724788  16.5933236  28.0479336
  73.0459647  15.8828362  27.5688505  74.3895917  16.5476998  27.7776527
  76.5092993  93.8596821  52.3953629  75.6465960  94.0686607  52.7535534
  76.7347431  93.0171776  52.7898216  19.2549729  93.9719582  75.5620623
  19.3189955  93.2731152  74.9110985  20.0396609  93.8701630  76.1007023
   3.5126206   5.3825387  33.7599206   3.0157467   5.0101670  33.0314374
   3.1012818   5.0158891  34.5426083  74.5615606   2.0920094  32.4983525
  74.9108128   1.5950307  31.7585754  73.7514572   2.4786958  32.1660328
  96.5723281   1.8538197  73.0595875  96.6335730   2.4169930  73.8311625
  96.0508685   2.3585519  72.4354410  65.7568216  89.0932846  63.8572836
  66.4425755  89.5124435  63.3373976  65.0911379  88.8415051  63.2172060
  39.2950797  71.5340328  69.7625589  39.0117502  70.6302929  69.9011612
  38.4812617  72.0263958  69.6552753  74.7587824  81.9356537  24.8125601
  75.3195715  81.5043926  25.4573560  74.6771717  82.8351307  25.1295900
   0.7167574   3.2700738  47.6377630   1.1401459   2.4291810  47.4649143
   1.0472819   3.8501271  46.9518185   2.4805256   9.9396428  31.8438935
   2.3767754   9.8277005  32.7888489   2.9607817   9.1611871  31.5617871
  34.9530411  93.4639645  61.6086197  34.6001840  93.0088997  60.8440018
  35.4051709  94.2259121  61.2463379  51.0362356   7.1790322  77.8661108
  50.9289865   6.3943299  78.4036684  51.9506769   7.4324044  77.9919291
   5.0052878  10.9167966  18.4766102   4.9090000  10.2683267  19.1740716
   5.5391833  10.4784116  17.8140295  68.0367088  84.0694714  33.2711172
  67.3254299  83.7105560  33.8016796  67.7890301  84.9823666  33.1245112
  31.4419270  93.0676079  29.0194869  31.9454694  93.6573315  29.5806503
  31.3982582  92.2477913  29.5116615  79.5416884   7.7544698  56.7168713
  80.1335387   7.0223626  56.8899488  79.9912600   8.2733830  56.0499048
  55.5449820  94.1547871  50.8844137  55.6515646  94.9605942  50.3789043
  54.9473095  93.6209393  50.3609371  81.3885784  93.3329296  47.1458054
  82.1687317  93.1417370  46.6251993  81.5509987  94.2031288  47.5099707
  28.7308812 105.0682354  78.4419060  28.6077309 104.1936016  78.8108158
  29.6695137 105.2346992  78.5284472 110.8125977  13.2263669  61.4301825
 110.7200103  13.9675244  62.0288038 111.7127471  13.2876882  61.1105013
  56.7542410 101.5131378  40.0999546  55.8365870 101.3818741  40.3385210
  56.8960571 100.9230137  39.3597674 111.2746386   7.7752503  33.2920480
 111.6322522   7.8500661  32.4073195 110.3876548   7.4388799  33.1642056
  60.5214787  85.1187515  65.8276320  61.2337780  84.6134377  66.2194395
  60.2842569  85.7585526  66.4989090  66.5258265 100.7987213  42.5677919
  66.9540739 100.0802422  43.0332184  67.0038891 101.5810108  42.8429604
  15.4816719  13.1603822  56.1918116  14.9200054  13.2060822  56.9655514
  15.8701607  12.2863683  56.2291384  48.6120987  71.3655424  29.7751951
  49.4502878  71.8277884  29.7769475  48.7294483  70.6543970  30.4050636
  61.2123089   6.7388352  49.7539759  60.6790261   6.3160905  50.4271269
  61.9101505   6.1096963  49.5711327  59.0524940  11.7162236  14.7345090
  59.2817430  12.3016175  15.4563081  59.5301728  10.9079083  14.9207282
  35.2342248  97.4369144  45.7507181  34.4758153  97.7949142  45.2893209
  35.4228902  96.6142654  45.2991867  15.7073070  22.4195660   6.0568639
  15.6641103  23.3113706   5.7118341  15.1792241  22.4456251   6.8547937
  65.3021698   6.2253770  31.8101501  64.5575099   5.6613835  31.6013002
  64.9695520   6.8230828  32.4797392  36.4604115  99.0644741  40.9948206
  36.6645312  98.2783794  41.5014076  36.8589783  98.9079189  40.1387405
  57.5701046  86.2280464  55.4073095  58.0586338  86.1064529  56.2214231
  58.1164646  85.8182526  54.7366428  98.9181380   4.6011075  48.0754232
  99.8009305   4.9412450  48.2210922  98.5486560   5.1738557  47.4033594
  44.2456484 101.9994736  30.9419107  43.8345289 102.1357536  30.0883055
  45.1595497 101.8003464  30.7385421  37.9161264  23.0181778   6.0739347
  38.8576938  22.9386843   5.9210988  37.6665450  23.8221109   5.6182691
  85.2375226   7.6605042  41.5198088  84.5619874   7.0266255  41.7608261
  85.4507212   8.1066140  42.3394203  83.1151156  13.3727368  55.8011341
  82.9617743  13.1330403  54.8872089  83.0928712  14.3296727  55.8047390
  97.7380471  20.0786218  48.0541182  97.8552823  20.0055417  47.1069431
  97.7623610  19.1749963  48.3689022  42.1833515  88.9283752  44.5842552
  42.2235584  89.3644619  43.7331152  42.3615313  89.6232224  45.2180386
  84.3384075  87.9945469  69.0742540  84.6638680  88.7191296  69.6083689
  84.3714619  87.2347927  69.6555567   5.3369471  24.3042668  72.7815914
   4.5335194  23.9180478  72.4329185   5.4552313  23.8831529  73.6330080
 103.3662419  33.8398179  89.0838814 102.4931817  33.5132989  89.3015385
 103.3506064  33.9499959  88.1331635  71.0178232  77.3271990  24.9887180
  71.6119957  78.0773258  24.9662757  71.3991833  76.7389965  25.6404948
  45.9731340 101.1274910  72.3040485  46.6186237 101.5880966  72.8401613
  46.3246584 100.2417278  72.2141886  72.3617844   1.7380151  44.8464012
  72.8602223   1.6655644  45.6603670  71.4617781   1.8983659  45.1301384
  50.0849514   9.1509541  54.3669415  49.6415894   8.5541924  54.9698782
  49.5468407   9.1352662  53.5754728  51.0802650  82.6832294  55.5221367
  50.4054976  82.1057606  55.1651430  51.1976576  83.3570480  54.8524952
  44.9882524   7.8921994  46.5557384  45.7367437   7.5157555  47.0186472
  44.8522751   7.3108300  45.8075714  64.9927931  14.2565926  45.9024572
  65.3780536  14.8814591  46.5167475  65.6359176  13.5499963  45.8446598
  86.0390239  18.9723786  56.9977331  86.0128836  18.9452657  56.0412741
  85.1571231  18.7173566  57.2687626  54.0831041  80.6983376  77.3618078
  53.3878469  80.8681965  76.7262030  53.8272429  81.1993217  78.1362629
  65.5262470  72.5292683  57.0201302  66.4810562  72.5299072  56.9525146
  65.2329397  73.0520630  56.2738800  16.9387146   3.5624131  42.1873188
  16.4917179   2.7211293  42.0942593  17.3656079   3.5134896  43.0426598
  32.0893621  80.4575825  48.3035803  32.1022034  81.4131355  48.3582592
  31.9299936  80.2727604  47.3780155  97.7822881  27.6035603  63.8296318
  97.4248748  28.4833821  63.7096071  97.1602158  27.0293435  63.3829498
  19.7947502  99.4603443  25.1256871  19.7311580 100.4112911  25.2145147
  20.7010698  99.3046856  24.8600030  84.0745740   2.4464711  53.5047340
  84.2698960   3.1800469  54.0877867  83.1461339   2.5478085  53.2950544
   1.1849261  54.8492611  -0.2006606   1.0451985  55.3145111   0.6241056
   0.9323312  53.9455402  -0.0116328 107.9937844  18.7428292  46.2897205
 108.9319949  18.5533532  46.2992334 107.5917153  17.9830369  46.7107773
  26.1156079   8.5539349  54.3893909  27.0237919   8.5154256  54.0894747
  25.6087776   8.7292775  53.5965443  61.7753124  79.2500210  68.7565327
  61.6346169  79.0885448  67.8236008  62.6801205  79.5572805  68.8126326
  54.2342322   7.9961213  31.5693927  54.1912358   8.3657464  30.6874824
  53.3840029   8.2028779  31.9574571  51.5638876  84.8302364  83.4511852
  51.0808277  85.5075359  82.9777431  52.4556923  85.1721287  83.5146141
  85.4340081  19.1718015  61.3283443  86.3252024  18.9886578  61.0309124
  85.5080466  19.9922761  61.8157578 103.7351804  19.4521722  60.9089375
 104.3765883  19.7417840  61.5577507 104.2420630  19.3393430  60.1048422
  57.8274727 103.4188652  21.3903689  58.1888628 104.3024158  21.4608836
  58.3260727 103.0119991  20.6817865 108.4545140  13.1643685  28.2141399
 108.6772637  13.8101777  28.8846231 109.2995171  12.8769216  27.8683448
  86.9429879  11.7887219  81.3055801  87.4113612  12.5218686  80.9063911
  87.4989562  11.0282906  81.1356354  71.2392406  16.5324792  62.2111082
  70.4438691  16.3727006  61.7030811  71.8602209  15.8753117  61.8968534
  94.6627478   1.4816293  52.1700621  95.1718573   2.2677430  52.3676968
  94.4566636   1.5576848  51.2384081  64.7489075   6.7507848  41.5672493
  64.0467696   7.3986825  41.5083504  65.3103022   6.9369038  40.8146334
  50.1306105 104.6716404  20.6498504  50.1749277 104.0973759  21.4143682
  50.8696461 104.4019604  20.1045680 104.4762902   2.0541676  90.2150249
 105.1990228   2.0761975  90.8422470 104.2672067   1.1246213  90.1230717
  55.0168419  94.9043655  69.5002127  54.3108320  94.5400333  70.0341082
  55.7557583  94.9854374  70.1032591  63.7166977 102.7610874  30.4333615
  64.1443110 103.4571743  30.9322023  63.1633949 102.3130989  31.0732031
  58.7577534  68.5753155  35.7710671  58.3440733  68.1432247  36.5183282
  58.0299330  68.8006449  35.1916409  74.1332674  93.4192467  65.7347965
  75.0348186  93.6360741  65.9723330  73.6365223  93.5409260  66.5439129
 107.7443175   5.3629598  62.7036285 107.7196603   4.4368752  62.4628305
 107.0384126   5.4632577  63.3422756 110.5750565  11.6869172  40.2186394
 111.4784388  11.5356454  39.9407053 110.5744986  12.5835713  40.5536842
  56.0913658  76.9531441  90.3516102  55.3403759  76.9873381  90.9441280
  56.8313074  77.2417307  90.8858681 110.5398850  12.9760274  58.5695791
 109.8971324  13.6644181  58.3986044 110.5289225  12.8689965  59.5207119
  59.5363140  75.8131790  44.8077679  60.2663326  75.2384806  45.0380373
  59.9529505  76.6061592  44.4703817  84.3827629  82.5676346  44.6007109
  83.4753990  82.3899460  44.3530178  84.3320274  83.3484364  45.1520729
   6.6374394   5.7016381  45.8163929   7.4837586   6.1487302  45.8077288
   6.1706253   6.0578450  45.0604677   0.8166100   8.4915007   6.0122606
   0.6876899   9.4216764   5.8268281  -0.0582527   8.1660211   6.2241956
  62.1083069  90.9002876  69.9440145  61.1543083  90.9758759  69.9640560
  62.4219608  91.7989349  70.0453663  78.0997424  18.0588921  54.7350073
  77.4675326  17.8834638  55.4319763  77.5825505  18.4641560  54.0389395
  85.7366710   1.7163667  48.5140753  85.1445918   1.9852075  47.8116512
  85.1879268   1.7039975  49.2982674  71.2685757  27.2265538  51.1338520
  70.6013350  27.8720292  51.3670683  71.3006096  27.2500428  50.1774788
  40.2687550  96.1137390  73.8249207  40.5732822  96.8482780  73.2920456
  40.0020266  95.4504490  73.1884193  66.3457537  85.1883507  44.7674942
  67.1464252  85.1002884  45.2845955  65.8890629  85.9333706  45.1581430
  26.5489292  89.1821098  68.8585997  26.1135840  88.3307743  68.8145256
  27.2998977  89.0375805  69.4342613  39.5425487  98.5929585  28.4218335
  40.0332308  97.7812481  28.2930493  38.9472127  98.4005833  29.1462636
  78.9930677 101.0827923  22.6276159  79.3176174 100.3343964  23.1284094
  78.9360189 100.7621002  21.7275405  96.3998561   1.6697797  59.8470259
  95.5089335   1.4095315  59.6130085  96.4188819   1.6259297  60.8030319
 110.3520875  23.0874452  52.9510832 109.5013385  23.5228452  53.0047750
 110.1475053  22.1541032  53.0082273  52.5310755  72.8950977  51.6576147
  51.6279268  72.5842142  51.7201185  52.6287031  73.4972334  52.3952675
  69.9936390  79.4526672  56.6457701  70.2310753  78.5967636  57.0025396
  70.8270359  79.9153376  56.5584993  87.4626064  86.8167782  15.4951131
  88.0197525  86.1445522  15.8874702  87.9797459  87.1615314  14.7671378
  63.4551907  99.9483013  38.1302953  63.3266592  99.2122269  37.5320458
  64.3944883 100.1281738  38.0903935  62.0063353  99.5589638  80.9217548
  61.5051985 100.0543594  81.5695763  61.6331339  98.6780643  80.9527969
  41.3178301  65.2179193  61.9993925  40.7177210  65.2687883  61.2554073
  41.2086821  64.3280554  62.3347425  61.7208719  88.5152721  80.5424500
  61.1351538  88.6581612  79.7989845  61.7228889  89.3506432  81.0097790
  93.5679059  -0.1110641  43.9173651  93.0588441   0.6569013  44.1768265
  93.4958606  -0.1349727  42.9631805  20.3601643  13.6514100  55.3110504
  20.1744648  12.7274331  55.4784536  19.6679016  14.1226586  55.7746506
  71.5752697  74.5449257  52.7099133  71.5143681  75.4703474  52.9467964
  72.4839640  74.3091536  52.8967810  32.2869802  95.9716892  38.3761191
  31.9241977  96.4079285  37.6052022  33.1212711  96.4144707  38.5314655
   4.4539461  58.7851667  26.2108994   4.3243966  58.8568258  27.1565819
   5.3942925  58.9145851  26.0874820   3.9278265  11.5929135  22.1382761
   4.8004290  11.6843900  21.7556143   3.5849282  12.4860581  22.1689630
  23.3393336  80.2435100   6.2596151  22.6276876  80.4787243   6.8549844
  23.0309344  80.5199993   5.3966733   3.8933989  16.4845761  33.4399652
   3.9532562  16.3145455  34.3800426   3.7490317  15.6226834  33.0494022
  76.0135846   7.2058972  33.5776567  75.5557303   7.3335084  34.4085073
  75.3897362   7.4980649  32.9130650  84.9969439  17.3791703  35.4722309
  84.7415833  17.0247086  36.3239264  84.1677527  17.5741013  35.0355649
  44.1829729 104.0664577  49.1096783  44.1915178 104.1467381  48.1558895
  43.2574844 103.9684200  49.3335056  91.3768868  14.0494069  45.6279469
  91.4971022  14.0516004  44.6783304  91.8258529  14.8397263  45.9280348
  72.0965338  77.1501493  77.4042797  71.7208052  76.2697983  77.4113083
  71.9726896  77.4705553  78.2977200  21.1188936  91.0677052  58.4894657
  21.9353032  91.5554619  58.3808374  20.4783821  91.7284393  58.7529087
  57.3602486  73.3567667  43.8751125  57.8274012  72.6776075  44.3616772
  57.2398949  74.0648556  44.5078516  88.6831860  14.7332009  58.2162857
  88.6031871  15.6862458  58.1770945  89.1981845  14.5040521  57.4426556
  62.2916031  79.9689054  43.6810350  62.3063564  80.6334972  44.3697548
  63.0993509  79.4718885  43.8104582  86.4598470  10.0446423  75.5500698
  86.5566878  10.4800042  76.3970184  86.3347535  10.7596787  74.9261284
  47.0695734  79.4617748  54.3182802  46.3922691  80.1341820  54.2450666
  46.8090963  78.9411736  55.0781202  42.3604870  82.1515083  88.2373810
  42.0538187  83.0485153  88.1048107  42.3074532  81.7496395  87.3702431
  34.7010132  27.2036275  59.5541286  34.2827793  28.0295571  59.7973585
  33.9723583  26.6158208  59.3546820  13.9584347   7.7954110  61.6079664
  14.0217396   8.6991795  61.9168854  13.2756993   7.4034509  62.1524668
  79.3014002  92.1898079  65.2708864  80.0324249  92.5856209  64.7963619
  79.1644144  92.7655411  66.0232162  76.4854050  91.5053940  65.4373932
  76.5967178  92.4481964  65.3150415  77.3757601  91.1712170  65.5461407
  29.2823601  84.8884869  77.2406197  29.8796463  85.6169796  77.0709801
  29.5620656  84.2031384  76.6337490  48.2861471  63.5961294  55.0010300
  47.4836111  64.1141367  54.9391031  48.5838318  63.7224483  55.9019518
  66.4250688   8.9401540  67.1445847  66.6308360   9.2370328  68.0310106
  65.6143050   9.3972405  66.9210625  92.4045467  92.3115063  84.4262505
  91.7545891  92.2147465  85.1222706  92.0366859  92.9780102  83.8460064
  57.9066114   9.2971715  35.9965587  56.9682269   9.1740331  35.8533645
  58.3102040   8.5109624  35.6288338   8.7771889  15.1529893  60.9198952
   8.9023491  16.0085210  60.5092382   9.2824169  15.2006825  61.7315006
  73.4079938   8.8891324  24.4398117  72.7702837   9.5649632  24.6696281
  73.1088977   8.1089028  24.9067330  61.0531597   7.2344026  62.2111940
  60.1061849   7.2206506  62.3500586  61.3441138   8.0471047  62.6248264
  71.7682838  88.6093807  67.3696756  70.8125496  88.6593914  67.3871326
  72.0587063  89.4646168  67.6866150  70.1327038  92.9952335  61.9618273
  70.3483391  93.8372612  61.5609169  70.2351761  93.1442547  62.9017878
  81.6458225  66.6299343  60.5844164  80.6916618  66.5591860  60.6128216
  81.9162083  65.9682703  59.9477625 107.8894191  14.5115003  49.2112017
 107.6456790  15.3059873  49.6861982 108.0848841  14.8132810  48.3240986
  24.8940778 100.5083942  47.0827723  25.1592970  99.5886993  47.0758057
  25.6950331 100.9902096  46.8764830  70.2303553  91.4256096  75.7038021
  70.3829145  91.5675449  74.7695589  69.9313784  90.5181980  75.7625198
  61.5057850 104.5635605  67.1498728  60.9976578 103.7666607  66.9982100
  61.9405365 104.4142437  67.9894733  24.2322445  79.6748352  29.9724388
  24.2649269  80.0032043  30.8709598  23.6976528  78.8826513  30.0262356
  73.5667376  15.4331883  51.3432598  73.6698751  14.7680577  52.0238495
  74.1012006  15.1158818  50.6153154  63.4490108 103.4525204  52.7034903
  62.5509071 103.7588120  52.5776958  63.3747053 102.4987030  52.7341127
  41.8957329  71.9291306  74.5053291  42.5127888  72.5412083  74.9063635
  41.6955137  72.3151207  73.6525965  32.4654508  94.3905067  89.6232891
  32.4258685  93.7006092  90.2856255  31.5567565  94.5098019  89.3470955
  51.5102768  99.0990448  65.5045509  52.4048948  99.0953827  65.1641417
  51.5053225  99.7989655  66.1574888  57.2815514  94.9141884  84.7192574
  57.6541901  94.9627399  85.5996037  57.9405308  94.4470787  84.2056561
  11.7433786  64.6630859  63.6755466  12.2138464  65.0537491  64.4119406
  12.1822917  65.0109243  62.8992748  53.8430977  73.6770439  56.5824842
  53.9324522  74.1910124  57.3850346  54.3710232  74.1470623  55.9370327
  35.5338621  93.5037518  65.9647655  35.4440618  94.2236710  65.3403616
  35.0525808  93.7964821  66.7386580  59.7821379  79.9735594  62.6544285
  60.2055597  79.1218662  62.5469065  59.8582077  80.3890038  61.7954493
 107.1446233  33.3457955  67.2915983 107.3222594  32.9259976  68.1332922
 107.2390466  34.2821607  67.4663067  54.0193176  96.8400669  54.7232771
  54.5305538  97.5104237  54.2699671  54.5557117  96.0494423  54.6647692
  61.3814688 103.0087471  16.4794266  61.0011196 102.1496868  16.6627097
  61.7677355 102.9187298  15.6082618  46.6694307  85.3464222  68.2905579
  47.2571230  85.7285690  68.9423418  47.1584320  84.6056843  67.9322004
  34.3780518  94.8973656  41.8041229  34.1666031  94.7414589  42.7245665
  33.5602832  94.7240257  41.3378239 104.3447261  21.9129285  67.2551632
 103.7770419  21.1633691  67.4343729 104.0463261  22.2420796  66.4073086
  15.8850762  45.8603486  56.3501167  16.0684201  45.4210671  57.1805668
  15.3910156  46.6422280  56.5967131  80.9802628  89.2094326  29.8042130
  81.8078327  89.4933414  30.1924801  80.3082561  89.5677757  30.3840685
  74.6826982  78.0431652  42.7821255  75.2751589  77.2970533  42.8745365
  74.6945524  78.4661913  43.6406946  11.7323014  39.1555890  72.1383190
  10.8747669  39.5586022  72.0025110  11.7350479  38.9037618  73.0618000
  27.0084167  97.8383446  89.5347881  26.6573501  98.7272167  89.4808769
  27.4840569  97.8186512  90.3652191  33.6106110  93.5465431  68.4442329
  33.8993597  92.6428032  68.5711765  33.6881757  93.9466572  69.3103266
  12.2107788  17.1131715  30.2440786  11.6245075  17.3211774  29.5165777
  12.0425888  17.7985963  30.8907223 109.1010723  21.0288656   1.4389154
 108.7946210  21.0400236   2.3456594 108.5375700  20.3892458   1.0035058
  40.0457096  96.7579174  38.9840484  40.8579159  97.1149540  39.3433285
  40.1786184  95.8099937  38.9874792  56.3642836  76.0622215  65.2371740
  55.9437037  75.4338074  64.6502876  55.7019234  76.7387152  65.3781176
  52.7598715  83.6704254  60.4490328  52.5230360  83.3039665  59.5970631
  53.4757423  83.1151581  60.7579660 104.1479068   2.6701173  33.5077477
 103.7308888   1.8802842  33.8519740 105.0779013   2.5542172  33.7024355
  23.2312485   6.7665299  67.7105093  22.7400871   7.0249947  68.4903717
  22.5587460   6.5426263  67.0671988  71.0677147 102.4947643  35.8540750
  70.8021355 102.5690651  36.7706895  70.3086901 102.1107578  35.4151607
  99.7342877  14.9676904  52.9554319 100.1805835  15.5095681  53.6061430
  99.7608952  14.0835103  53.3211517  86.8263678   1.9105348  57.7927923
  87.4385409   1.8780431  57.0576572  86.9975667   2.7548989  58.2098913
   0.9066149  39.2492398  70.1875639   0.1991793  39.8810491  70.3163767
   0.8996388  38.7164506  70.9827423  98.3174567  10.2903088  83.4026909
  99.0833955  10.6696519  83.8335896  97.6295667  10.3195294  84.0676689
  76.6476517  10.0227555  55.8197308  77.3295264   9.6790704  56.3969326
  77.1269421  10.4773435  55.1270151  79.0635204  85.8556080  59.5873260
  79.8922586  86.1543274  59.9617481  78.4354448  86.5396023  59.8194742
  13.7570950   2.3990830  27.6081729  13.5691639   3.1325540  27.0225763
  14.3733021   2.7553662  28.2481623  70.7247210  81.5874290  64.9536467
  70.9074163  81.3585758  64.0423346  71.3892889  81.1167240  65.4566526
  50.7520199  84.5943451  53.5136843  50.3137589  85.4445934  53.5489559
  51.6063261  84.7812080  53.1244850  55.5157137 100.6065083  33.9553165
  55.2991772 100.1505566  33.1420183  56.4643240 100.5096626  34.0389347
  77.0350246   4.8482140  72.7446699  77.9783206   5.0062093  72.7828264
  76.9540601   3.8968190  72.6773691  46.5010977  96.6394043  61.4732599
  47.0341301  95.8647156  61.2944794  47.0775652  97.2163582  61.9742870
  53.1171799  92.7091122  45.7969046  53.9613247  93.1402779  45.9301186
  52.4995184  93.4280014  45.6630659  21.4838120  16.2119683  45.4882812
  21.8522736  16.9393643  45.9896517  22.0938393  16.0891065  44.7609568
  96.6262441  37.6795300  55.2443457  96.1805205  37.2243890  55.9587717
  96.5341477  38.6081227  55.4575729  14.2676827  16.5082272  78.0288172
  14.7751423  16.6049012  78.8346529  14.7488495  15.8560285  77.5195599
  91.9454956 100.8255005  87.1822834  91.1964512 100.9884262  86.6090202
  91.8229008  99.9263763  87.4868584   7.8938385  38.8449201  50.7211685
   7.8603741  38.9828023  49.7745419   7.2313973  38.1747064  50.8891535
 102.4885802  23.6337670  90.5198097 102.4065499  22.6808270  90.5575562
 101.7368703  23.9586839  91.0153770  47.3367500  73.6910009  38.3421230
  46.7574835  73.7779760  39.0991688  48.1646538  74.0767765  38.6284518
  62.7449036 104.6000195  55.8523178  62.3036718 103.8896847  55.3865099
  63.2129526 104.1647720  56.5648603  84.1644959   6.2429246  66.4105988
  83.4825044   5.6214436  66.1558771  83.6963181   7.0643243  66.5600634
  81.0678439  22.9982861   3.1436366  81.6940503  23.5863027   3.5659343
  81.6117196  22.3420152   2.7080467  63.9273214  91.7651653  21.8319607
  63.6210346  90.8885860  21.5995002  64.4373465  91.6364193  22.6316690
  98.9932828  15.8868131  65.4061794  98.7778287  15.7265290  66.3249397
  99.6299796  15.2064332  65.1872540   5.2295681  22.5897321  14.1727674
   5.9068295  22.5262555  14.8462117   5.1641890  21.7044648  13.8146400
 105.9249339  80.4756153   6.6272851 106.7722759  80.3368938   6.2042066
 106.0979447  80.3426159   7.5592824  98.5713677  16.1524209  69.7965431
  98.4378629  15.4585942  69.1507769  98.8977818  16.8941602  69.2871284
  71.4061980  16.8183240  64.8831797  71.3153343  16.8678483  63.9315891
  71.6755729  15.9153375  65.0513840  87.9217815  87.9072380  48.6826611
  87.5765419  88.4798527  49.3676090  88.6982346  88.3632946  48.3580542
  48.3586161   9.9465379  52.3855972  48.0861680   9.8386105  51.4743567
  48.0515973  10.8208665  52.6254320  83.7294631   0.6931027  61.2942076
  82.9746442   0.9493359  61.8241405  83.3784489   0.0604161  60.6675291
  12.2120472  23.7664136  31.9083953  11.6949936  23.2589349  32.5339723
  13.0747505  23.8418874  32.3161793  61.1489344  87.4121475  88.5142231
  60.9790897  86.4794827  88.3818626  60.4940748  87.6860809  89.1563702
  78.1545973 102.8965664  74.4508934  78.5975552 102.7195454  75.2807617
  78.8106060 102.6991844  73.7823677  11.5348812   7.4359425  73.7377024
  10.9209152   7.2965535  73.0166960  11.2690445   8.2720670  74.1203928
   8.0057808   8.3735570  46.5684509   8.7776180   7.8693971  46.3109255
   8.3578964   9.2048654  46.8865442  99.4808059  14.7088345  80.0292683
  99.6936469  13.7916287  79.8570442  99.4409184  14.7703275  80.9836578
  49.8366451  69.6812630  67.3473072  49.0805054  70.0351858  67.8155184
  50.2818441  69.1315460  67.9921627   5.6484505  12.6814660  52.7309752
   5.2188202  11.8454560  52.5500011   6.4937683  12.4394044  53.1092262
  32.0234036  91.2408447  47.7203465  32.3027515  91.8671036  48.3881760
  32.7637053  90.6408119  47.6300716   0.5486103  28.6890229  45.4503059
  -0.2189068  28.1854543  45.1790667   1.1984488  28.5214909  44.7677565
   1.9224497  42.2472104  63.4877110   1.3007780  42.9502305  63.2992554
   2.7352997  42.5270566  63.0667639  90.9345727  31.8244275  70.8881664
  91.8460946  31.5344914  70.8521986  90.6437163  31.8138703  69.9762917
  75.2815633   1.0265359  65.3958416  76.1980586   0.8594235  65.6157112
  75.1896338   0.7113084  64.4967270  93.9641671  34.4252595  42.9458427
  93.0348735  34.5850667  42.7811909  94.0430360  33.4715566  42.9674435
 102.2730594  22.5447472  32.0266533 103.2248120  22.6439866  32.0502210
 101.9468789  23.4161576  31.8019819  55.4767942  84.9419403  25.7645011
  55.5599689  85.2766705  24.8716021  55.4062223  83.9931870  25.6590199
  93.2873111   4.9439057  45.0695848  93.9426665   5.4466542  45.5533123
  92.5511556   4.8638925  45.6761360  93.4114265  94.3376637  27.6934576
  92.5724220  93.8787556  27.6519918  93.3803940  94.9596405  26.9665408
   0.4244848  16.9831380  60.3802061  -0.1115946  17.4682626  61.0074997
  -0.0638679  17.0334348  59.5584917  13.9821144  23.6142644  77.7356434
  14.1175266  23.3307847  76.8314648  13.0912014  23.9641198  77.7460814
  67.0895576  84.9901390  60.5291843  66.3038158  85.5337238  60.4712629
  66.8768644  84.3313789  61.1902618 107.9413085  22.8883180  38.4150195
 108.4135489  22.0918187  38.6575079 107.8758864  22.8469094  37.4609566
   5.5049130  14.6389207  75.9553623   5.7681032  14.6505174  76.8755913
   6.0173794  15.3389081  75.5508375   0.0341793  24.6388444  56.9459009
   0.7591435  24.2595395  57.4426794   0.4226109  25.3827866  56.4855719
   0.1574227   1.7176732  41.0302782  -0.3020242   2.4237451  40.5757380
   1.0013720   1.6542634  40.5831003 109.9552255  39.8437890  44.3928528
 109.2841296  39.8358258  43.7103605 109.8279147  39.0201100  44.8635674
  80.8188014   2.7011880  47.8975248  80.1160483   3.3501824  47.8631639
  81.0110812   2.6055249  48.8303232  93.3284859  20.1072797  47.2642660
  93.5600285  21.0204228  47.0946217  94.0955071  19.7439488  47.7068806
 102.8925328  38.8959989  60.0092077 102.1538977  38.4134301  60.3803921
 102.4957471  39.6678742  59.6054888   4.8007961  21.7483624  55.9962988
   4.0187212  21.3286408  55.6379318   4.4758793  22.2788724  56.7237759
  58.1697750  90.5614662  40.6454039  58.3399773  89.8661041  41.2808132
  59.0368366  90.8121109  40.3266382 109.0832953   4.0815553  35.1189971
 108.1526856   3.8583764  35.0994325 109.4764285   3.4196767  35.6878495
  93.6845498  11.8740090  66.4811039  93.1548314  11.5063199  65.7736969
  93.8640122  11.1308583  67.0570803  64.8680811   2.5700673  48.5608816
  65.6890826   2.8588876  48.1624174  64.3285589   2.2898969  47.8215265
  51.0910940 101.3534641  85.4863358  51.1602116 102.2195530  85.0846577
  51.8194199 101.3182259  86.1064434  94.0616135   2.1696767  56.1938047
  94.5979123   2.8949460  55.8734941  93.5596995   1.8870744  55.4293108
  57.4574900 101.1861038  73.3474302  58.1045628 101.8409729  73.0853558
  57.6920509 100.9649277  74.2487049  23.5192204 100.2003384  41.7355919
  23.0754685 101.0468483  41.7879963  23.0530214  99.7278118  41.0459471
  23.4349152  28.7572678  37.9421234  22.9271408  28.1009969  37.4649405
  24.3381973  28.6125382  37.6604223 104.4201045  24.3346509  61.7206383
 104.2567973  23.5975369  61.1322355 103.9978413  24.0834721  62.5421238
  93.5252719  37.9180249  62.1527815  93.9091830  37.5408467  62.9443502
  92.6362948  37.5641641  62.1256924  19.7859335 100.9572887   2.6762185
  20.6313372 100.7731724   3.0856395  19.2470074 100.1945591   2.8860810
 107.6909737  19.0023908  35.1135325 106.8463521  18.6008748  34.9094868
 108.2754569  18.6962804  34.4200587  68.6907673  88.9610004  67.5997400
  68.4753370  88.0423260  67.4389458  67.8451443  89.3815994  67.7554512
  93.4894848  77.0464230  67.3763371  92.7970791  77.0427418  68.0372334
  93.0415821  76.8284559  66.5589619  65.2481060   6.3497838  44.4316053
  64.8825912   6.4915856  43.5583782  64.4845681   6.2030801  44.9899244
  39.4747444  32.8237924  50.3732824  39.1113850  33.7092885  50.3834391
  40.3600212  32.9241380  50.7232046  27.0502754  20.0230035  81.5528297
  27.9911515  20.1776704  81.4688110  26.8306061  20.3507432  82.4249363
  92.4033599   5.3041848  42.4608612  92.5795560   5.1753434  43.3928394
  91.4484935   5.3289994  42.3988199  72.2143650  96.2408447  77.6711845
  72.2539854  95.3071690  77.4640369  71.3074160  96.3884163  77.9393244
  99.3672276  94.9486542  49.6477509 100.1284122  94.9003029  49.0693998
  98.7882519  94.2510796  49.3404722  20.3580567   7.9348096  56.1625814
  19.6506211   7.6028165  56.7153502  20.4687878   7.2653493  55.4874611
  27.4042201 104.7791958  68.7885475  27.8144526 103.9379120  68.5880995
  27.7867198 105.3886318  68.1572723  59.7610188  98.7077999  67.6219368
  58.9334536  98.3449364  67.9376936  60.4026270  98.0157852  67.7822208
  20.6834980  47.6899632  11.5795755  21.3929173  47.1026811  11.8404508
  20.8731838  48.5110959  12.0334339  40.2252150  93.8890457  24.6985507
  39.8262596  94.1423416  25.5309606  39.8453856  93.0327797  24.5016432
  15.1711822  74.7195339  69.1248465  15.4917777  73.9075184  68.7323189
  14.4583881  74.9983215  68.5500145 106.1668448   0.7754430  47.7310801
 106.5228705   0.4971799  46.8872499 105.7245545   1.6032704  47.5431728
  66.9538264  11.5571317  37.8849959  67.2227483  10.6484326  38.0198145
  67.6000743  12.0723161  38.3678770   3.4717365  22.8904923  65.1131535
   3.4373947  23.8002404  65.4088163   3.5381790  22.3789510  65.9194660
  86.6016960  92.0559788  58.9469957  85.9981155  92.4894524  59.5503378
  86.2129593  92.1891022  58.0824757   8.5608479  22.9201898   7.8335261
   7.9115292  22.2532853   7.6102072   8.9963719  23.1175908   7.0043200
  36.0943007 104.0090561  54.9633121  36.5088797 104.5924950  54.3277359
  35.7460904 103.2896900  54.4365358  87.9802375  16.3021478  71.5446901
  88.8317113  16.2917432  71.9818544  88.1384854  16.7671117  70.7231045
  56.7357874  99.7084713  79.8411465  56.7074394 100.6330109  80.0874329
  57.6582050  99.5400238  79.6487951 109.2649607   6.5515050  65.1911736
 109.5238166   5.6427297  65.0383568 108.5771804   6.7163285  64.5461702
  53.4779406  89.1560268  57.2731924  54.1111755  88.4522057  57.1321964
  53.7723684  89.8619556  56.6976786  59.8134661  94.4129753  44.0925121
  59.0718508  94.5216274  44.6878576  60.5840921  94.4649315  44.6578979
  35.8006477  95.8725452  20.1930118  36.6612172  95.5949306  19.8790324
  35.8853054  95.8825207  21.1464071  85.2873235  15.6007012  72.5848770
  84.9174456  16.0866078  71.8477774  86.2342648  15.6532201  72.4553490
  20.2711102  24.6423634  52.0294952  19.5437523  24.5957574  52.6499844
  19.9379917  24.2199334  51.2377787  97.9564099  48.4278783  47.1046305
  98.4891658  47.8795251  47.6805687  97.8895764  47.9271230  46.2916088
  84.5763874  82.3315525  79.7102594  84.1506481  83.0259418  80.2130604
  85.3528404  82.1063614  80.2227497  21.7078015   9.6878632  48.1309175
  22.4408718  10.1675137  48.5166359  21.0899540  10.3686055  47.8642797
   1.7352768  23.8588723  69.9961042   2.2323366  23.0446347  69.9174738
   1.3209673  23.8043507  70.8572721  84.9091630  43.0268010  80.6107807
  85.6567054  43.5346326  80.2953148  85.2525143  42.1405705  80.7244968
  19.3495938  19.4574460  78.9505672  19.0847870  18.5442075  78.8405180
  19.7813030  19.6826180  78.1264591  -0.2959064  52.7359589  73.6893463
   0.2442547  53.5211095  73.7787485   0.3244539  52.0429143  73.4633446
  96.5685801   4.6941480  85.8904362  95.7225852   4.3603143  86.1888885
  96.5498404   5.6254395  86.1108589  59.5932245  96.9190311  35.3471279
  59.6577311  95.9681320  35.4357219  60.0487566  97.1147537  34.5283365
  69.3880749  84.6402931  63.9583778  68.4926605  84.9337387  64.1267443
  69.6794701  84.2701149  64.7916222  82.4017048 101.8313313  39.8195076
  83.1624317 102.3726368  39.6085167  81.8111134 102.4206543  40.2886820
   4.6678826  47.6998528  63.3902693   4.0949866  46.9542130  63.2112408
   4.4973465  48.3105191  62.6731730  83.9260392  49.0465268  82.5936985
  83.3665471  48.7610825  83.3160019  83.3222871  49.4418343  81.9648552
 105.8251099  28.1720551  21.5122247 106.6634898  27.9404839  21.9118857
 105.3721528  27.3357591  21.4042044  12.9787918   9.6436032  84.6366215
  12.5054833  10.4728898  84.5696545  12.4648091   9.0312871  84.1102028
 103.4149270  14.2805108  71.0025311 103.5955148  13.8934716  70.1458979
 102.4670129  14.4132813  71.0103369   2.0207545  27.6287278  33.8470840
   1.0735890  27.5330171  33.7473607   2.3207232  26.7639073  34.1269803
  70.1877546  96.5525532  49.0024757  69.5048618  96.0713291  49.4697189
  70.4170990  95.9873009  48.2648373   6.3793274  55.3889760  59.9778843
   6.4397236  56.3303098  59.8152494   5.4748198  55.2521237  60.2596188
 103.7906937  13.7783631  26.2149978 104.5420937  13.4221276  26.6890550
 103.0505900  13.6505231  26.8084073   4.1656347  11.4837274  46.4828777
   4.3557163  10.5457505  46.4656591   4.3014761  11.7722520  45.5803585
  14.7432514  22.2525033  79.8793221  15.6470104  21.9444760  79.8117685
  14.5282456  22.5591573  78.9984322  96.7230229   2.4189385  35.6432319
  97.3619084   3.1199082  35.5140328  96.1094813   2.5168713  34.9150777
  97.3448376   3.5282906  58.2103491  96.9288926   2.8966245  58.7970543
  97.7323775   2.9929265  57.5179434   6.5247818   8.6581048  17.1990275
   7.2505947   9.0842065  17.6549423   6.3253971   7.8888139  17.7325702
   4.7088476   8.9360913  79.1162157   4.5209786   8.3665952  78.3701515
   5.2946230   9.6063813  78.7643433  98.7707710  92.2712517  28.6442041
  99.6808434  92.5485039  28.7496352  98.6484146  91.5932560  29.3087268
 109.9533209  72.1710194  21.4649888 109.0461073  72.4034012  21.6629621
 110.1048717  72.5232685  20.5879613  10.3665061  83.0635568  89.8724328
  10.6297918  83.6268159  90.6001988  11.1596437  82.9667874  89.3453691
  71.0313702  93.1223965  39.6570754  71.4634085  92.4703979  39.1052818
  70.9893703  92.7142906  40.5218983  91.8657355  26.8833646  63.9364529
  92.2994714  26.0692700  64.1921091  90.9540658  26.7626485  64.2019987
  73.8903570  93.3374786  34.7203779  74.4585657  94.0842915  34.9091554
  73.1487036  93.4442139  35.3160238  32.3962589  27.1172055  39.0353441
  32.0272537  26.4265260  39.5858192  31.7549320  27.2330102  38.3342600
  90.9066014  22.4766835  63.5199547  90.8697657  21.5697202  63.2161570
  91.6806559  22.8416547  63.0911541  31.0859581  37.0396527  17.9207575
  30.3870770  37.5778302  18.2924676  31.3789936  37.5263032  17.1503472
  90.3390217 100.6643391  27.1959591  89.4973469 100.5498600  27.6372099
  90.3769398  99.9475288  26.5627337  80.7802582  91.8045235  34.6017051
  79.9633932  91.3215923  34.7271752  80.9447956  91.7562675  33.6599898
  74.5673227  62.1340656  42.5375700  74.0312672  62.4412727  43.2686663
  75.4231358  62.5378036  42.6818371  31.1875677  97.0768452  46.7685080
  31.8354368  97.6827431  47.1282148  31.1015034  96.3949680  47.4347353
  11.2251961   6.1192673  50.3155327  11.7844236   6.0263896  51.0868120
  10.8439207   6.9931841  50.3999758  57.6542167  64.9461106   5.2655908
  58.2642989  65.1214127   4.5491334  57.7112799  65.7215206   5.8239003
   8.6321259  10.7630408  47.5230455   8.7839276  11.5125155  48.0987883
   8.1878954  11.1331296  46.7602062  19.0486443  16.8707514  79.3765497
  18.6589432  16.7156601  80.2369595  19.0857661  16.0046053  78.9707804
  91.7665311  49.0090370  33.0327725  92.0471772  48.1206512  33.2524180
  91.5074476  49.3924236  33.8706994  43.6298898 100.3417531  15.9832931
  44.2518595 100.1454089  15.2826977  43.5678414 101.2969295  15.9877539
  31.5902781  23.3153558  28.1554484  31.2125015  22.5719714  28.6254454
  31.2971973  24.0830564  28.6463380  74.8744642  87.9989377  69.9256182
  75.2092609  87.1304682  69.7022247  74.7584889  87.9738930  70.8754396
 108.3512311  53.9083195  84.1520977 108.0845075  54.6061420  84.7505379
 108.5933184  54.3638039  83.3457661 109.6799133  33.0194354  35.0471807
 110.2946522  33.4067750  35.6703138 109.3438608  33.7638640  34.5480537
 104.6560957   0.8982057  78.1799936 105.1704594   0.6436133  77.4139357
 104.6307775   1.8544117  78.1444788 108.4292787  37.7815890  32.6022363
 107.8599047  38.4152865  32.1658039 108.2745510  36.9598866  32.1362996
  15.1645112  23.6868787  37.6087451  14.5751357  24.0619040  38.2631326
  15.5653417  22.9373574  38.0489564   3.8405168  31.8303347  43.6848402
   3.2872298  31.0543466  43.7739992   4.7030845  31.5454268  43.9865637
  26.9952273  12.8008211  26.3797951  27.8487849  13.1855881  26.1807323
  27.2010589  11.9665122  26.8014503  47.8326654  32.7042842  50.1298761
  46.9456100  32.9417753  50.3999996  48.0160618  33.2737803  49.3827009
  21.7090797  13.5997319  32.5797200  21.4571500  14.3101728  31.9897747
  22.0474982  12.9164910  32.0010257  81.7648538  11.9998622  38.6903214
  80.8706149  12.1762586  38.3980036  82.1631511  11.5180683  37.9654312
  44.4973277  70.0417983  85.1739798  44.1050064  70.8918416  85.3733323
  44.1463791  69.4533586  85.8424148  95.8981017  99.6656177  25.7780051
  96.7197398 100.1152000  25.9755397  95.3734330  99.7655234  26.5723419
  10.7253921  13.8059449  64.3193817  11.3786805  13.4527194  64.9232674
   9.8861128  13.6295581  64.7445059   7.4966657  21.6515756  49.4208431
   7.7867788  22.5238323  49.6877384   8.0022430  21.0525036  49.9701500
   0.7499337  22.9227948  37.1920490   0.8584812  21.9850159  37.3502254
  -0.1979993  23.0538106  37.1699071  20.4695845  29.3696880  38.2160521
  19.9990296  28.5374975  38.2636476  21.3921809  29.1281962  38.2980847
  49.4571114   8.7588817  24.5880675  49.9681616   8.1282544  25.0953817
  48.8133764   9.1001487  25.2088547  20.4455853  11.9257390  37.7298045
  19.6618962  12.3707271  38.0523753  20.4150462  12.0448709  36.7805386
  44.9094629  40.9032869  74.5883560  44.3230057  40.2834082  74.1547108
  44.3485212  41.3710070  75.2070713  93.9061149  30.8358502  84.7065926
  93.1718775  31.0076523  85.2961826  93.5190662  30.3527308  83.9765167
  76.1674204  94.8607091  18.9995396  76.2225044  95.4258183  18.2289243
  76.6059536  94.0519444  18.7353051  97.2728256 100.3265337  17.4137318
  97.5670556  99.5178530  17.8328919  96.3312033 100.3553221  17.5832951
  17.8760421  30.9611154  56.8865776  17.5275791  30.7296562  57.7475262
  17.2139418  30.6507874  56.2688780  32.5671196  28.8386822  74.6159697
  31.6729712  29.1665840  74.7119522  32.5084758  28.1830049  73.9210749
  86.1937531   3.1862015  31.4892626  85.3242477   2.8336859  31.6787982
  86.1293706   3.5128441  30.5918264  18.4981298  52.5399780  51.1280823
  17.8773797  52.3195076  50.4336119  19.3503785  52.5524187  50.6924820
  96.1111399   8.6407852  37.6836634  96.0674974   8.2191980  38.5419130
  97.0218989   8.9237237  37.6018357   2.6427135  39.7352600  43.3531046
   2.9557827  39.9302626  44.2363930   2.1397415  40.5096149  43.1008673
  12.4847639  36.8300152  67.7225637  13.0774236  36.2667298  67.2248745
  13.0306590  37.1969628  68.4179640 103.4331997  22.6049089  59.7584581
 103.4202804  21.6792679  60.0018787 102.5142255  22.8254700  59.6065617
  80.0705799  19.7155941  44.0293646  79.3942126  19.5719922  44.6912861
  79.6295746  20.2122927  43.3401346  76.0094032  98.4984890  16.1125743
  75.6093163  99.0230266  15.4190159  75.3017153  98.3513281  16.7400718
 109.6742386  15.3216839  26.3136625 109.1810461  14.9921918  27.0649457
 109.4605567  16.2540126  26.2771201  91.5041939  86.1803237  68.7941360
  90.6508497  85.7515124  68.8585997  91.5112404  86.5694753  67.9196405
  15.5239141   2.2226706  45.0551462  16.0987091   1.9070779  44.3578339
  16.0375702   2.8947300  45.5031681  94.4415978  82.2377673  39.2232347
  93.9944474  82.6610509  39.9561214  93.7997309  82.2474590  38.5132027
   9.4385237  31.9912457  49.3109179   8.9771396  32.2888684  48.5268450
   9.0888578  32.5361705  50.0159168  78.1424674  18.6360049  57.9332066
  78.0033263  19.1316724  58.7401676  77.2868332  18.2551777  57.7354860
  64.5575962  97.6163009  61.6837740  64.3155352  97.8159723  60.7794666
  63.7514333  97.7492246  62.1824360  56.1245981  91.0696581  76.9387770
  55.7829396  91.1851564  76.0521173  57.0727960  91.0069374  76.8237972
 107.5149434  19.9149895  13.5448170 107.8454899  19.4102538  14.2879272
 108.1717237  20.5977178  13.4078789 109.1993595  29.1998196  71.5888786
 108.6221149  28.8528204  72.2690344 109.2321058  30.1410651  71.7598057
  29.4292283   3.0357543  27.1104550  29.3039680   2.2194481  27.5943828
  29.0271235   2.8725252  26.2572837  39.9499893  21.4167428  35.9998989
  39.5344448  20.6063771  36.2946200  39.9709082  21.9723105  36.7790890
  82.2194227   5.8847958  87.6114464  81.5042218   6.4791059  87.3844814
  81.8642005   5.0104630  87.4514675  82.0476363 104.2996822  52.1998358
  82.7044210 103.8024277  52.6872826  82.0187900 105.1508847  52.6367044
  72.3574277   5.4551383  84.0541235  72.4922445   5.1877757  84.9632839
  71.7479812   6.1912223  84.1087941 103.4837631 100.8579612  41.3493395
 102.7415875 100.6729028  41.9248056 103.8712958 101.6565416  41.7075539
  12.5286996  38.6052346  74.6757269  13.1146753  37.8839684  74.4462919
  13.1113791  39.3511844  74.8181200  77.6978255  77.1163932   9.8933071
  78.3691741  77.7959720   9.9541038  77.9908184  76.4354197  10.4988337
 105.9154061 100.5348132  40.2919817 106.4700965 100.8697433  40.9965229
 105.0439600 100.4713336  40.6828547  19.8590016  10.7407951  40.9140682
  20.6520009  10.9478903  40.4196024  19.8457396  11.3817227  41.6248941
  15.7766771  31.4030313  47.6709700  16.5495050  30.8705902  47.4826241
  15.3876221  30.9952307  48.4446430  17.0505297  27.3577237   4.9187410
  17.2150242  27.8016973   5.7506430  17.8843462  27.4081540   4.4513676
  30.5322504  43.1181479  58.9805079  30.0310040  43.8853216  59.2569637
  30.0303149  42.3726463  59.3099356   0.7286616  41.7339563  42.8270483
   0.2641567  42.2312307  43.5002375   0.0347922  41.3596201  42.2842312
  36.8641710  42.8194141  50.7537460  36.7897177  43.7664080  50.8715963
  37.8066754  42.6525831  50.7444143   9.7255229  72.9653680  83.9090249
   9.4711350  72.1785080  84.3910716   8.9554142  73.5321962  83.9522699
  32.2437143  14.2203832  25.0583625  31.8722391  14.6216917  25.8439755
  33.1903672  14.3091488  25.1688170 101.5299829  11.7119718  46.0822487
 100.6799253  12.1072936  45.8889771 102.1652516  12.3982799  45.8781719
  16.1564863   5.6387836  11.6690779  16.3861740   4.7097787  11.6897011
  16.9803250   6.0848939  11.4728439  44.3410683   6.5981925  44.1087580
  44.3477488   5.6672150  44.3311739  44.3532228   6.6159171  43.1517982
  68.3000477  28.9505506  45.1114035  69.1210135  28.5332417  44.8504448
  67.9919108  28.4298921  45.8531570  29.8901057   9.1155088  43.9958668
  29.1376066   9.7014183  44.0776300  29.6941280   8.3898187  44.5884848
   7.1453804  20.9633398  44.7653913   6.3863641  21.5440226  44.7112179
   7.7859175  21.4538383  45.2805185  57.2283792  12.4330282  22.9954886
  57.9759979  11.8639839  23.1784773  56.8977451  12.6793170  23.8593483
   7.4760526  18.6407244  35.9352207   8.2431597  19.2099357  35.9966731
   7.5275493  18.0846286  36.7126131   4.3895978  43.5472393  74.1890287
   5.2036065  43.1056023  73.9469957   4.3646577  43.4967184  75.1445675
  11.9071722  29.8283505  65.5723333  11.5343678  29.5898485  64.7235870
  11.3247669  30.5104899  65.9065819 108.3327594  33.7644625  24.5099545
 108.9652645  33.1994915  24.0661335 108.5174509  33.6451864  25.4415607
 109.9087764  16.0205626  45.6096697 109.2258566  15.8288860  46.2524080
 110.4943544  16.6312742  46.0572863   5.9388620  17.3059070  13.2404077
   5.0956953  17.1812809  13.6760342   5.7425338  17.8765082  12.4973714
  13.6465073  28.6820769  47.5318193  14.0077364  28.0500031  46.9103432
  14.1234267  28.5175371  48.3452702  30.0609016  41.4658451  46.2361670
  30.2991700  42.3670530  46.0187197  29.1924191  41.5366602  46.6323423
  35.9246922  32.6396155  55.7067060  35.3668380  33.1772256  56.2688494
  36.5290499  33.2624769  55.3029394  14.3796039  10.1517463  35.8834171
  14.3132770  11.0925043  35.7196832  14.0009058  10.0329483  36.7544532
 100.1637987  95.3847167  27.3691201 100.0979379  94.4965950  27.0182180
  99.4607810  95.4392299  28.0164433  13.3166862  26.3079977  36.6329265
  13.1018853  25.3753448  36.6487741  13.5552299  26.4834070  35.7226729
  80.3524599 103.7117042  21.4541817  80.3427408 103.1691309  20.6656694
  80.7248286 104.5453354  21.1667228  28.7939191  26.9781685  41.9641829
  29.3618131  27.7149153  41.7384958  28.1819654  26.9140792  41.2309456
  72.2436701  88.5531703  63.5980177  71.9497578  89.0721348  62.8493357
  71.6457669  88.7937656  64.3057299  23.8641167   0.2024047  38.2985377
  24.1167736   0.0628210  39.2111778  23.0279875   0.6655580  38.3496428
  90.3755013  88.5798768  47.7278805  90.6713239  89.4650594  47.5153399
  91.1802975  88.0642072  47.7790546  27.4250150  45.2136612  21.3590622
  27.5732493  45.7177496  20.5589700  27.3394632  45.8745766  22.0461607
 104.1893383  25.6142879  17.2639728 104.0471502  26.2821507  17.9347742
 104.5500269  26.0956669  16.5193856  29.3173909  43.6864519  51.6133261
  29.7994423  43.5895586  52.4345875  29.1624737  44.6278763  51.5361738
   6.8602633  35.3123355   9.2648566   7.0083159  34.4244075   9.5902729
   6.0902840  35.2356458   8.7014008 102.8527907  81.5078584  31.8675232
 102.7048472  80.5621997  31.8587279 101.9844154  81.8873969  31.7329621
  76.1128395 104.1047334  37.5256443  75.5194189 103.9908462  36.7832732
  75.6610947 104.7222327  38.1008410  27.3007798  30.4332972  18.8580549
  27.9975295  30.5435872  18.2110548  26.7987204  29.6814537  18.5435736
  33.4592795  14.0739310  42.7827406  33.4641933  14.6254599  42.0004225
  33.7716341  14.6477628  43.4822989  54.3040991   0.7435841  28.7896657
  54.0643930   1.6506125  28.9795899  53.4961224   0.3449930  28.4663510
  37.7872825  17.4038100  31.8315268  37.9754472  18.1357086  31.2440324
  38.5629869  17.3382187  32.3884916  11.3285899  33.9772534  59.4391823
  11.8776834  34.6834207  59.0985107  10.5403364  34.4183326  59.7559452
   8.7420994  22.6543260  46.5857887   8.2390732  22.3303127  47.3329258
   9.6039981  22.8593874  46.9481564  76.9856761  95.0616858  30.3276038
  77.2297589  95.2236805  31.2388730  76.9845164  94.1079823  30.2458668
  22.5444269  18.5620546  62.1935892  22.3821473  19.1783357  61.4793825
  23.4199119  18.2171655  62.0180702  95.4499968  48.1427336  39.6334076
  95.2716311  48.8855410  39.0566444  94.9211939  47.4294758  39.2758346
  48.4457301  70.6901478  86.1288295  49.0549206  70.3551614  86.7867831
  48.5375177  70.0892174  85.3894452  86.8703738 101.9028756  15.3489816
  86.3846794 101.7885936  14.5321143  86.2058357 101.8337474  16.0344338
  18.1839585  28.6201739  43.6652184  17.6096642  28.6835933  42.9020691
  17.9796183  27.7672029  44.0485191  25.4891467  21.0916877  54.6040678
  24.6728206  20.6752276  54.8804855  25.5075908  21.9219518  55.0800419
   4.2236260  50.8955622  58.4330320   3.2695153  50.8493996  58.4944630
   4.4498384  50.2702761  57.7445030   4.4339141   9.8156685  12.6467860
   3.5995060  10.2655220  12.5140202   4.3330190   8.9828521  12.1858418
  64.9942902  86.1174563  67.3575354  64.3086461  85.6442872  67.8289509
  64.5472184  86.8762616  66.9826031  12.4006605  36.1594963  52.9367685
  13.0517364  35.7062769  53.4724188  12.7389634  36.0957360  52.0436144
  13.7354434  34.7538209  66.6346264  13.6077785  33.8741541  66.9897652
  14.6689606  34.7951794  66.4271021  10.1674075  99.3093911   5.6625795
  10.0644679  99.1737000   4.7206539  10.8858962  99.9374605   5.7369769
  89.4991163  99.9094940  62.3089361  88.7531594  99.5922682  61.7998695
  89.8347811 100.6510652  61.8053150   1.2711354   0.3743134  33.5037303
   1.8409914  -0.3115379  33.1557298   0.6229076   0.5196555  32.8145933
  30.8585620   3.5205513  33.3393717  30.1728225   2.9518786  33.6895156
  31.6507745   2.9838943  33.3645296 101.3212474  32.8739810  51.9346619
 101.2930538  33.6922288  52.4305534 102.2274514  32.5763583  52.0149565
  27.2726417  72.6630306  75.7808590  27.0195198  73.5618782  75.5705309
  28.0632162  72.7550316  76.3126135 110.0062758   4.5533681  32.5425601
 109.8987018   4.4988123  33.4921288 109.5899630   3.7588894  32.2083139
  14.8672068  39.7589588  57.1691990  14.3016315  38.9867234  57.1667194
  14.8521328  40.0697851  56.2639952  44.9936056  31.2503004  23.9043522
  44.5494270  32.0975494  23.9376140  45.5028439  31.2148929  24.7140789
  94.4311765  94.5634881  14.0999413  94.7178677  93.7350765  14.4843554
  95.2359179  95.0718144  13.9988256  54.7695497 103.2807309  37.6237369
  53.9014653 103.1155850  37.9916835  54.8985127 102.5762177  36.9887066
  91.0688313  24.0859318  75.7659721  91.8399998  24.3034101  76.2896442
  91.4225658  23.8246107  74.9157858 107.8651317  26.9961166  46.2852240
 108.5641622  26.5830064  46.7921019 107.4180650  27.5643015  46.9125414
  19.7471142   9.4317871  60.1869822  20.5614829   9.9189025  60.0614738
  19.7813940   8.7349677  59.5316219  43.6023263  88.7084046  41.3224411
  43.4792689  89.4571880  41.9058895  43.6174086  87.9499045  41.9061232
  94.6212061  22.5961852  71.2952375  93.9625176  23.2472420  71.5370750
  95.2775570  23.0904841  70.8042145  84.0773877  50.2849674  40.7424212
  83.3481988  49.9064636  41.2335968  83.6756309  50.6298828  39.9450159
   3.6362985  32.7626348  39.8856902   3.3839321  33.0228543  38.9997840
   3.2769117  31.8813825  39.9880004   7.5393909  48.4349012  61.2412882
   8.0339187  47.9993486  60.5470514   7.1929824  49.2259789  60.8284569
   8.5214496  15.2548683  50.8245659   8.7034714  15.2469778  51.7642641
   7.5665146  15.2261901  50.7653236  89.0124325 104.5208902  39.2211461
  88.9980963 103.5764808  39.3764424  88.1070009 104.7414452  39.0025544
 108.2405230  30.8306146  36.0180116 108.2151728  31.7536187  36.2703061
 108.2379835  30.8437753  35.0609064 104.1713647  60.2462140  40.1141214
 104.8244742  60.4385129  40.7869482 103.6380223  59.5464460  40.4910851
 101.9975714  97.2952506  28.0584955 101.7002419  98.1759313  28.2870317
 101.2045125  96.8410197  27.7739549 107.9764966  91.8083707  63.1886530
 108.7207631  91.7131845  63.7829876 107.3111848  91.2174860  63.5414219
 109.6556129  41.4018726  41.3404322 109.0291580  40.7166290  41.5733051
 109.2191320  42.2182226  41.5839243  84.6081427 103.2544704  39.3366623
  85.1042024 102.5610090  38.9016128  85.1082722 104.0518933  39.1628265
  30.3600287  62.3857594  48.1906462  30.1538205  62.7493048  47.3295164
  30.0012493  63.0205393  48.8107777  66.7460403  98.7928686  63.1964874
  67.3442630  98.1140432  63.5088301  66.1189166  98.3244434  62.6455545
   8.2619935   8.5253990  24.7590375   8.0218256   9.3720174  24.3824911
   7.4501002   8.1955355  25.1440692  30.3170967  36.5039945  74.0855551
  30.0217819  37.2064066  74.6648979  29.5218468  36.2093210  73.6417294
  33.4830618   7.5688821  49.6508408  33.5693312   8.1124270  48.8676739
  33.1558776   8.1670505  50.3226852  15.7689548   7.5617790  17.7571046
  16.6150105   7.9587877  17.9639959  15.8278501   7.3435068  16.8269861
 102.6692585 101.6143594  31.2117743 103.3266882 101.8926320  31.8494105
 102.9497794 100.7389188  30.9450483  99.2228392 102.5670465  10.5966830
  98.7216047 103.0707154  11.2380207  98.6343173 101.8587697  10.3354943
  98.8067170   3.7406138  61.6564465  98.0289718   3.4649447  61.1713171
  99.3609198   2.9606485  61.6837502  17.5036228   4.2231289  16.3142979
  16.7507994   4.0989682  15.7363069  17.9415369   5.0028896  15.9730697
   9.2851609  12.4452090  20.3867292   8.6350149  13.1381190  20.5025649
   9.8117912  12.7331245  19.6410775  90.0057324  16.3583910  26.1759377
  90.1603182  16.6644096  27.0696306  89.9020179  15.4107130  26.2618494
  83.1736717  82.9361549   3.8153812  82.2450528  82.9760519   3.5866737
  83.6205885  82.8015009   2.9796985 107.7028159  99.1560939  47.6538277
 106.9956950  98.6079506  47.3136139 108.3940867  99.0915731  46.9948816
  67.6572514  32.7093172  20.7067728  67.2623396  32.8245282  19.8424780
  66.9402218  32.8677654  21.3207722 110.7474099  25.3048897  11.3904655
 110.4071284  26.1989212  11.4243424 110.1460891  24.8416805  10.8072996
  22.4457335  36.4091349  48.1910849  22.5909853  36.0315728  47.3235703
  22.3485255  35.6519985  48.7686014  14.2220914  26.6359329  25.5471659
  14.5379031  26.4231706  24.6689701  14.3837833  27.5749087  25.6388807
  90.3936466  11.7865086  24.4388938  90.4748090  12.4663162  23.7699342
  90.9879168  12.0642710  25.1359749   3.2651007  21.1299825  50.6744432
   2.8182080  21.6819263  50.0326681   4.0359670  20.8010888  50.2120304
   5.2424163  27.8219771  27.5061822   5.6613636  28.3295608  26.8111467
   4.6687874  28.4482932  27.9476690   2.8217161  35.6796718  30.4709864
   3.0514601  34.7810793  30.2343774   2.7598113  36.1394382  29.6337199
  11.7359626  24.2037630  34.7633410  11.3065124  25.0472879  34.6209693
  11.2653363  23.8169885  35.5016828 110.7850108   3.5384682  67.4476910
 111.3880687   2.8856033  67.8031111 110.0312225   3.5142383  68.0371380
  90.7310279   4.0307996  29.5337248  89.9278196   3.6300021  29.2013812
  90.6887778   4.9380615  29.2315292   3.3250853  17.3480070  69.3123245
   4.0406492  16.9531751  68.8140154   3.3784452  18.2818604  69.1090918
  29.8981261  62.7796698  69.9617386  30.1433849  62.1049309  70.5948305
  29.9546957  62.3426962  69.1119814  36.4476871  33.5699153  51.2727308
  36.3153911  33.9966011  52.1192932  36.0050249  32.7255487  51.3583183
  32.2938991  23.6117411  55.1337957  32.8357720  24.3526340  55.4052353
  32.0878100  23.1543636  55.9490013  91.2114462  57.9056931   9.0471828
  91.4112981  58.7542295   8.6518669  90.9599193  58.1139374   9.9469608
  17.4174070  21.8033361  35.5617762  16.8608904  21.3954663  36.2252235
  18.2291090  22.0108938  36.0246921  41.5658712  18.9890993  70.4718304
  40.8005428  18.6331415  70.9232664  41.2017250  19.4936252  69.7444487
  35.7887888  25.6399202  50.9618330  36.3853431  25.9995341  50.3052998
  35.8486056  26.2481356  51.6985321  35.1349878  12.8911614  28.8857746
  36.0162807  12.7661633  29.2378139  34.6701694  13.3736038  29.5694590
  80.0549278  84.5709888  57.2926664  79.7205589  83.7073771  57.0505810
  79.5130048  84.8381678  58.0350733   0.7973380  99.8519227  58.1359863
   0.6279297 100.1013753  57.2275257   1.6072698 100.3088737  58.3627892
  62.3815655  80.4746329  85.9471199  62.9922985  80.6087792  85.2223829
  62.0596241  79.5812642  85.8267990   6.4331132  26.6972613  62.7053595
   6.0273576  27.3242784  63.3040619   5.8482933  25.9396219  62.7195549
 103.7073829  29.5925999  26.3279986 102.9814973  30.1556134  26.5969563
 104.1838434  30.1098847  25.6786633   0.8881713  31.2148285  14.3303466
   0.9477935  31.8120408  13.5846829  -0.0499291  31.1461258  14.5077705
 106.3876890  16.6932428  54.8070908 105.8672663  17.1200967  55.4876709
 106.6105457  17.3978388  54.1987276   1.9868749   0.8609354  46.8569469
   1.2243983   1.0722761  46.3182449   2.6737413   0.6458138  46.2259388
  52.4785800  95.4009065   6.9552249  53.2704730  95.0154236   7.3301142
  52.4350352  96.2775544   7.3370934   2.0302407  26.2869453  60.7415342
   2.7245259  26.9350410  60.6224918   1.2567022  26.6893315  60.3466225
   8.4239924  48.4314632  69.3581486   8.9471316  47.6594448  69.1424084
   7.5333172  48.1979752  69.0965939 103.7220362  92.2075347  33.7791467
 104.1553930  93.0601314  33.7402868 103.9851145  91.7680625  32.9705143
  93.4845248  91.8767384  17.6804256  94.1756514  92.5166324  17.8510439
  93.4798614  91.3165489  18.4565687  51.2613814  70.2976886   4.4577810
  51.4200859  71.2258951   4.6294614  51.3204233  69.8815338   5.3177568
 108.2170849  49.1699791  25.1821280 107.8840991  49.7764874  25.8435678
 108.5561576  49.7351503  24.4879818  18.5345411  33.0659747  58.3567476
  18.7529790  32.4996543  59.0968800  18.1032538  32.4852133  57.7299023
   9.8870420  28.3732295  52.3010349  10.8285975  28.5437846  52.3258495
   9.6181178  28.6414671  51.4224195  85.1667050  95.0933049  52.0408630
  85.1402799  96.0441736  52.1475554  85.9833840  94.9277440  51.5698481
  24.8931265  25.3421354  40.7034063  25.0167084  24.9690223  41.5761900
  23.9958167  25.6753325  40.7102251  33.0924273  34.5375133  26.2618279
  33.7150764  33.8131857  26.1994529  32.2352028  34.1135979  26.3029504
  99.4955798  22.3920655  62.6187229  99.9558624  21.6329885  62.2607088
  98.5844143  22.1077180  62.6905346   2.5877161  93.1848398  13.7729669
   3.5002465  93.4735695  13.7604094   2.3944040  92.9621569  12.8623223
  85.8754948  97.3577032  55.2215290  85.0736026  97.4979958  54.7180271
  85.6990138  97.7625874  56.0707378  77.2084380  86.5611902  47.1116638
  78.0661303  86.9729653  47.0066071  77.0141081  86.1896602  46.2511778
  34.5481014  27.2047424  33.1538200  34.3825507  26.3643003  33.5809970
  35.2185655  27.6208520  33.6956382  59.1392473  90.1233283  46.7299080
  58.6221746  89.9217549  45.9500122  58.6804596  89.6790210  47.4428844
  18.3296728   9.1096377  45.5233383  17.9384446   9.7404534  44.9189854
  17.5819600   8.6643761  45.9219646 111.5322094   9.8375362  55.2592754
 110.8795793   9.9823636  54.5741987 111.0329560   9.8656619  56.0754776
 108.0964815   7.7693623  56.0382462 107.6792868   7.2561169  56.7301702
 108.1750017   8.6492252  56.4069033  32.8068781  20.0906849  56.1684036
  33.2530355  20.2613950  56.9978809  33.5121799  19.8838866  55.5552006
   1.4549546   5.6010097  67.0370007   2.1918795   5.0323915  66.8137360
   0.7044025   5.0095797  67.0928001  17.5991929  20.0015903  73.0018473
  18.1370842  19.7698712  73.7589502  17.5783551  19.2058253  72.4702883
  91.4088603  34.8071861  68.4622765  90.8541616  35.5842495  68.3936024
  90.8005746  34.0955663  68.6618137  81.7382125  97.2114048  25.8265018
  81.8955669  96.2678948  25.7909989  80.8047775  97.3058573  25.6367421
  15.1350021  18.0735326  29.6951842  15.5025041  17.3309743  29.2158294
  14.2224729  17.8301001  29.8509479  28.4012532  49.6164131  52.8558254
  28.7657738  50.4684258  53.0954885  28.7157202  49.4634295  51.9647932
 100.4304465  34.7517943  45.5043650 100.8774265  35.2961302  44.8561811
  99.6622284  34.4135785  45.0442743  39.0859604  44.9985266  65.9648228
  38.7919402  45.4238224  65.1592731  39.6041107  45.6669044  66.4131784
  48.9418364  42.6304388  63.9609194  49.0984964  43.5746908  63.9695644
  48.2042408  42.5154972  63.3617735  21.2290192  46.5942383  35.7453299
  20.7215571  46.1664009  36.4350200  21.3482785  45.9163427  35.0801492
  19.3747187  27.5242090  48.7959957  19.8362470  26.6956329  48.6668158
  18.6219740  27.4734545  48.2069063  12.1537244  46.4067411  43.4660578
  13.1019902  46.5185690  43.5332870  12.0427358  45.5798674  42.9968119
  39.6200037  23.8112378  55.4886818  40.3662682  24.2824578  55.8591890
  38.8908553  24.4279003  55.5542517   6.5593737  48.9009857   8.5262001
   6.6065806  47.9528761   8.6490220   6.5387028  49.2568445   9.4145519
  13.8758588  22.5703692   8.0697244  13.8001025  21.6591978   8.3530223
  14.1215503  23.0479097   8.8620782  23.8550388  91.5471994  87.9930667
  24.3189644  92.3592770  87.7892626  23.0017339  91.6464054  87.5708560
  22.6381540   9.8391330  39.1170597  22.9510236  10.2269912  38.2998013
  22.9247189   8.9268351  39.0743256   9.6816487  86.0992256  41.1693335
   9.0504022  85.5182258  40.7448292   9.9289937  85.6390647  41.9713926
  31.4178705  38.9178014  46.6707420  31.1423993  39.8309088  46.5895891
  30.8156395  38.4347510  46.1048698  30.0428963  47.5872660  69.9577093
  30.5214167  48.4162188  69.9482298  30.1344132  47.2476864  69.0674639
  11.1119771  52.5803089  52.7344608  10.8603024  53.4773540  52.5149250
  10.8980441  52.4920225  53.6632586  24.6629405  37.1329236  44.0895891
  24.5650554  36.2760735  44.5048714  24.2716146  37.7465320  44.7113466
  27.2932744  31.7374420  32.7992868  26.5438247  32.2622061  33.0806756
  27.7840829  31.5700865  33.6038542  32.1075654  37.2971344  33.7436533
  31.9442201  38.1138349  33.2718992  31.3180637  37.1611071  34.2675018
  90.8036145  36.1516905  13.6811888  89.9340995  36.5512896  13.6589003
  90.7335075  35.3930926  13.1016636   0.2935732  11.2613773  44.1034842
   1.1196236  10.9092844  44.4350004  -0.2456334  10.4886889  43.9348412
  37.2417498  54.0473843  39.2011428  37.5582242  53.5699701  39.9680543
  37.3082948  54.9695873  39.4488287   9.6117145   0.3454699  44.8316145
   9.4634354  -0.4761879  44.3635082  10.0156522   0.9214081  44.1824913
  70.7228708   1.5844026  11.2703598  70.9603882   1.5645155  12.1974099
  70.9223795   2.4779624  10.9911120 104.3790933  59.2440987   3.6241275
 104.0753426  58.3589458   3.4229463 104.1246488  59.7637367   2.8615874
  90.9700552 102.3715568  61.6122389  90.6495587 103.1082991  62.1325493
  91.8129674 102.1482420  62.0070314  28.6193514  41.7018747  61.1517239
  28.0412865  41.7066479  60.3888035  28.9017963  40.7908726  61.2325239
  22.7200389  14.6862996  42.9984713  22.6575565  15.1773739  42.1792221
  21.8669343  14.2617166  43.0888748  12.7075493  12.3621917  39.2036200
  12.7319682  12.3493087  38.2468176  12.2441804  11.5593266  39.4422150
   8.2629257  45.7429171  27.6808214   8.4632522  46.3045883  26.9320726
   8.8064110  46.0862970  28.3900070  13.6526060  65.1460266  55.8304548
  13.1296396  64.8029041  55.1058817  14.4877005  64.6830463  55.7633686
  30.6734776  12.5327444  81.1754990  30.6824398  13.0570912  81.9762516
  31.5912366  12.3036981  81.0289001  10.1865482  37.0482349  43.6986780
   9.4658500  36.4303541  43.5760021  10.8072388  36.8335581  43.0023384
  38.5963368  52.5648117  41.0526657  38.6381650  52.2978067  41.9709158
  39.4013166  53.0630350  40.9111977  21.3134837  64.8066568  55.4258585
  21.3666487  64.5252514  54.5125055  21.1859751  65.7540941  55.3775454
   5.5750465  24.3497086   6.5363348   5.0472438  25.0920701   6.2421352
   6.1522144  24.7166324   7.2060180  11.3717115  33.9438033  46.1403131
  12.1424282  34.4990110  46.0221100  11.7123687  33.0500507  46.1030340
  22.3085356  65.3110361   8.3379430  22.9137802  66.0436535   8.2231253
  22.0126700  65.3847313   9.2452824  50.6297636  27.3157048  57.3033190
  50.1619148  26.8668318  56.5991449  51.5142822  26.9510460  57.2736788
  40.7868433  15.2650201  21.1745834  41.6969585  15.3159046  21.4667082
  40.8436823  14.9815881  20.2620769   8.3552217  41.6703701  36.9050860
   7.5652021  41.6139650  37.4425983   8.9535671  42.2161961  37.4152708
  35.2614175 100.6821119  89.4857581  35.0611637 101.6039812  89.3236273
  34.8475653 100.2157890  88.7594665  61.0423851  37.2221637  49.8712301
  60.6989050  36.3952923  49.5327950  61.9330788  37.0139885  50.1532936
  11.9092143  30.8919334  35.2671409  12.7683783  30.6772900  35.6304550
  11.6325951  30.0930381  34.8182774  97.6383074  20.2769065  56.5631533
  97.8632172  21.1113501  56.9746828  98.3861192  20.0785637  55.9995317
  21.5482497  17.6925862  50.6558943  22.3332357  17.1981013  50.4202795
  21.1269307  17.8863692  49.8185349   0.5783705  45.6792068  25.4842567
   1.3922216  46.1189318  25.7302618  -0.1087296  46.1901903  25.9120679
 108.9648242  48.7427902  51.1823606 109.1304354  48.8964462  50.2522039
 109.7864395  48.3819771  51.5155172  27.5383472  54.3966389  19.4974124
  27.8722763  55.2393818  19.8048270  26.9536352  54.6204042  18.7733459
 106.7434444  22.2162127  56.0419703 106.0480400  22.7865148  56.3696909
 106.3016098  21.6265702  55.4309607 102.3938300  38.0509377  47.1098089
 102.1825656  37.5201082  46.3418102 101.9604626  37.6036525  47.8366947
  22.0496416  59.9329185  30.9229231  21.1511493  59.8975611  30.5947566
  22.5753450  60.1644802  30.1572561  44.3417263  44.8797941  42.0473862
  44.4896793  45.1257133  42.9605484  44.1579056  43.9409399  42.0789433
  14.3900299  47.8681707  29.9946618  15.2392685  47.7362108  30.4161024
  14.5924652  47.9262018  29.0609145  22.7598572  30.6212115  56.2902641
  23.6310077  31.0140562  56.2355042  22.3143864  31.1208510  56.9744825
 107.2066406   4.0943023  89.7529206 106.9521049   4.0630647  90.6751284
 106.3876585   4.2533418  89.2836619  26.6668653  35.5359602   4.8294455
  25.8430147  35.6553125   5.3019464  26.9401431  34.6445012   5.0459015
  45.0441170  44.7041321  30.4540062  45.8158159  44.1390657  30.4915333
  45.0412846  45.1618242  31.2946844 103.1561168  18.2196760  12.2475946
 103.2111695  19.0788007  12.6660502 103.7026145  17.6527381  12.7917945
  21.1260247  23.6390948  32.1548724  21.5590739  24.2889118  32.7084422
  21.7502332  23.4718466  31.4487410 108.0747630   4.4987839  17.8866112
 107.7541848   5.0564885  17.1777904 107.3131870   3.9805481  18.1467366
 110.6581905  23.7700462  24.1052413 111.4566693  23.2436848  24.0651536
 110.6003986  24.1835332  23.2438922  55.4131603  13.2812500   8.1687659
  54.7679138  13.8900685   8.5282481  56.1614227  13.8326883   7.9401815
  39.2355180   8.0473334  40.8869696  39.1398001   8.7912518  41.4816570
  39.7637177   8.3852577  40.1637506  36.7569447  11.0776508  56.1735725
  36.6189837  11.3900054  55.2793503  37.7021408  10.9400487  56.2360620
  46.1588526  35.5622673  10.5921388  45.8359814  34.7131586  10.2904797
  45.5053043  35.8551574  11.2272167  55.7232189  36.2001920  50.9184647
  55.0931168  36.9206214  50.9048223  56.4846087  36.5565586  51.3762045
  37.9253912  31.8657041  27.1003389  37.1642780  32.1261644  27.6190877
  37.7322912  32.1802258  26.2171531   3.4050268  30.3988528  22.7535129
   3.2336724  30.4091358  21.8118310   2.5677902  30.1524282  23.1466293
  26.7326069  21.0084748   1.5010068  26.0682797  21.2377715   2.1508697
  27.5179982  20.8240700   2.0161633  91.0484179  47.7963400  41.3189650
  90.6520113  46.9374037  41.4649963  90.3300317  48.4162283  41.4450312
 102.0896121  74.7906160  29.0896702 101.7279240  73.9980555  29.4862366
 102.6494928  74.4704723  28.3823705  45.7221794  31.8637204  46.6967010
  45.6450367  32.4666977  45.9573126  46.6493559  31.8917656  46.9329071
  30.9927082   7.6423234  41.8308306  31.2568474   8.0060405  42.6759148
  30.1342034   8.0300832  41.6609859  44.6500492  24.0641284  63.1364679
  45.2926970  23.3761525  63.3094597  44.7437000  24.2499137  62.2021532
 109.9456433  94.0237645  56.9632292 109.6030024  94.5012728  56.2077045
 110.1297144  94.7027472  57.6123285 105.3790220  38.4154058  61.0274792
 104.5209917  38.4152508  60.6031942 105.4515585  37.5460672  61.4214563
  14.0126681  16.5769398  22.0284247  13.7692440  17.4484789  22.3405099
  14.4307470  16.7338312  21.1817694 109.8432442  18.2875848  33.7403083
 110.4385794  17.6306665  33.3793831 109.8831902  19.0143371  33.1186438
  29.9945521   3.9354840  55.0261688  30.7754564   3.7382981  55.5434132
  30.2759600   4.6198475  54.4189739 110.9411577  27.3608828  40.1394701
 110.5393536  28.2244563  40.0444651 110.2443678  26.7459702  39.9101257
   3.0714977   3.8404667  59.9915457   3.4308374   2.9544562  59.9458027
   3.5341328   4.3222511  59.3059158  25.6820512  18.5860264  25.7638359
  24.8933625  19.0914583  25.9606647  26.3772893  19.2411113  25.7026982
  19.6284294  51.7395020  27.4646544  20.0482774  52.4102640  26.9261050
  18.8659430  51.4656782  26.9548798  13.1537485  17.1135306  25.9725881
  13.2550418  16.2218308  25.6396580  12.3054934  17.1086979  26.4160657
  13.2336164  23.4295273  44.4970655  13.3937085  24.1479349  45.1090240
  12.3776078  23.0846977  44.7511768 100.1908883  42.9123735  34.3608809
 100.7623383  42.6701307  33.6321855 100.0486907  42.0937490  34.8361278
  47.8244877   9.3794668  45.4062986  48.4539604   8.6710101  45.5407953
  46.9981003   8.9335650  45.2206087  32.5556087   3.6026511  56.1058235
  33.1750894   4.0320870  56.6957903  32.2043538   2.8734565  56.6168261
  13.8163471  26.8296123  51.3924408  14.3252456  27.2434020  50.6952810
  13.3640528  26.1047435  50.9609032  55.1856232  27.5305676  76.9339657
  55.5738592  27.0234966  77.6469803  55.6245232  28.3800912  76.9775963
  32.4968433  29.1177940  70.4087639  32.4910879  28.2926917  69.9235773
  33.0876017  29.6837425  69.9118328  56.2824249  12.1210372  38.1634021
  56.9772625  12.3747373  37.5558925  55.7534456  11.4918196  37.6729965
  22.2717667  62.3062944  53.9990759  22.0408249  63.1324959  53.5744715
  23.2102346  62.2083902  53.8380718   1.3968870  58.5495281  63.4136915
   0.8853566  58.1410122  62.7153492   1.3264371  57.9412556  64.1494083
  16.5468621  26.5599942  47.7519464  16.6983330  26.6026306  46.8077707
  16.3366020  25.6413364  47.9195452  43.5374832  49.5288515  24.9378347
  43.7584400  49.8583555  24.0667200  44.0027571  50.1104927  25.5390382
  19.0951908  35.5873036  36.3704419  18.8846409  36.4983177  36.1656117
  19.1354346  35.5598831  37.3264027  55.0746965  50.6153631  28.3963394
  55.1219511  51.5657139  28.2922506  55.3481197  50.4595423  29.3003273
  61.6963791  70.6002843  81.4283267  61.1568521  71.2473714  81.8826655
  61.3931607  70.6302929  80.5209175  29.9989533  34.1211462  46.1322832
  30.1367712  34.2335105  47.0728207  29.2381811  34.6674395  45.9347439
  87.2177323   8.0298287  50.0567055  86.8337973   8.6108106  49.3999815
  87.3595174   7.2046101  49.5928717  39.6074033  39.0975666  12.0332909
  39.0775824  38.7729430  12.7613997  39.5034957  38.4370637  11.3483286
  84.0421877   7.0459291  89.1907438  83.5361449   6.7187043  88.4470529
  84.2206672   7.9612227  88.9748416  29.3286276   2.9944071  24.2757368
  28.5167670   2.6716635  23.8846493  29.2842078   3.9447039  24.1699314
  27.1461153  42.5541353  80.3111935  27.6365423  42.5911331  81.1323738
  26.7832470  41.6686726  80.2886105  22.9036403  11.7271507  43.1808233
  23.7789011  11.9307613  42.8511381  22.5629139  12.5665140  43.4900284
  38.9448023  57.5528669  57.0414352  38.5380554  58.3907032  56.8204784
  39.8545361  57.6463461  56.7588043  41.7939615  42.4435520  36.7020202
  40.9373713  42.1766901  37.0355892  42.2398281  41.6206503  36.5013480
 110.6848635  29.1245818   5.5372256 110.1654229  29.7371197   5.0164467
 110.1185413  28.3602071   5.6432664 103.9818028 103.4872383  48.9801741
 104.3274883 104.2328816  48.4895086 103.8503937 102.8064451  48.3202600
  37.3324895  13.8482642  43.3144093  38.1118751  14.1850662  43.7563944
  36.9754314  14.6046352  42.8489590  42.2925806  45.2977371  11.5503371
  41.3481951  45.4025364  11.4346540  42.6791096  45.8065414  10.8376324
  35.7254481  30.9689784  51.5139341  36.5991139  30.6995726  51.7974234
  35.5516601  30.4383063  50.7364941  19.1891849  26.9405580  38.7528801
  18.4279418  26.5115404  38.3621287  19.2839801  26.5257788  39.6103191
  54.5971346  27.6323605  66.8920135  54.5937490  26.8608379  67.4585581
  55.3200579  27.4795198  66.2835312  42.1149158  39.6178269  10.8229172
  41.7362738  40.4610682  10.5743051  41.3697672  39.1023564  11.1315858
  14.5547855  27.2747421  34.5294404  14.1289413  27.6032376  33.7376189
  15.4742205  27.5201774  34.4263220   6.7466003  23.7644863  60.3656292
   7.5348288  23.9479303  59.8544788   6.4070737  22.9486227  59.9977779
  36.3285732  37.8874397  11.3298833  36.6103935  38.7065578  10.9226334
  35.7648468  38.1612253  12.0534062  16.8194425  21.3733029  25.6676364
  16.2876499  20.8428121  25.0743341  16.6593397  20.9977055  26.5333891
   5.2571487   8.9034587  46.4060736   6.1276400   8.5184532  46.5073013
   4.8162934   8.3359194  45.7737923   7.0762032  42.8636503  67.2682333
   7.1907294  42.9154539  66.3193226   6.4912081  43.5913897  67.4789619
  92.7668353   0.2066350  64.1660595  93.3934375   0.6568881  64.7325182
  93.0816647   0.3763349  63.2781887  18.4767616   5.3047282  60.1349545
  18.8917184   5.6235594  60.9364462  17.5508273   5.2195728  60.3621674
   0.0570990  52.8800106  17.4682212   0.6915501  53.5886812  17.5754261
  -0.5712939  53.0116892  18.1781626  29.8266149   7.9050314  33.5528517
  29.7448635   8.7393504  33.0908322  30.2423525   7.3201662  32.9193473
  43.5199881  20.5592632  63.6069250  43.1567574  21.3550019  63.2182169
  43.9073277  20.0877237  62.8694630  18.0350435  41.0228348  36.8326092
  18.1374311  40.2266979  36.3111544  17.1185803  41.0121202  37.1086740
   4.5437601  24.6810985   2.4913611   3.9162940  24.4219375   3.1661597
   5.0257403  23.8785958   2.2915787  35.0896025  32.8813505  24.8056459
  35.0075817  31.9289303  24.8546338  35.8691239  33.0273652  24.2696810
 102.7896311  27.6613688  42.6115751 103.5818359  27.7391601  42.0799828
 102.8459271  26.7878509  42.9989147  77.5008683  72.2344390   8.4899732
  77.9546885  72.0301072   9.3076059  77.6765828  73.1640390   8.3443662
  17.7073896  15.5358660  37.2692823  17.8260350  15.4665971  36.3219929
  17.7045155  14.6295536  37.5772119 108.7576775  37.8854895  22.7956414
 108.5598397  38.7367415  22.4051762 109.0942707  38.0941224  23.6670828
  48.3634329  24.3496537  24.1157651  47.6085329  24.8824835  23.8658524
  48.3598185  23.6223793  23.4934378 103.0094209  22.8301883  11.2327194
 103.4799173  23.3813000  11.8581307 103.6856135  22.5210190  10.6298852
  17.1559799  39.1441798  69.8616791  17.1942055  39.3599510  68.9298964
  16.6101265  39.8310590  70.2443886  83.9877447  54.9318790  41.6080523
  83.0803546  54.8309183  41.8955946  84.3600877  54.0527725  41.6770649
 102.9463562  11.1877227  81.7354012 103.4583720  11.4786208  82.4900246
 102.4646463  11.9669890  81.4580345  63.4124231  21.2872458  81.4108753
  63.7146711  21.8662643  82.1105957  62.4606037  21.3885975  81.4104939
  81.0112094  69.3209505  87.9547066  80.2103280  69.4742298  88.4560338
  81.7167567  69.4219577  88.5936386  49.4710827   9.8554337  37.9922795
  49.3556833   9.3510860  37.1869564  48.9383936   9.3956923  38.6412120
 105.0575306  41.5770578  36.2215447 104.3426522  42.2065306  36.3161254
 104.6233382  40.7246161  36.1891103  14.6605909  24.4057727  33.2163978
  15.4084933  24.4570518  32.6212144  14.7211158  25.2007246  33.7461352
  35.8714557  74.7865677  47.4588776  35.7157779  73.8432455  47.4126196
  35.5558968  75.0391293  48.3265543 109.9639610  55.1385403  54.6320772
 109.7006411  54.7394800  53.8028336 110.7961815  54.7172928  54.8469973
  33.1042624  21.0661840  12.0713854  33.9515066  21.4365268  12.3188853
  33.1995702  20.8488107  11.1440790  49.0554476   0.9525266  46.4912367
  49.0494776   1.3607442  47.3570061  49.7026443   0.2508173  46.5617561
  62.4426031  13.8712049  45.3794813  63.3947945  13.9459956  45.4424715
  62.1770287  14.6275628  44.8563862  23.3257914  32.9084682  43.9897251
  23.5065150  32.1338034  44.5221376  24.0953779  33.4652281  44.1079807
 106.1244788  61.9071817  68.5265875 105.4299434  62.5420284  68.3510208
 106.9334715  62.3719645  68.3127213 105.8362373  13.6660683  18.7248182
 105.8581116  14.4554806  19.2657280 106.7477056  13.5263336  18.4680474
 106.7328473  13.2421231  45.0958586 106.6053074  12.5792944  45.7745504
 107.6820626  13.2881486  44.9813890  21.6657186  32.5213718  57.8541517
  20.9646392  33.0025434  58.2936907  22.4548912  33.0335045  58.0306768
  48.2870392 100.3563443  50.5490828  49.2294339 100.4888154  50.4462290
  47.9035977 101.2150795  50.3708172 104.5599393  11.0407420  89.4355649
 103.7260011  11.4700528  89.2445878 104.4640950  10.7193585  90.3320904
  29.9344563  39.9570489   9.2318857  29.8085380  39.9940228   8.2837248
  30.7815480  40.3782797   9.3776107  37.2802424  57.4870634  46.8898058
  38.1998539  57.2473049  47.0040941  36.8072224  56.9187450  47.4976683
  62.4044991  35.8424211  24.6903849  62.5897789  35.9179664  23.7543321
  62.0031404  36.6795778  24.9234271  46.0892439  23.1911516  28.9524531
  46.7775249  22.5285268  29.0109921  46.1585045  23.5302401  28.0600119
  27.7237821  13.8931918  21.5802884  27.0386577  13.8541102  22.2476029
  27.3272014  14.3804371  20.8581042  25.8841944   4.4453415  21.8911529
  26.3276601   5.2043003  21.5122676  26.3143492   3.6909443  21.4885545
   6.1592376  16.7307293  70.8092022   5.6038928  17.4149227  70.4354334
   7.0296890  17.1264267  70.8535957  14.3236566  26.6296577  41.5343189
  15.1998091  27.0112181  41.4795399  13.7998867  27.1432257  40.9193850
  68.1262450  67.3721866   6.0522863  67.7521829  66.8990461   6.7955610
  67.9514890  68.2938568   6.2425920  48.8605261  31.1741257  69.2479086
  48.7299490  32.1177292  69.1541195  49.4446898  31.0868669  70.0011492
  44.3057966   5.6603116  31.7091322  44.6651793   6.4364648  32.1388555
  43.7928867   6.0066974  30.9789443  97.7720698  46.9689417  60.3350687
  98.6681911  46.7407274  60.0878477  97.8211804  47.8902769  60.5899382
   3.3531900  99.3891916  36.8029833   4.0182824 100.0773114  36.8222594
   2.8748174  99.4953534  37.6252508  20.3871965  18.1603074  48.0776024
  20.9931040  18.8236165  47.7472591  19.7087514  18.6603808  48.5313368
 101.7228559 103.7485530  21.0229492 101.5016488 104.3902530  20.3480268
 101.5834788 104.2118986  21.8488526  21.9534731  33.2098818  73.3726263
  20.9963179  33.2064795  73.3814096  22.2008133  33.3646393  74.2842770
  15.2364075  56.0983562   5.8780771  15.9020472  56.7421579   5.6358504
  15.6301904  55.2533817   5.6608576  30.0237942  26.6618633  22.8646684
  29.5674229  25.8221173  22.8119040  29.5599103  27.2258615  22.2458386
   4.2682117  59.2489338  37.8618908   3.3556303  59.4794035  37.6877904
   4.5700943  58.8376951  37.0519662  19.4801629  39.0004015  46.9965649
  19.4591558  38.3120084  46.3318014  18.8404703  39.6450305  46.6941118
  27.6986957  48.3313131  32.0739865  28.4719563  47.7727175  32.1531940
  27.7256989  48.8893318  32.8512359  18.1804860  24.3991947  67.8238440
  17.3355627  24.3791676  68.2732153  18.0009055  24.0291691  66.9595146
  92.8925220  85.4397884  16.6343141  92.7657441  85.4258290  15.6856501
  93.7890605  85.7539633  16.7515469  51.6098070  21.2601209  63.5726786
  52.1314621  21.9529510  63.9777613  52.2201729  20.5300379  63.4693956
  28.8493848  35.1030278  50.5040932  29.2225003  34.4987798  49.8622990
  29.4842577  35.1136804  51.2203741  35.6489110  43.2384062  47.9532814
  36.1621428  42.6695442  48.5270596  35.5714130  44.0602493  48.4378386
 106.5584978  63.2058096  16.6812038 107.4291789  63.5941458  16.7668962
 106.3991790  63.1808519  15.7376862   7.8281683  24.5156407  13.7233114
   6.9999003  24.6710038  13.2693660   7.8472757  25.1732826  14.4185638
  80.4586790 102.5495142  72.7613735  81.0614780 103.0767407  73.2856798
  80.8653853 102.5104954  71.8957520  49.5108604  38.1490636  36.3685679
  49.5489550  37.1949744  36.3015366  50.4017019  38.4387469  36.1717939
  47.1054840   5.9848219  19.1562331  47.3763275   6.8191528  19.5393360
  46.6179609   5.5477053  19.8544323   6.0776818  28.7653708  73.3397007
   6.2992054  27.9383612  73.7677336   6.6708684  29.4052172  73.7333441
  26.0735798  24.0686154  48.1440639  26.9775510  23.7766051  48.0266047
  26.0327649  24.9101281  47.6897287  41.7019987  34.5057225  31.9922113
  41.3977385  33.6081386  31.8580508  42.4435472  34.5991564  31.3942027
 105.4464730  43.5110712  41.5044165 105.2365359  44.0160990  42.2899771
 105.8352073  44.1492319  40.9061909  72.1245193  12.5085151  43.1951761
  72.9025984  11.9772243  43.3641481  72.0575190  12.5383878  42.2407913
  41.4623594  36.4281678  45.7623005  41.0456991  35.8719373  46.4205074
  42.1733665  35.8921266  45.4110813   8.8256061  41.9535065   1.3422842
   8.9704490  42.7495146   1.8537797   7.8830725  41.7980099   1.4029627
  31.9868517   5.1628727  18.5375106  32.4111652   5.8092141  19.1018081
  32.1228218   4.3279028  18.9853597 102.3395177  51.8782616  34.8700047
 101.4090117  52.0312500  34.7057366 102.3552104  51.2554026  35.5966640
  17.4760664  30.0551605  50.4625607  18.2943130  30.5232096  50.6287956
  16.8061304  30.5815959  50.8987761  14.0071988  17.4669456  71.0563469
  13.7031937  18.1507099  71.6532373  14.9443936  17.3916280  71.2358618
  22.0390582  26.3595390  37.1549654  21.5036058  25.8061075  37.7235031
  22.6243925  25.7481956  36.7078900  29.7236228  36.6024113  42.7514458
  30.3167677  36.0104728  42.2888231  28.8478518  36.2937665  42.5190783
  23.9024830  34.4097066  38.5305071  24.0294433  33.4756708  38.3640981
  24.0452719  34.5068288  39.4720006  15.9762330 103.3240760  67.0227623
  15.5870862 102.7965886  66.3252258  16.7650695 103.6970884  66.6292763
  52.1684980  34.3091536  34.7556949  51.7048740  34.1787076  33.9284873
  53.0079031  34.6928310  34.5018840  13.7565422  37.1819830  56.9361210
  14.5008361  36.6091132  57.1207285  13.0738628  36.8898606  57.5401449
  18.9141047  72.5053263  43.6707735  18.2443202  73.1742907  43.5289812
  19.6462357  72.9792547  44.0652418  12.7573073  16.1214566   6.7259634
  13.6750424  16.3818944   6.8044931  12.4330461  16.6116190   5.9704328
  10.4542267   2.8707063  41.3114166  11.3877153   2.7776363  41.5016031
  10.2033973   2.0310953  40.9262323   1.4743827  25.7826734  37.3394656
   1.1571096  24.8916268  37.4864531   0.8110873  26.1834693  36.7776537
 108.8671288   7.1461571  19.0660020 108.4146413   6.3027513  19.0536329
 108.6387667   7.5280702  19.9134847  15.5560541  19.8924422  23.5458732
  14.7104764  19.5994818  23.2061601  15.9656942  20.3465319  22.8095126
 104.4670292  70.0122976  45.4113388 104.9685129  70.6979752  44.9702120
 104.9319049  69.8682117  46.2355757  13.4883261  42.2865057  36.8919182
  13.5139287  42.8991556  37.6269269  14.3562341  41.8828535  36.8862247
  91.2680713  92.1456460  30.7249928  92.0320598  92.7133707  30.8261895
  90.6687335  92.4249831  31.4170885  96.5279349  29.2766643  51.8591738
  96.3917633  28.6219883  52.5440741  97.3503002  29.0195894  51.4422131
  62.6679850  65.1621246  50.4746580  62.3389482  64.3307638  50.8164167
  61.8920708  65.6023550  50.1276970  40.0765276   6.3250774  71.2178802
  39.4793606   5.7923388  71.7430592  40.6423330   5.6893241  70.7798004
  14.4257557  64.3118668  44.7257519  13.4847856  64.1420412  44.7700787
  14.8214042  63.6014414  45.2307177  37.6244497  53.8768148  63.6484671
  36.9549274  54.4085979  64.0787935  37.3469591  52.9734039  63.8003826
   5.2001208  62.0826054  26.0327864   5.4757220  62.8818607  25.5839372
   4.6077511  61.6533518  25.4154754  11.1627638  57.9456711  34.9500608
  11.7030883  57.1751928  35.1250982  11.7619181  58.6856890  35.0481486
  43.5382652  64.9193144  58.4275436  44.2764378  65.3538370  58.0003214
  43.8104868  64.8269272  59.3405581   8.8973862  49.8563766  63.3689976
   8.9106959  50.8121109  63.4202194   8.7617964  49.6681595  62.4403286
  30.2224612  20.0980520  24.2176700  30.4550171  19.9027324  25.1254129
  30.6641030  20.9263229  24.0301824  45.2554417  37.0363235  31.8239570
  46.1314106  36.8888021  32.1805310  45.0282097  37.9224110  32.1058249
  46.8353462  48.4683180  43.9263344  45.8784103  48.4644270  43.9485264
  47.0946074  47.9422188  44.6827936  43.4001493  34.7346306  73.8502502
  43.7737751  35.0321674  74.6797752  43.3924723  33.7799859  73.9197493
  80.4756783  87.4784863  87.1444256  79.6186446  87.3004782  86.7570770
  81.0828303  87.4524915  86.4048827  19.9939847  59.5046139  75.3130054
  20.8118963  59.1944599  74.9243498  20.1030302  60.4535532  75.3750944
  31.1266446  43.8685083  45.7084274  30.9814024  44.7148848  45.2855968
  31.8493414  44.0252733  46.3161802  39.8011756  52.1520376  34.4887471
  39.0575838  52.7440023  34.3752742  39.5258784  51.5517569  35.1816416
  35.2176452  23.5989952  41.4259529  36.1178064  23.4045458  41.1649275
  34.9971151  24.3985462  40.9481287  12.2473526   3.5219184  38.8154602
  11.6145849   3.8139647  39.4716191  12.9363596   4.1860896  38.8348937
  48.5602236  44.7651863  61.8151045  49.1107607  44.3732452  61.1372232
  49.1733646  45.0169992  62.5056696  22.5645781  45.9097242  42.9752588
  21.6459894  45.7090378  42.7959538  22.5368142  46.5230799  43.7095976
  11.3684857  26.5851021  74.3530226  12.2909355  26.3910341  74.1867208
  11.0520911  26.9649386  73.5333586 110.4003382  35.0586963  19.2942166
 110.2250192  34.6915340  20.1606393 110.5052201  35.9975123  19.4486737
  15.3412127  50.3024149  38.8470292  14.6981299  50.9873819  39.0300560
  15.3893685  50.2682066  37.8916550   5.1443094  20.5860233  62.1522045
   4.2378920  20.8328128  62.3358727   5.6512994  20.9988189  62.8513384
  22.9087377  34.3053007  49.7946501  23.1091833  33.5222387  49.2819452
  23.0909514  34.0521955  50.6996202  38.7414861  19.3016207  36.9354033
  39.0703392  18.5568511  37.4388003  37.8268003  19.3872499  37.2041965
  37.3649096  48.2379150  30.8253050  37.4939799  47.3866415  30.4070902
  36.5276980  48.5492992  30.4812860  28.2060623  25.9645796  51.4902592
  28.6222100  26.7078137  51.0536146  28.8952255  25.5942392  52.0417404
  18.3621323   8.2465690  48.3823729  18.4014058   8.8355714  47.6288700
  19.2610097   7.9358673  48.4906149  27.6511502  35.2021813  45.2571154
  27.2050643  35.1153469  46.0995483  26.9439983  35.3177357  44.6224356
   1.4237101  66.8496323  23.9837360   1.8981476  66.7047215  23.1651139
   1.5296710  66.0319519  24.4699502   4.3216565  33.2571363  29.6452522
   4.1384211  32.8282762  30.4811549   3.8764033  32.7141142  28.9947844
  31.6440892  47.8933191  32.7772737  31.4030027  47.7443409  33.6915588
  30.9776211  47.4250746  32.2744823  26.5240455  51.3436413  65.6904602
  26.6467977  50.7654476  66.4433575  25.7371044  51.0110140  65.2588129
  35.2993894  34.7553110  57.3851633  35.1091886  35.6850219  57.5104380
  35.7604265  34.4955611  58.1827879  13.4255052  65.2951860  47.9372597
  13.1564689  65.0669622  47.0474434  14.3504548  65.0521374  47.9775858
  46.6690493  66.8689108  69.8669815  46.2143517  67.0390987  70.6919193
  47.5176430  66.5128279  70.1302719  53.6256838  60.7694578  48.6711836
  53.0942345  60.3517532  49.3489122  54.5132637  60.7705116  49.0295553
  24.1321278  30.0368023  19.1647112  23.5375667  30.7707238  19.0095067
  24.1107821  29.5348382  18.3499670  33.0726027  58.7264156  65.2250862
  32.3199558  59.2730045  64.9992704  32.9607224  57.9352045  64.6981096
  16.3827705  54.3011570  81.1892128  16.8565607  53.6340666  80.6924725
  15.5722046  53.8688660  81.4581680  22.7765632  45.2903128  64.6551704
  23.1592798  44.6014977  65.1985741  22.2564292  44.8201036  64.0035629
  21.8475223  51.1167240  68.7979937  22.6222873  51.2059450  69.3529844
  22.1916413  50.8384323  67.9492521  30.8683085  59.0539408  55.8046722
  30.6659341  58.4862375  55.0610399  31.7660451  59.3456697  55.6459475
  48.3307791  74.8632145  70.6761456  48.3220053  74.2440462  71.4060688
  47.4770784  75.2941847  70.7173681  20.2862859  36.9478655  72.0945501
  20.7201815  36.1959076  71.6914034  20.3862762  37.6532054  71.4552307
  46.3064051  18.4857464  24.2597508  46.4654064  17.6568544  23.8082099
  46.1983347  18.2409561  25.1787877  47.8639936  60.6688356  47.3254013
  47.9611683  61.5631676  46.9983530  46.9179010  60.5397940  47.3924160
  71.1082935  48.7318468  19.3924594  71.5755892  49.5101309  19.0889156
  71.1544418  48.1222916  18.6558831  26.7633915  38.1946301  47.0031452
  27.5883222  38.4858322  47.3916388  26.2946177  37.7738309  47.7238464
  39.4163179  28.3488154  18.2612848  39.8595524  27.5725031  18.6035085
  39.6883702  28.3954215  17.3447442  47.1041727  49.9971437  22.8971767
  46.4823103  50.1367283  22.1830082  46.8479586  50.6326914  23.5655093
  29.5659447  48.1713438  60.0702095  29.1776586  49.0161085  59.8425245
  30.5070472  48.3423233  60.1065779  38.8648748  30.9449148  29.8323345
  38.3095121  30.3232050  29.3619275  39.5000529  31.2399650  29.1798568
  34.6135736  29.0553808  54.4166422  35.3928900  29.4479489  54.8100710
  33.8904786  29.3542266  54.9680567  32.6808667  54.4372368  46.1820650
  32.3496079  54.2387867  47.0579147  32.7818179  53.5817766  45.7646561
  44.3442392  42.0345497  53.9603233  43.5824776  41.4921904  53.7558842
  44.6649122  42.3282909  53.1076097  19.9326324  42.9201126  60.8515358
  19.8225629  42.6571512  59.9377680  19.2563748  43.5825491  60.9932566
  44.9628496  47.5660849  17.4302554  44.0713215  47.2178745  17.4175000
  45.4679298  46.9135380  17.9153395  32.0360613  45.1781797  24.9897671
  32.6950121  44.5082855  25.1721334  31.9556236  45.1816368  24.0359592
  25.6974410  86.5585625  81.8856827  25.4787587  86.8298876  80.9941719
  25.6577074  85.6024897  81.8616137  15.1421738  36.3103747  76.4233589
  15.3886569  35.3950810  76.5564632  14.9832952  36.3811874  75.4820967
  27.0907593  46.7446852  56.6871738  27.0616508  45.9933138  56.0948706
  27.9545212  47.1307850  56.5420055  17.2027349   4.3335205  45.5394173
  18.1104434   4.0303549  45.5197334  17.2287905   5.1948190  45.1226234
  27.1998858  42.7712297  44.9952602  26.5952992  42.2837305  45.5547667
  27.6338720  43.3842802  45.5886078  43.3309460   3.2352877  72.4346352
  42.3980141   3.0521026  72.3236895  43.4037781   4.1832203  72.3234940
 109.0083814  53.9678669  41.8453026 108.3777004  54.5723629  41.4540768
 109.7236615  54.5288849  42.1450806  36.2140393  12.3158658  73.6874437
  35.8354044  12.8939545  73.0251122  37.1573114  12.3566365  73.5299301
  33.0498958  21.1416554   1.4546418  32.7639866  20.6916666   0.6596584
  33.8352227  21.6204405   1.1895808  41.3757658  36.9660974  55.2267122
  41.8284512  36.5439987  54.4965458  41.9410849  37.7002835  55.4667568
  26.9907689  57.2195053  81.1188793  26.5095711  56.7525482  81.8019867
  26.8820429  58.1446600  81.3391018  30.3712368  82.1193790  60.0976562
  29.5762968  82.1052170  59.5646429  30.3872323  82.9964828  60.4806232
  63.9256577  96.8536834  14.7916242  63.2805710  96.1465148  14.7892305
  64.4779496  96.6766480  14.0301343  30.3711629  68.5820770  69.4183254
  30.4247785  67.7140617  69.8182154  29.4439292  68.6918211  69.2075539
  23.2077336  38.4287333  55.4500771  22.3875713  38.6244416  55.9031391
  23.1111503  37.5212908  55.1611996  31.6150928  18.8247406  43.7969017
  32.2695470  18.1798005  43.5286236  31.7862773  18.9666462  44.7279167
  42.5375700  33.0899668  59.0143108  42.2382689  33.5020661  59.8247576
  42.9483652  33.8005495  58.5218143  44.6146822  27.2583437   9.4583535
  45.0830317  26.8134308  10.1647031  44.6710443  28.1874323   9.6816236
  33.2341170  39.6318555  51.8971300  32.3687720  39.2395854  52.0134592
  33.8167667  38.8870215  51.7488909  21.7525291  44.3531227  62.4029160
  21.1698842  45.1095009  62.3347235  21.3973713  43.7201738  61.7788410
  25.5623817  38.1319666  54.1599035  26.0205030  37.5574112  54.7732878
  24.6821976  38.2196951  54.5257044  97.8057083  42.8633165  65.3654480
  97.7322002  42.9353666  64.4137955  97.4737974  43.6983776  65.6952143
  32.9928136  42.7581453   5.2727914  32.2048163  42.7951479   4.7306466
  33.7116575  42.6803875   4.6455353  11.4953554  25.2181888  42.1038961
  11.3424826  26.1082554  41.7866468  12.4351609  25.1857328  42.2826242
  25.4067850  59.7513294  12.0614505  25.4732752  60.1398134  11.1891592
  26.2975025  59.7907591  12.4097323  37.3295522  39.4712496  54.3240786
  36.7169571  40.1542234  54.0511227  38.0195475  39.4894171  53.6609030
  27.0117426  69.4995308  48.9532137  27.9357791  69.3259144  48.7736464
  26.5436244  69.0675354  48.2387352  41.3341327  99.6726588   5.1223012
  41.7109041  98.9409045   4.6336194  41.2998690 100.3905372   4.4900819
  39.9516034  49.1863537  60.0737047  39.2548871  48.9034271  60.6659651
  39.5662975  49.9093962  59.5787477  32.6721859  48.3508635   6.6802216
  31.7576861  48.5523605   6.8785226  32.7354503  47.4010849   6.7809552
  34.8237491  48.3089733  29.5498323  34.0679836  48.8634825  29.3559980
  34.5753407  47.4434614  29.2251515 100.3463265  41.7616129  60.9113693
 100.7594904  42.1357965  61.6895151  99.8447677  42.4849272  60.5352259
  30.1294136  49.9075747  65.6837749  29.3829727  49.9152374  66.2829399
  30.7559466  50.5170870  66.0738850 110.7018570   1.6826077  82.8722695
 110.4622487   1.3538714  82.0058111 109.8826412   2.0185443  83.2359538
  62.7513885  32.4079418  62.5958395  63.0927372  31.8089867  61.9317865
  62.0192862  31.9348979  62.9914284  38.1771445  18.2727206  54.4977427
  38.5285425  17.8914249  53.6931515  37.6583409  19.0206552  54.2016506
  21.0954809  19.0423894  43.8996172  21.1206007  19.1761136  44.8470974
  20.1713657  18.8875401  43.7040043  35.4910779  15.0689840  30.6806684
  35.1111436  15.5670619  31.4044070  36.0785937  15.6875706  30.2466083
  28.1757522  53.5772371  52.5907469  28.8177681  54.0629959  53.1085157
  27.7392864  53.0072689  53.2238865  23.2108855  76.5775728  15.7267773
  24.1289520  76.8484068  15.7207119  23.1025767  76.1168480  16.5587819
  16.2784243  34.8159862  43.8043070  17.0727432  34.6499658  43.2966423
  16.0505557  33.9646220  44.1777897   4.1243026  16.6105819  26.9211721
   4.1953647  15.6617558  26.8167114   3.8903502  16.9306064  26.0499191
  32.6175976  45.6545401  40.7415581  32.6751876  45.0032187  41.4406252
  31.9018054  46.2308121  41.0094881  27.8303146  38.0379796  25.2814388
  27.5583196  38.5476542  24.5182323  27.0713758  37.4924850  25.4880214
  32.3507047  69.5753717  33.9071250  32.4852085  70.0220442  34.7429657
  32.3319197  70.2798653  33.2593822  35.4840279  21.5260911  22.7151203
  35.1616192  22.4270177  22.7399421  36.1435175  21.4885426  23.4078646
  41.1702251  32.0950532  31.3724780  41.3833904  31.7640996  32.2449803
  40.8221531  31.3348818  30.9064102  35.0947428  30.3746271  46.6396666
  35.9064484  30.8792138  46.6921520  34.4551873  30.9869313  46.2759542
  36.4607906  29.3906188  29.4781375  36.1265707  28.6455703  29.9775672
  36.7565751  29.0109968  28.6507130  18.2452869  38.0417848  35.8356762
  17.5145936  37.9086971  36.4395046  17.8295922  38.2454252  34.9978471
  17.3059022  22.1312404  53.9720583  18.1867528  22.1494865  53.5978889
  17.3832047  22.6212859  54.7906590 106.7382421  53.1872988  67.6721573
 107.1383622  53.1507730  68.5409498 105.8946844  53.6165905  67.8148222
   8.7289238  15.5209792  35.0146890   8.7826884  14.6170211  34.7045255
   9.3611109  15.5660772  35.7319999   7.1358240  42.9127884  42.8201389
   6.8005931  43.7077570  42.4055576   6.5948385  42.2092533  42.4615288
  23.2371926  27.8910756  55.2856493  22.7513099  28.5268283  55.8109808
  22.5603199  27.3742056  54.8487043  16.0825741  43.5274887  76.6573858
  16.2084818  44.4763660  76.6602516  15.9855843  43.3015394  75.7323074
  18.9085090  41.7006540  67.8027439  18.3596241  42.0839262  68.4868908
  18.9358187  42.3670912  67.1161985   7.5009429  46.4848566   9.9527079
   8.4176779  46.7530155   9.8901051   7.4212450  45.7581282   9.3348497
  66.1587887  86.6994957  10.4548856  67.0418505  87.0088629  10.2530786
  65.6610756  86.8555550   9.6522924  20.3707004  73.1851244  39.9717379
  19.7611868  73.4449530  40.6625462  19.8348629  73.1528330  39.1792321
  34.1837120  40.4862976  18.9823091  33.7190175  40.5407190  19.8173726
  35.1095366  40.4645061  19.2243886  27.9500794  36.0968876  34.3047023
  27.4409223  35.7869411  35.0536489  27.6724696  37.0051932  34.1857600
  39.5527720  47.5463676  38.9687800  38.9419293  46.9327497  38.5606456
  39.1875768  47.7045059  39.8393297  25.4067183  68.1420565  46.5979052
  25.8696961  68.0666876  45.7635164  25.1445484  67.2457886  46.8081570
  37.3478603  42.8626060  33.0394816  36.8411970  42.1629047  32.6272368
  36.8579245  43.6610079  32.8426337  37.8736806  46.8773985  73.2216978
  37.2846913  47.4827814  72.7713203  38.0433655  47.2927999  74.0672016
  34.9408150  19.8189735  20.7278490  35.1881695  20.3535295  21.4823675
  35.6225562  19.1491401  20.6750631   5.0520533  30.5656219  51.6358185
   5.3187442  29.8889923  52.2581339   4.3863916  30.1429701  51.0931444
  22.3611283  39.0819097  69.1127110  21.6532636  39.2338347  68.4865522
  22.2681475  39.7857523  69.7547340  45.3288651  55.1268196  45.5437613
  45.9084034  54.7668552  44.8723507  44.8820210  54.3631458  45.9089518
   6.7751122  56.0762024  11.9931662   7.0379114  55.1639414  12.1154201
   7.2716111  56.3680840  11.2286234  38.8236952  36.1897540  68.4929037
  38.2210088  35.4694510  68.6777496  39.5626044  36.0412073  69.0829706
   4.7437611  21.8244815  38.3064198   4.9581587  22.4209332  37.5891256
   4.7392270  22.3795485  39.0862370  24.5722675  37.6173592  85.8256626
  23.9246917  37.7083683  86.5246582  25.4022193  37.8626084  86.2346458
  62.5501585  89.1243172  51.5581608  63.2412386  88.8113403  52.1418428
  62.9737520  89.1971207  50.7028818  22.4212003  55.9136105  54.9913740
  23.2696629  55.5558062  55.2527475  22.5752974  56.8540335  54.9013996
   1.4031056  57.2310925  40.1914120   1.6444792  56.7142010  39.4227839
   2.2309583  57.5955486  40.5045700 106.5972093 103.3851837  58.4200478
 106.7308596 104.2646219  58.0665541 107.1227530 102.8178838  57.8559494
  36.6311502  44.9280214  60.3091431  36.5499926  44.6573830  61.2236929
  36.3217425  45.8337784  60.2990389  48.7617922   0.9903000   8.8595665
  48.5454798   0.5583726   8.0332023  49.0253353   0.2769520   9.4408679
  27.6473951  30.1593566  58.2302999  28.4987998  30.5660772  58.3913040
  27.2306967  30.1270795  59.0914392  43.0836439  39.1375184  59.5901871
  43.0770969  39.7820878  58.8825703  42.8109074  38.3205652  59.1725349
   8.6940402  63.5575008  41.6805840   9.1081589  64.3389750  42.0466852
   8.0319583  63.8970661  41.0784435  29.7425151  27.1384478  31.7183423
  29.8151994  26.8817258  32.6376057  30.3164935  26.5295744  31.2535238
  12.4995065  14.6781373  45.6993198  12.8774691  14.5701420  44.8265600
  13.2558310  14.7172058  46.2847090  32.9860473  36.7428160  53.7702990
  33.4793949  36.8888831  52.9631376  33.5951114  36.9801354  54.4695473
  58.8595295  32.5183606  25.0122476  58.6800861  33.0146050  24.2136407
  59.5671511  31.9212961  24.7693133  42.4120569  28.8006973  56.4202070
  41.9467306  28.9548182  57.2423744  43.3098221  29.0819049  56.5967560
  40.6707239  46.7921877  56.8652344  40.8344173  47.2875404  57.6677704
  41.0964346  47.3035431  56.1771059   2.2405209  34.4276690  27.4255085
   1.7645156  34.2999029  26.6049457   3.1435955  34.1872001  27.2184777
  19.4242811  63.2033348  12.7640116  19.0631628  63.1055641  11.8829513
  19.8021054  64.0827799  12.7717721  18.4702194  49.1822100  31.2275624
  18.9797020  49.1241884  32.0358276  18.4423494  50.1181030  31.0286689
  55.3243399  39.7577262  66.4650440  55.4062653  39.0159774  65.8656025
  55.9949923  39.6032381  67.1303177  47.2339153  39.2569542  41.4683580
  47.3537207  38.5389662  40.8467722  46.4884949  38.9873576  42.0049191
  61.0265017  51.3652086  21.3373876  60.7528067  50.5550766  21.7675209
  60.3687716  51.5091705  20.6570196   5.3407651  58.7032223  77.3130322
   6.0294557  58.1510210  77.6831865   5.8096659  59.3485641  76.7839813
  32.8881717  44.7470427  47.4399710  32.4078774  45.0046492  48.2268572
  33.7684870  45.0995016  47.5705576  30.5911851  50.2533674  45.0880051
  29.9457455  49.5467377  45.0701189  31.0788369  50.1530838  44.2704678
  41.8149281  14.4328713  29.0606499  42.2333717  15.0367069  28.4470415
  41.2324095  14.9859178  29.5812702  30.4406095  64.2234850  61.5094566
  29.7975063  64.4262075  62.1888304  30.0231886  64.5010900  60.6940269
  13.0158615  53.5884666  57.6564312  12.8791225  53.9378643  58.5370302
  12.2411478  53.0518913  57.4886847  16.0452628  48.3523321  57.5199747
  16.7809439  48.7628841  57.9743433  15.9643173  48.8436794  56.7025042
  23.0036068  56.4403343  88.2459164  22.7848554  57.0832634  87.5713634
  22.6118016  55.6242180  87.9349899  19.6077561  20.3811026   9.9062389
  20.1011539  21.1176872  10.2671182  18.7113881  20.7079649   9.8293221
  18.5372305  12.2041023  23.9815140  18.9265192  11.3564169  24.1962647
  19.2780125  12.7458394  23.7094951  33.4787273  32.0490336  30.7217145
  33.1127024  32.2463036  31.5838885  33.0870485  31.2092733  30.4816651
  88.6638888  42.4941587  60.1503944  88.5497840  42.3068666  59.2186594
  89.3403395  41.8805408  60.4369545  44.2246675  39.7623610  14.4968772
  44.1794682  40.2475405  13.6729884  45.0617361  39.2998147  14.4568312
  47.7961779  38.0352902  63.1369877  47.1401024  37.8975558  63.8202381
  47.2920942  38.3205438  62.3749113  25.3799009  47.2196007  53.4537792
  24.7629595  46.4882231  53.4803057  26.1892009  46.8636942  53.8206530
  26.0113120  38.4500027  21.4341950  26.5207577  37.6420808  21.3712645
  25.1906395  38.1839824  21.8488765   0.6519996  38.6726880  86.9252110
   0.6358694  37.7869010  86.5627861   1.5288934  38.9985156  86.7224216
  40.4755402  27.5948691  60.6943512  39.5616364  27.7012134  60.4303312
  40.6139374  28.2721639  61.3564301  40.0816727  25.7179189  32.9551983
  39.5280671  25.0112820  32.6229095  40.2479506  25.4828286  33.8680601
  32.9108620  65.0563288  67.8766108  32.1403623  64.5398951  67.6402712
  33.2276988  64.6568251  68.6866951  44.4798422  43.2339716  57.9572535
  44.4374323  44.0716648  58.4184504  44.7075129  42.5982857  58.6357117
  46.5008163  27.1922898  47.4916840  47.0834112  27.3641086  48.2314777
  46.2825680  26.2635446  47.5693607   8.0995540  78.3275274   7.1384641
   8.0116324  77.5815753   7.7318021   8.9554338  78.2068590   6.7271921
  18.7110615  46.2930870  26.7506504  17.7840078  46.0993385  26.6118550
  18.7125957  47.0984554  27.2679615  56.8142176  71.1646461  78.4374571
  57.0234156  71.3290024  79.3569422  57.6563454  70.9538221  78.0342102
  58.5827160  83.6553574  62.6641035  57.7939177  83.7197018  62.1256876
  58.2638264  83.7172985  63.5644913  33.7163281  95.5645180  29.0732145
  33.3612323  95.0300694  29.7835016  34.6265912  95.2799797  28.9914179
  37.6164055  83.1227303  43.3170557  36.8692017  82.5481796  43.1503057
  38.3515310  82.5255394  43.4555435  32.1470761  47.1526051  56.9799185
  31.5834856  46.5312052  56.5189886  32.4353194  46.6806126  57.7611780
  54.9819994  65.2018642  55.5301857  55.8795023  64.8705769  55.5613279
  55.0643539  66.1353397  55.7252979  54.8757601  53.6022186  44.0584803
  54.5168877  53.3314371  43.2134247  54.1099119  53.8552141  44.5739412
  35.6411529  37.3698139  35.8680487  35.1871085  38.1953883  36.0368800
  36.5359116  37.5220227  36.1721349  42.1955442  43.8501453  30.4623246
  41.4462662  44.3605614  30.1552510  42.9577255  44.3818092  30.2328801
  33.8912559  45.0086117  56.3457108  34.6326256  44.5964622  56.7892647
  33.3592176  45.3705025  57.0543766  44.0017986  63.1636667  47.4043798
  44.5498991  63.8694572  47.7474356  44.4908667  62.3642731  47.5993490
  75.3778124  64.1178846  31.2866735  75.2693129  65.0195169  31.5891933
  74.6004105  63.6618853  31.6090751  33.8883352  83.4539032  15.4784048
  33.1260777  84.0097904  15.6402445  34.6330261  83.9754772  15.7777882
  21.7103195  79.1642475  81.6526985  21.2219048  78.3450413  81.5715504
  21.9018483  79.2373037  82.5876904  56.4066505  51.5337229  42.8352785
  56.1955929  51.7813873  41.9350815  55.8702040  52.1140194  43.3753824
  54.6722126 104.0111732  14.4483769  55.3586626 103.7778378  13.8234138
  54.9127913 104.8862171  14.7527635  12.7132118  39.8733354  44.0796709
  13.1643105  40.1159239  44.8883057  11.9692087  39.3454576  44.3695593
  52.9981041  55.1145554  45.5174637  52.7895689  55.8113813  44.8952293
  53.5564089  55.5360460  46.1708212  37.3791480  51.5707922  54.5503473
  36.4238262  51.6306400  54.5528650  37.6108575  51.4002657  55.4632902
  47.8567617   0.4093274  77.9590034  47.7817731   0.0399598  78.8388729
  48.4549086   1.1497315  78.0602407  38.3918715  66.2370396  47.0454454
  39.0718865  66.9084501  46.9904757  38.7949395  65.4562569  46.6657782
  41.2447929  34.2755651  40.3733444  41.7638588  34.7972512  40.9854269
  41.7995262  33.5223866  40.1702976  45.0838709  52.7722692  29.1228461
  44.4364643  52.9556656  28.4420657  44.5734453  52.4116325  29.8478556
  17.9376340  99.4511700  46.3325310  17.8249466  99.9597931  47.1355438
  17.7237391 100.0638866  45.6289244  37.4079585  84.1720390  46.1598587
  37.5391102  83.6296844  45.3821182  38.2279539  84.6565819  46.2550259
  10.4398394  44.7939062  63.9155865  11.1616516  44.6251822  63.3099890
  10.0086379  43.9453268  64.0166283  33.9191103  68.4644413  46.9877338
  34.5472932  68.3501768  47.7008724  34.3709874  69.0263939  46.3582516
  46.9566202  92.9866219  53.9648008  46.8778133  93.6061859  54.6901655
  47.5759792  93.3997345  53.3631659  29.2580676  89.3585014  64.3045282
  29.7505093  89.0114212  65.0483513  28.3521104  89.3919468  64.6116972
  31.3704276  75.2112865  81.3940907  30.8421302  75.2867365  82.1887207
  31.0982251  75.9533119  80.8541489  32.7239537  16.4183819  60.4978991
  31.7934179  16.2390029  60.6326437  33.0721402  16.5523946  61.3793945
  15.0394368  65.4102230  59.6666002  14.4102204  65.8098745  59.0661001
  14.5633817  65.3288078  60.4930210  40.4973125  37.2454739  84.6972179
  40.0336504  37.7063370  83.9980412  41.0700512  36.6300035  84.2396164
  22.3564577  40.0529909  59.9974394  22.2326922  39.1396165  60.2556276
  21.4688492  40.4041719  59.9263477  56.9399929 100.5067635  60.0081491
  57.1092796 100.7267094  59.0920687  56.3397169 101.1880493  60.3110552
  12.8940308  50.3473234  32.2632480  12.1315384  50.4767704  31.6992617
  12.8287077  49.4360828  32.5489163  64.9494219  58.2716894  26.9634485
  65.1342154  57.4130917  26.5827942  64.0050936  58.3838224  26.8543673
  42.3911238  79.7009563  54.5000267  42.4767733  80.6527805  54.4458866
  43.2051659  79.4102240  54.9111748  40.8907938  50.5013275  55.9688282
  41.0589743  51.3394356  55.5381107  41.6922808  50.3190422  56.4593601
  56.8658543  87.1989155  50.0770569  56.5605402  88.1049919  50.0318575
  57.3468351  87.0672131  49.2600250  40.3893280  62.9538345  63.5023689
  40.3100157  62.6745462  64.4144773  39.5075083  63.2374907  63.2611895
  39.9160981  76.4637470  59.5020390  40.5938244  77.0690298  59.8029613
  39.1255689  77.0000887  59.4417763  94.4463858  11.7008627   2.1421644
  93.5481510  11.8385923   1.8414422  94.9817786  12.2224987   1.5442678
  29.4525743  69.7024250  57.5969028  30.2680111  69.2286301  57.7606392
  29.5685315  70.5405521  58.0444860  37.1350050  76.1727667  65.3119755
  37.8725076  76.7764330  65.2230310  37.3744106  75.4207039  64.7703886
  28.8184237  65.4069138  38.0096102  28.2884836  65.1397753  38.7606311
  28.4611535  64.9081945  37.2748518  32.6585722  45.0867462  58.7621355
  32.1102643  44.3848944  59.1128349  33.1247568  45.4300785  59.5243883
  45.7085943  74.1160440  26.2964249  45.7778835  73.7382364  25.4196739
  46.5948677  74.4156647  26.4988446  29.3356848  64.0086937  45.8113050
  29.4990253  64.8433685  46.2504768  28.4046006  64.0324020  45.5905056
  48.1105089  63.3894491  46.7852640  48.7399292  63.9612389  47.2247124
  47.5466728  63.9868212  46.2938690  23.4203506  53.5362768  67.1025181
  23.6942887  54.2181826  66.4891720  22.5341129  53.7889051  67.3613548
  24.5278716  60.3136158  38.1973004  25.2762604  60.1330471  38.7661052
  23.8334417  60.5895472  38.7955165 104.2666199  14.5201111  67.9805088
 104.9973317  15.1378906  68.0057955 104.6785852  13.6588919  68.0499268
  51.5826559  62.6556396  56.4088249  50.8529234  62.8470755  56.9979620
  52.1407080  62.0571136  56.9053936  33.9795685  69.2462492   3.3910459
  33.5125399  68.5064888   3.7794611  33.3339167  69.6648407   2.8217053
  38.8075686  81.4412785  34.2985082  37.9970312  80.9493923  34.1669512
  38.5190940  82.3396683  34.4594669  68.7110424  87.2556496  59.8348141
  68.5203362  86.3210678  59.9149609  69.4004869  87.4155426  60.4792738
  49.9947071  81.6686344  43.0448532  50.1854420  81.4839935  43.9645004
  49.9333525  80.8057785  42.6350403  84.4731236  91.0288048  14.9054337
  83.6423969  90.5582619  14.9740660  85.1178169  90.4336643  15.2880681
  38.4348750  87.3692703  66.0682917  39.1366220  87.3601341  65.4173708
  38.2246780  88.2962894  66.1808920  30.2019668  87.9776573  51.7614174
  30.4418898  87.0954418  52.0449066  29.9064970  88.4139538  52.5605297
  31.6827393  77.2819281  30.3131509  31.2705493  76.9079494  29.5343900
  32.3112273  76.6169310  30.5942392  59.0408230  84.1005993  28.8749528
  59.7841549  83.5742950  29.1693950  58.3176994  83.8319302  29.4416451
  56.4832115  70.5856133  37.9278898  56.6211367  69.6392441  37.8879857
  57.0430279  70.9386110  37.2363496  61.6060877  72.1167612  46.5776634
  61.6828489  72.9674816  46.1456776  62.4601126  71.9781208  46.9871092
  80.7992363  67.5773287  37.5579476  80.4771709  67.8770685  36.7078519
  81.4377975  66.8965816  37.3456860  67.1177387  79.6648788  21.3110518
  67.9252577  79.2107725  21.0703492  67.1893120  79.7958565  22.2565436
  38.2610154  81.4674664  23.1132007  37.9174566  82.3072338  22.8082538
  37.8192496  80.8159542  22.5685811  94.2097478   3.6528787  68.4625387
  95.1662164   3.6869344  68.4470129  93.9341836   4.4892415  68.0873108
  60.7037210  86.5551186  49.7759676  61.5522385  86.9878006  49.6809053
  60.3261375  86.9395256  50.5671024  58.9672947  63.3552265  37.3609519
  58.3698463  64.0420103  37.0649600  59.8402452  63.6991072  37.1714020
  56.9222784  70.2280617  44.5929050  57.5964928  70.5408764  43.9897346
  56.3915443  69.6282721  44.0686893  60.3250313  77.8214169  36.4398742
  59.4918823  77.8492165  35.9694314  60.3890896  76.9218206  36.7605901
   7.1186417  70.5562258   0.8533996   6.9413948  71.4955521   0.8035727
   7.9170775  70.4906082   1.3772565  39.5106626  95.9751034  55.0331783
  38.5785460  96.0519314  55.2368593  39.5928955  95.1227570  54.6054077
  44.6077585  78.2467031  72.0815134  44.0650463  77.6735497  72.6229811
  44.0955114  79.0507460  71.9957781  48.9474201  93.7035465   9.7199559
  49.7654581  93.6080742   9.2321706  49.0065622  94.5714569  10.1192820
  91.3148742   5.7987698  68.9421701  91.0463958   5.6944474  68.0293369
  90.7233434   5.2279385  69.4325447  64.0107632  85.1133442  76.0451841
  63.6985731  85.9601307  76.3641214  64.8841190  85.0211716  76.4259529
  26.7103410  81.9256973  14.4146049  25.8149362  82.2411060  14.2921412
  26.6087055  81.0072327  14.6642470  28.1547642  37.8457689  51.1346006
  28.0594993  36.9080067  51.3012075  28.2020521  37.9160476  50.1811552
  47.3082399  90.3351974  37.3299885  46.7815399  91.0644150  37.6571870
  48.2105446  90.5808735  37.5342369  47.4299049  81.7582417  29.5925498
  46.5799093  81.3331127  29.4785166  47.2805548  82.4132347  30.2743959
  70.5668764  16.6790875  37.9113793  70.1227860  17.2340783  38.5524702
  71.4907317  16.7197999  38.1584930  38.9175177  93.3847904  63.3919668
  38.3098388  93.5401821  62.6689100  39.7534585  93.1955051  62.9658079
  21.1954236  60.9776545  49.9789047  21.8453193  60.5160522  50.5087996
  20.3524613  60.6890345  50.3286886  80.2116013  88.8809681  68.8937950
  80.7195950  89.0529633  68.1009531  80.7847214  89.1553497  69.6096802
   0.5241346 100.7664776  53.4474897   1.1790703 101.3068485  53.0055809
  -0.0962022 100.5301189  52.7578926  49.9108076  68.7143183  33.6095166
  50.1794195  67.9482651  34.1167045  50.0827408  69.4570780  34.1882920
  75.9276247  67.3890686  37.5653291  75.4627419  66.5839195  37.3376203
  75.4397249  67.7455711  38.3076859  72.3711443  88.3207417  52.6208925
  71.6585302  88.8989162  52.3486185  71.9401598  87.4926662  52.8324986
  43.8990259  66.8452168  20.5518913  44.4730139  67.5783062  20.7740331
  43.3476162  67.1786976  19.8441005  81.0636616  72.1946430  29.3834567
  81.1948013  71.6663361  28.5961032  81.5091515  73.0205536  29.1946554
  59.2680502  97.9889965   8.9289844  59.0995502  97.4483681   9.7007143
  58.4909964  98.5423088   8.8498664  49.0784025  67.7621889  49.7917318
  49.9609232  67.5946760  49.4610929  49.1134071  67.4996614  50.7115650
  32.5857282  99.1373253  58.2087564  32.7878523 100.0650883  58.3297825
  31.6744494  99.1269398  57.9160213  40.6952429  42.9774761  59.0839577
  40.0751114  42.6321030  59.7261286  40.2914762  43.7876368  58.7727594
  21.9001718  42.1893044  82.0347259  20.9927840  42.2851392  81.7454133
  22.3963781  42.7778264  81.4658163  66.2573438  18.7859639  20.0018716
  66.0328536  18.1775197  19.2978597  66.6068010  19.5549210  19.5515168
  70.8493328  76.7649603  57.6312971  71.7024326  76.7070818  58.0615330
  70.7014370  75.8893967  57.2738886  47.9143429  84.2843246  13.8383329
  48.2512474  83.4933949  13.4174311  48.6183405  84.5622158  14.4243312
  63.1112528  79.7882462  47.0058632  63.4944344  80.0817966  47.8324461
  63.1212759  78.8328171  47.0631647  51.2678576  85.2004623   3.1764555
  51.7634821  84.6075821   3.7413260  51.7783117  86.0101891   3.1725946
  51.7772198  72.3191357  47.7271938  52.4904203  72.8644323  47.3951912
  51.3097954  72.8844595  48.3421326  84.4627571  55.7776928  33.6160660
  85.2439499  55.6416750  33.0798960  83.7613869  55.9308052  32.9829264
  44.4559431  98.6918545   9.2882019  44.0371561  97.8777695   9.0087241
  43.8710690  99.3818474   8.9750451  46.0494328  47.4163961  23.0383658
  46.3849258  48.2912874  23.2339215  46.8334484  46.8802214  22.9197550
  56.9675636  85.0208092  52.0411825  56.5281105  84.3076420  51.5780306
  57.3270607  85.5721188  51.3461685  30.1870608  80.2096462  18.4700084
  30.8903551  80.7714176  18.1443894  29.3837166  80.6867790  18.2621300
  79.5936065   3.6218175  55.7637739  79.9861722   4.2614850  56.3578558
  79.9465566   2.7797898  56.0512781  58.6828089  80.0274086  32.3060155
  58.5263062  79.6914768  33.1885624  58.5402966  79.2733192  31.7339373
 106.1206250   3.5148248  37.3242879 106.3010220   3.0651959  36.4987469
 106.3866811   4.4207105  37.1667409   2.0639940   5.7445153  10.0851667
   1.6511914   5.0550565  10.6052458   1.3626810   6.0722264   9.5221406
  56.9597769  70.3232431  33.3077264  56.3267279  70.7124805  32.7044201
  56.6663218  69.4180870  33.4116745  39.6503568  84.6570683  18.5908473
  40.3028488  85.1266861  18.0712903  39.2613387  84.0322971  17.9788315
  65.3037691  58.0341625  12.8843904  65.5369806  57.7523088  11.9998562
  65.0298977  57.2310066  13.3272970  66.4520788  76.5723276  41.6897678
  65.5038404  76.6921329  41.7419434  66.5897942  76.1083651  40.8639336
  57.8046894  38.3764148   5.9996611  57.1178579  38.4627223   5.3385693
  57.5573683  38.9977360   6.6845161   7.1498867   2.0905026   2.5114822
   7.4705979   2.6596364   3.2110891   6.4209172   1.6124638   2.9068506
  74.5552282   4.8975762  28.6644173  75.4539184   4.6902570  28.4082866
  74.0959744   4.0585717  28.6272478  45.2442455  78.2714844  52.1329355
  45.7413864  78.3112764  52.9499435  44.6311808  79.0043974  52.1896744
  91.1449580   3.5772618  40.0319099  90.2830176   3.9805802  40.1349783
  91.1584573   3.2692441  39.1257238  36.4106369  36.4481688  28.0058551
  37.1580267  36.9492674  28.3322573  36.4316535  35.6328940  28.5069704
  56.3121796  51.6772604  30.7821989  56.4957666  50.9450293  31.3707256
  56.0656548  52.3962164  31.3640594  78.6863899  80.0189114  54.2261505
  79.3526649  80.1395607  54.9027252  79.1376114  80.2219009  53.4067440
  57.2362852  82.7059269  37.6054215  58.1282806  82.5687122  37.2864461
  56.7280769  81.9994354  37.2069001  67.2133017 102.7321625  54.4482422
  66.8815279 102.0283985  53.8906860  66.8102455 103.5261726  54.0970564
  43.0809116  83.7301254  49.0778971  42.7518654  82.8385639  48.9635277
  43.8322306  83.7857246  48.4874201  41.1561012  79.3923330  69.3172884
  40.5782890  80.0771618  68.9805746  40.7965183  79.1773319  70.1779318
  52.1114159  85.7726765  23.9780164  51.6419077  85.4299545  24.7385001
  52.6860952  85.0562096  23.7084675 103.7464528   0.5379018  50.3450394
 104.6055560   0.2015027  50.0900698 103.7718873   1.4647111  50.1071072
  50.7368565  69.8459101  53.5152245  50.5529547  70.2072954  54.3822956
  51.6387844  69.5306873  53.5734940  54.3145037  89.5332050  38.4197164
  53.9295197  88.9937305  39.1103578  53.6054564  90.1158333  38.1476259
  69.6109629  95.7093048  74.9870968  70.2255583  95.0068188  74.7749281
  69.8248625  96.4091492  74.3700886  70.7994795  70.8912516  36.7159128
  70.2814150  71.6662979  36.4987850  71.2114716  70.6393099  35.8894634
  54.5412350  82.2757339  25.8028316  55.0194359  81.5292454  26.1638236
  53.7159061  82.2885227  26.2874913  41.6092300  90.9648228  75.7110119
  41.4454365  90.0643444  75.4307508  42.5554705  91.0040474  75.8500147
  71.4535432   7.6835545  31.5437508  72.1560650   7.5807866  30.9017730
  70.6670670   7.8268155  31.0172868  17.1887584  29.3610688  85.6289629
  17.1304317  28.4677907  85.9679130  16.2834211  29.6715566  85.6150380
  43.6367893  85.6013012  44.1116571  44.2790079  85.6617641  43.4044600
  43.6900473  84.6921921  44.4064808  54.4364500  76.4564276  69.8446465
  54.8518324  77.3121786  69.7379732  55.1534796  75.8290148  69.7527027
  40.1727343  96.3435078  57.5443506  39.7753167  96.2105370  56.6837645
  40.5928087  95.5073738  57.7459621  45.7155228  73.5313416   8.0232167
  45.0596714  74.0355635   8.5047269  46.2926817  73.1799507   8.7011856
  47.8136158  72.6504278  72.8211355  47.3972654  73.1178474  73.5452938
  48.6073923  72.2756481  73.2028294  64.0162182  68.4323072  57.5360107
  63.1810522  68.0038834  57.3484516  64.5225000  67.7728319  58.0103588
  29.1166043  63.2516193  75.6005096  28.7814975  63.8579988  74.9400234
  29.3009162  62.4471903  75.1155710  97.4619250   3.8040646  33.3026290
  97.4972730   2.9123982  32.9563308  96.9135003   4.2812737  32.6799512
  58.4009457  98.3422852  27.3923159  58.2803440  98.5684109  28.3145714
  59.2708492  97.9446602  27.3549819  51.2782669  80.1333141  74.5652246
  50.7019854  80.0786972  73.8028955  51.6154003  79.2441750  74.6748161
  53.9349651  89.8014164  33.4269214  54.5579815  89.8801708  32.7045107
  54.4795418  89.8031044  34.2141104  41.4773941  85.8627987  74.4895887
  40.5694294  85.5649757  74.4336271  41.9926739  85.1213932  74.1717005
  22.1020412  99.3358421  61.0545826  21.1873317  99.6097660  60.9874678
  22.5396514 100.0670338  61.4905787  62.2224236  62.9696035  38.4685731
  61.9659615  62.0613527  38.6283898  61.8779612  63.4515858  39.2204165
  79.0539408  76.0865021  29.6213531  79.4827414  76.9351768  29.5113111
  78.6664915  75.9012032  28.7659121  99.5223236  93.9317322  76.8419886
  98.9909744  93.1413460  76.9378233 100.1302719  93.7269497  76.1315727
  80.8156018  10.7614049  24.7653079  81.1757283  10.1802262  24.0954089
  81.2467866  10.4893025  25.5754113  98.6768055  50.8323574  19.0292656
  98.5605621  50.1127148  18.4089184  97.7930832  51.0220623  19.3443632
  37.2652459  61.4601278  16.6070449  37.4364901  62.2065735  16.0328281
  38.0962753  60.9861326  16.6379738 110.2307658   2.5008115  51.5346479
 110.4040246   3.0255422  50.7530642 110.8180003   2.8603753  52.1995544
 100.4691696  71.1781883  23.5781407 100.4620838  72.1317387  23.4949255
 100.4455566  71.0199451  24.5218754  77.5124168  81.8057346  36.0556364
  78.0509186  81.6992378  36.8397927  77.3649883  82.7494144  35.9926701
  68.8589859  85.4937553  55.6330299  69.6955156  85.4173374  56.0919523
  68.2843304  85.9397221  56.2552118  20.3717971  68.7761927  50.0714350
  19.4842649  68.5810661  50.3721762  20.2917624  68.8493872  49.1204023
  56.0330582  77.7516747  12.2427988  56.8990278  77.7191353  11.8362713
  55.9497023  76.9128656  12.6963282  53.6437321  84.5228958  17.0985615
  54.5944023  84.5980358  17.1810961  53.3060026  85.3387642  17.4680698
  20.4047847  75.4763699  55.4132271  19.8064721  75.4711533  54.6660852
  19.8787081  75.1508236  56.1436319  58.1763296  13.7052831  51.9386435
  59.1137008  13.8985356  51.9236708  58.0986767  12.9397210  52.5079536
  54.9894428  56.5362597  33.3653235  54.8627043  57.1533775  32.6446724
  55.1992893  57.0878792  34.1189218  72.4825621  83.0447483  21.1002779
  73.3852625  82.7846241  21.2838554  72.4089479  83.9271736  21.4637804
  47.2358608  85.4582214  46.4021587  47.4087763  85.2866936  45.4764605
  48.0620623  85.2566910  46.8414879  86.5334606  79.8637581  60.8202505
  87.3004723  80.2682495  61.2256002  85.8969402  79.7912407  61.5314627
  48.2898140  88.2497406  11.7353261  47.6094389  87.9440212  12.3352098
  49.0366316  87.6764393  11.9080102  65.4075480  80.1342392  34.1885209
  64.7402477  80.6380653  33.7225795  65.6924057  80.7115746  34.8968792
  23.7362647  71.0037279  20.4616046  24.2949724  71.3910532  21.1354399
  24.3186331  70.8739233  19.7131181 105.9693818   4.2254838  44.6023178
 106.6959863   3.6315640  44.7908354 105.3152900   3.6747273  44.1721344
  58.5884523  74.7209644  54.7844458  59.3956184  74.9759531  54.3375635
  58.1873941  74.0741014  54.2039680  54.5437098  78.1704569   5.5756944
  54.0523148  77.6384497   4.9498120  54.6635771  77.5986576   6.3339216
  67.6124525  56.7070913  34.4756842  67.9423952  56.3870668  33.6360693
  68.2692051  56.4274359  35.1134157  53.1646824  94.1764069  63.3164692
  53.3046579  95.0998497  63.1069660  53.9798832  93.8994694  63.7347746
  45.9853077  97.3874950  35.5049634  45.9112930  97.7505207  34.6223712
  46.6800690  96.7325687  35.4370785  67.8694487  74.0500402  36.8156862
  68.7724876  74.3661261  36.8446875  67.6171255  74.1300058  35.8958101
  38.1272459  61.9863605  50.1602221  37.9683089  61.7660713  51.0780716
  37.2644520  62.2183561  49.8167181  93.0852509  83.5624790  50.5121469
  92.1732807  83.5376072  50.8018494  93.4311008  82.6982975  50.7353449
  51.0727930  72.8899908  31.6303945  51.4916039  72.0586967  31.8535185
  50.9364223  73.3232260  32.4729729  25.6159878  82.9338264  37.0028949
  25.7593846  83.5570049  37.7151585  26.4051533  82.9989910  36.4651203
  59.6046305  81.5582466  36.6658306  60.0272560  81.0127926  37.3292327
  59.9204350  82.4435139  36.8469286  54.0854740  82.4866486  50.5780602
  54.4779873  82.2045612  49.7518730  53.4332705  81.8143559  50.7752466
  34.1553640  86.7785072  34.0034986  33.3352542  87.2543144  33.8721061
  34.6184182  86.8646908  33.1702018  76.6598177  67.7034569  53.2163334
  77.4794102  68.0535698  52.8671646  76.5311718  66.8801165  52.7453852
  67.9609013  93.2695580  42.5092840  68.0007505  93.4956741  41.5800285
  68.8064432  92.8600693  42.6926136   5.0484840  93.8793468  40.8661795
   5.3384963  92.9984188  41.1030197   4.3129913  93.7372494  40.2702713
  43.4754515  87.0428085  34.3049550  42.6724958  86.5304184  34.3995333
  43.6182261  87.4262238  35.1703095  36.7268848  68.9386368  66.0305214
  36.2475562  69.7670126  66.0470057  36.3149834  68.4099388  66.7139292
  41.4497852  94.8311234  19.8568928  41.9605350  94.6390915  20.6433344
  41.8032408  94.2405891  19.1916323  63.5947847  96.1154556  55.1804066
  63.8715649  95.6510735  54.3904829  62.7746058  95.6912708  55.4326200
 103.7001757   6.4125451  59.4098568 103.5711198   6.3209733  58.4658241
 104.2718367   7.1749123  59.5005989  47.1316576  73.2869816  45.7281876
  47.4814510  72.4282026  45.4907703  46.5234995  73.1079626  46.4453506
   8.9518734   2.1062383  25.9361005   9.4543358   2.8771504  25.6725550
   9.0844532   2.0458611  26.8821502  58.3281851  68.6365891  46.3344002
  57.9683018  69.4105959  45.9012413  57.8808641  68.6056757  47.1800852
  61.1827850  83.4313202  63.4344387  61.0271931  84.0223217  64.1711473
  60.3231239  83.3247375  63.0271816  53.6582947  85.2192116  50.6562138
  53.4150553  85.2972889  51.5786934  53.7747288  84.2792320  50.5179453
  59.5392323  92.7309132  33.8175154  59.6651363  92.3923874  32.9310703
  58.5890293  92.7722454  33.9253998   6.2191769  18.4033021  44.1183424
   6.3938423  19.2577275  44.5129108   6.7413231  18.3987149  43.3161068
  98.0458407  21.3564309  44.5805788  98.4608512  20.5341920  44.8412037
  97.4376778  21.1076650  43.8845253  60.6105900  91.0179043  19.2183733
  60.4569340  91.6571522  19.9140620  59.8561573  91.1110020  18.6366546
  72.0560265  77.9279947  48.9680862  71.3951063  77.3434258  48.5970116
  71.9150734  77.8793478  49.9136019  61.8696833  55.3584146  46.8262196
  61.2453651  55.2491331  47.5435162  62.1567345  54.4686508  46.6208839
  54.3330908  94.6824455  23.3252406  53.6590290  94.0206432  23.1706810
  54.5539808  94.5875072  24.2517543  70.7769251  84.5545387  69.7792482
  70.0532341  83.9441490  69.9204206  71.5620518  84.0465164  69.9835205
  47.0091915  90.0132179  54.0959644  46.1398888  89.7979450  54.4338942
  46.9824743  90.9590530  53.9513493  48.7961149  93.9581680  14.8956561
  49.4472122  93.5245132  14.3440759  49.2755651  94.1981030  15.6886184
  74.1724730  66.4890957  47.9096651  73.4120274  67.0630598  47.8173828
  74.1880465  65.9799910  47.0992327  63.9879227  72.2275591  44.4982433
  63.7698603  71.4008617  44.9286604  64.4576406  71.9682693  43.7055492
  75.3704929  79.0990734  45.3339100  74.9413252  79.3294907  46.1578989
  75.5670166  79.9407864  44.9226618  61.3555288  93.9697647  72.7564478
  62.0961142  93.3898258  72.5791454  60.7192850  93.4147263  73.2074022
  27.1054935  92.7572346  45.5167294  26.4986873  92.1236610  45.8996153
  26.5500689  93.4896088  45.2495956  58.9392185  86.9683552  39.6714759
  59.6869850  87.2867298  39.1657972  58.1744909  87.3182487  39.2143178
  85.8817725  15.2455624  10.0632942  84.9622969  15.0465592  10.2399027
  86.3663535  14.5423898  10.4956865  82.8636646  53.2909584  47.1983385
  82.2704983  53.9028645  46.7625046  82.2862148  52.6367903  47.5918341
  52.5219536  71.9637680  34.6523666  53.0568457  71.7435169  35.4149985
  51.7114830  71.4701223  34.7776318  69.8007202  72.5536013  11.4370990
  70.1887417  73.2025862  10.8501661  70.4170656  71.8213320  11.4254844
  35.8305264  81.2048435  42.9068756  35.1850867  80.9566498  42.2450304
  36.1230087  80.3732491  43.2798958  36.6950488  81.7769337  39.2331791
  37.5238705  81.3999939  39.5284820  36.5596294  82.5339222  39.8031569
  34.8780560  91.1089516  14.8802674  34.8343205  90.1919079  15.1511085
  35.2214575  91.5688229  15.6463146  37.7425671  54.9797773  61.1436892
  37.8022504  54.4307756  61.9255257  38.2987285  55.7342577  61.3377905
  47.3008442  78.9023399  50.5615854  46.5881729  78.8868141  51.2004042
  46.9103479  78.5572481  49.7586775  92.5752168   2.2118195  81.5891838
  92.8316264   2.3249730  80.6739330  91.9388347   2.9090699  81.7475891
  26.4453292  84.7294140  39.1591454  27.3748612  84.9112034  39.0207505
  26.1563921  85.4091644  39.7679830  73.7051916  81.2873363   7.9343176
  72.9436350  81.8573284   8.0409294  74.1709614  81.6484928   7.1800935
  42.2104454  66.3687897  40.0651836  42.1436644  65.5436134  40.5456591
  42.3073530  67.0349884  40.7456398  28.5234046  84.6004391  51.1046600
  28.3178854  85.5268478  50.9790611  28.6463070  84.2600918  50.2184916
 108.3698468   3.3272466  68.8530540 108.8326793   2.6382264  69.3297863
 107.9631142   3.8597306  69.5366144  57.3969269  60.0404882  28.7010193
  56.6813898  59.7513914  29.2672873  57.2920227  59.5257854  27.9008269
  47.9935694  90.2246094  33.5364747  47.4475098  89.9461269  34.2716599
  47.5730371  89.8409271  32.7669477  73.1577349  75.6417704  36.6926455
  73.1493568  74.6855068  36.7341542  72.2406578  75.8941984  36.7997813
  75.1230602  30.6559094   3.1714270  75.8122139  30.7035264   3.8340211
  75.3492813  29.8889741   2.6452464  61.7881298  76.7400551  63.3640623
  61.6469240  76.6746283  62.4195957  62.6987553  77.0218706  63.4511280
  23.6666008   0.2375707  67.3771477  24.4857498  -0.1613990  67.6704979
  23.7556454   1.1628732  67.6054287  43.7694979  60.7444096  44.4346142
  44.0344858  61.1041307  45.2811432  44.4422340  61.0470104  43.8246202
  35.1101232  91.2136841  67.6397705  34.5212007  90.4954624  67.4083328
  35.6179881  91.3728237  66.8441677  30.5569720 103.6126232  28.1047249
  30.4633760 103.3836269  29.0294051  31.5013552 103.5996056  27.9491544
  58.9882851  98.6558723  71.8908072  58.3295393  99.2395592  72.2670937
  58.4809446  97.9862309  71.4320898  26.7435360  88.9414024   7.9730242
  26.5199780  89.8648930   8.0888975  25.9194589  88.4757710   8.1155479
  78.3005095  95.9393597  63.3576298  79.0818357  96.0781097  62.8223610
  77.8212357  96.7659664  63.3006001  83.8153267  84.2426968  42.2640800
  83.9404392  83.2998276  42.3716497  83.3812046  84.3314457  41.4156151
  82.9827885   5.2639016  38.8365674  82.0552258   5.0317487  38.7922335
  83.3998303   4.5066651  39.2475557  91.7688756  21.0673245  14.1862118
  91.2076192  20.3137788  14.0034711  91.2795405  21.5800103  14.8295939
  63.4333706  78.5114527  74.1952562  64.2760897  78.9585972  74.2734766
  62.7914476  79.1567087  74.4915867  87.9719639  98.7440586  49.1974068
  88.7094498  98.5088062  49.7604370  87.8161812  99.6704197  49.3813324
  66.3943863  75.8173037  18.5767961  66.7512798  74.9358082  18.6855221
  67.1317959  76.3363552  18.2557929  91.6259480  80.5980968  18.9298475
  91.4449692  81.5033340  18.6768031  91.9002533  80.1725960  18.1174839
  23.0851837  17.9616841  46.4421940  22.8563591  18.8135156  46.8140125
  23.1992909  17.3913583  47.2024202  69.9562120  89.4087124  65.0854206
  69.5351219  89.0925884  64.2860556  69.2760229  89.3447018  65.7558489
  29.6313186  31.6569158  87.9944969  28.9587970  31.5724965  87.3186133
  29.9068065  30.7575532  88.1719134  60.4889107  95.9523678  26.7897892
  61.1016321  96.6186905  26.4786339  60.8344746  95.6887913  27.6426339
  88.2151894  16.7423638  53.9894581  87.8988557  15.8392438  53.9662838
  88.6752324  16.8564137  53.1578398 107.7286868   3.7721166  51.8028498
 107.5818639   2.9213628  51.3894606 108.6623006   3.7779054  52.0139408
  58.3836699  47.1306133  13.9809728  58.1663465  47.9527664  13.5415781
  58.4174442  46.4839458  13.2760513  59.7997189  99.7200012  44.4826078
  60.4434586 100.2397251  44.9639845  59.3469667 100.3543758  43.9268923
  96.7590427  79.0571022  59.1341114  96.4985847  79.9653721  58.9809990
  96.0098934  78.5399675  58.8381767  43.1136227  74.4366312  61.9680786
  43.6336040  74.7247839  61.2178659  42.9656601  75.2335739  62.4772167
  64.5993757  67.6892519  35.4198360  63.6659813  67.5223923  35.5508447
  64.7416735  68.5595322  35.7921267  50.5180454  82.6057053  40.4511786
  49.6012497  82.7298641  40.2056026  50.4921246  82.4271297  41.3912153
  58.1465673 100.6802273  33.9142871  59.0367746 100.4690456  33.6329174
  58.0485010 101.6122150  33.7193227  74.6297979  80.3817177  15.4763651
  74.5015669  81.1181545  14.8785007  74.5900154  80.7722187  16.3493812
  73.2153797  81.3219833  30.2045679  72.7803564  80.5076790  30.4573393
  73.8281631  81.4978027  30.9185791  87.7260971  61.5096903  26.2044263
  87.5835991  62.3610306  26.6181254  87.1837902  60.9040642  26.7097592
   3.0292031  68.9675426  44.9891949   2.7469951  69.3374348  44.1526747
   3.9677036  69.1517544  45.0281048 101.3656521  92.2244358  39.3666244
 100.5825901  92.7178574  39.1225243 101.6696930  91.8364048  38.5461235
  83.3342266  80.3329277  52.7563238  83.1317425  80.9954166  52.0957613
  82.8880024  79.5439005  52.4488449  77.6578617  71.2490892  41.5157223
  77.1477461  72.0366240  41.7049456  78.5673714  71.5142107  41.6526127
  92.7367835   1.5640744  53.9502239  92.4725442   2.4740800  53.8149738
  93.4573846   1.4298924  53.3346319  41.4644480  86.4988041  87.1838474
  40.9686089  86.8783188  87.9093456  41.1266136  85.6068134  87.1035576
  85.8611012  99.2661953  84.6373558  84.9682140  98.9227486  84.6695614
  86.3803005  98.5496902  84.2722702  68.1097841  68.3338928  52.8906012
  67.4287987  67.7412510  53.2088327  68.9075756  67.8049755  52.8923702
  35.7333493  89.5480633  40.7986069  35.6415772  88.7205601  41.2708855
  35.1216531  89.4748402  40.0660086  89.7075176  95.8845234  31.6016054
  89.9553394  95.1819038  32.2025585  89.6137905  96.6558743  32.1605945
  71.0736132  97.3064709  29.4842744  70.2432346  97.5565720  29.0791154
  70.9234333  96.4190674  29.8101497  70.2479410  61.9363880  36.0470057
  69.8159313  61.1171770  35.8051562  71.1548233  61.6859484  36.2232995
 101.0684590  16.6616639  29.1794014 100.6335072  17.3031148  29.7411752
 100.3611426  16.0960969  28.8694501  57.7929878  78.7338114  79.5878935
  57.7938414  78.5000849  80.5161190  56.9156790  78.5018778  79.2833138
  57.0728016  88.1848812  38.3162761  56.1303282  88.0215359  38.2802749
  57.3166466  88.3808517  37.4116373  74.9113846 104.6474648  42.7393103
  75.1927090 103.9461517  42.1517324  74.6508741 105.3594398  42.1549702
  59.4447851  87.4289227  19.3877697  59.5296097  86.7056942  18.7664986
  60.3318930  87.5636005  19.7211277  56.0178137  93.0877686  55.8019590
  56.1565542  93.4194374  54.9148464  55.7943535  93.8639355  56.3156366
  72.4387789 103.5730267  38.1427240  72.6042175 102.8121662  38.6994553
  73.2237864 104.1128540  38.2354021  79.1770463   3.1515416  44.5555162
  79.8767333   3.6509332  44.9765587  78.9249091   2.4967774  45.2066231
   9.7269055  13.7522229  55.1588154   9.1883942  13.3652600  54.4685268
   9.5876881  13.1852635  55.9173727  34.5425030  11.5232476  42.7934885
  34.1484543  12.3932275  42.8575611  33.8332936  10.9217843  43.0204296
  57.1130753  89.7385883  57.4643421  57.2044420  89.2093468  56.6720057
  58.0082273  89.8438549  57.7865982  56.4974833  85.9382725  46.2424088
  55.8711529  86.1733150  46.9270229  57.3549938  86.0696697  46.6469336
  80.7935047  90.7401180  24.2105889  80.8117580  90.2251816  23.4039021
  81.5981770  90.4967785  24.6683240  52.2621775  86.2496758  44.9735260
  52.5117779  85.3293896  45.0571537  52.7231026  86.5527248  44.1912603
  51.3436127  67.7962208  47.4692440  50.6662130  67.6776600  46.8034363
  51.5322113  66.9105244  47.7794123  71.4018612  13.1315812  47.9266977
  70.9002046  12.5731572  47.3327780  72.2177987  13.3074674  47.4581480
  53.8638783 104.6891880   2.4126887  54.7150850 104.5854282   2.8380269
  53.2437849 104.7783756   3.1364015  41.1299515  63.2291555  47.9455280
  40.7076025  63.7244272  47.2437048  42.0661020  63.3001661  47.7589464
  24.4151664  64.9084425   5.2922785  23.5961747  65.4011869   5.3441083
  24.7513628  65.0941849   4.4155216  53.9968538  80.4806042  71.0437393
  53.8464403  79.7924757  70.3955936  53.1246185  80.8268833  71.2322283
  10.4500099   7.1651849  54.5929146  10.8763977   6.8908223  53.7810278
   9.8014351   6.4826592  54.7653246 103.2831955  95.0748634   4.9420813
 103.0506897  94.9592495   5.8633894 103.7939930  95.8841705   4.9237001
  17.6436707   0.5735978  32.7324128  18.1981369   0.7332906  33.4961510
  16.8656918   1.1100110  32.8848767  54.3694162  80.8919430  39.9055028
  55.0400305  80.2118778  39.9689817  53.6808109  80.4998970  39.3685150
  55.9445381  88.6683178  44.7775745  55.4860926  88.2703781  45.5176401
  55.9280396  87.9962540  44.0961933  17.4056617  81.9217110  56.2549067
  16.7791931  82.4046040  56.7939711  17.3372260  81.0171509  56.5603828
  75.2213860 101.9548321   9.9623394  75.1618338 102.0978451   9.0177584
  74.4069147 102.3169804  10.3112268  77.8326607 103.8996696  56.0408401
  78.4618425 104.2364597  55.4029274  77.0564604 103.6872959  55.5225277
  84.8215871  11.4068898  49.0144396  84.2588668  11.0899743  49.7209406
  85.6786685  11.5227708  49.4245720  79.1941166  90.9061623  47.3401833
  78.8896704  89.9998760  47.3868847  79.8888922  90.8918190  46.6819191
  60.9487677  81.6699123  71.5228462  60.4072905  82.1315289  72.1631098
  60.3283739  81.1404324  71.0218477  79.7011995  86.4116383  43.6866713
  80.6461334  86.3417244  43.5508633  79.4189119  85.5159378  43.8717842
  83.2123566  66.4657211  26.1422515  84.0659523  66.8558979  26.3302755
  82.9624748  66.0317087  26.9579887  94.5722771  92.5656605  34.9203086
  94.5542526  91.7758751  34.3798137  93.6502075  92.7766609  35.0669169
  94.7829723  90.8615112  50.1543045  93.9226151  90.4743958  49.9925852
  94.6802521  91.7823792  49.9141359  37.2569942  79.9841881  55.2155590
  38.2056737  79.9576664  55.3402042  37.1348500  79.8454285  54.2763805
  51.0010338  96.2932491  35.1062655  51.2565899  96.7473221  34.3033099
  50.7291937  95.4234409  34.8133898   7.7909943   9.2930135  27.6276350
   7.5823685   8.6983022  26.9072056   6.9407173   9.5226964  28.0024910
 106.0169225  48.0371770  41.0188580 106.2308650  47.1074971  40.9404182
 106.8606381  48.4838303  40.9489727  88.4115505  96.0458660  23.0745029
  88.5725403  96.9704342  22.8861284  87.5195408  95.8900070  22.7642322
  98.6110358  14.3482312  59.4208336  99.3933682  14.8497209  59.6503973
  98.4799104  13.7564954  60.1616955  56.0740423  58.4415340  34.8457575
  55.5428982  59.1343403  34.4531631  56.8701839  58.8860178  35.1369977
  47.7646589  87.9006577  36.2194586  48.6384392  88.0792618  35.8718371
  47.5498915  88.6762810  36.7376471  74.1598368  73.0993032   7.8832334
  74.6786451  72.3204088   7.6822549  73.9099455  72.9904366   8.8008028
  76.6262007  74.9817705  19.4086134  76.1673689  74.9948215  18.5686517
  76.2356186  74.2481804  19.8835123  45.4247999  96.3101292  52.2893524
  45.0702477  95.4257679  52.3811722  45.0977230  96.7801380  53.0563879
  82.1549416  96.6030025  51.0589504  81.6485882  96.4759350  51.8612576
  82.2403240  95.7247543  50.6879854 110.8933449  80.0408268  79.4913292
 110.9213257  79.4913435  78.7080526 111.0395241  80.9291267  79.1660881
 110.0591616  14.9664887  76.5245771 109.6600346  14.4196519  77.2012568
 110.9907775  14.7495183  76.5599298  43.2676744  88.8860416  47.4806499
  44.2056036  89.0727711  47.5212908  43.2081175  88.0630302  46.9955254
   1.2948319  15.6518849  41.6316700   0.4200360  15.9872445  41.8278790
   1.7257544  15.5934247  42.4843836  52.3369741  97.0464897  48.4256029
  51.9159842  97.8315639  48.0753851  52.0301580  96.9937134  49.3307590
  48.6780167  95.8551311  48.4988260  48.9502716  96.3568783  49.2671728
  47.9935837  95.2706432  48.8246441  63.0087900  91.9921780  27.9003310
  63.4733915  92.4393082  28.6077523  63.6597061  91.4006805  27.5226212
  97.1872711  66.2450886  31.0744643  97.1219826  65.6301117  31.8050599
  98.1278896  66.3400173  30.9246254  18.6617371   6.4464291  67.5107050
  17.7865025   6.1715516  67.2374916  18.5337158   6.8225297  68.3815622
  56.9301033  72.3821020  69.4095945  56.9759178  73.2064772  69.8938847
  57.6923561  72.4015617  68.8309574  99.6279769  23.6821755  28.2452393
  99.3434434  22.8158864  27.9540038 100.5734305  23.6865243  28.0958056
  48.3641052  92.6967335  68.0966330  47.6561880  93.3183670  67.9273701
  48.3998060  92.1541023  67.3089123  65.2257442  85.8584213  55.1263475
  64.3670511  85.5104923  55.3668118  65.8061171  85.5725670  55.8318186
  25.7217288  95.0222874  44.3994284  25.3426147  94.8191071  43.5443115
  25.9304237  95.9553146  44.3533134  84.8764229  87.4688530  26.2460041
  85.7114601  87.0009518  26.2462163  84.9593925  88.1072235  26.9544029
  65.2094507  88.6884117  17.2672379  64.3265295  88.3856010  17.4793565
  65.4502583  89.2561817  17.9992747  80.4812054   8.4805306  63.6444998
  79.6678405   8.3923062  63.1476259  80.7981925   9.3581780  63.4311867
  51.5505028  91.1650562  35.3240108  51.8121004  90.9389019  34.4314575
  52.3466539  91.5123272  35.7262206  63.1300096  34.0268811   3.7405995
  62.7873115  33.1524285   3.9253312  63.7649374  34.1876897   4.4386253
  39.6278071  93.2327080  35.0935340  39.2302179  94.0915394  34.9501586
  39.0744972  92.8203583  35.7568979  80.4986286  98.6627769  30.1125312
  79.6135473  98.3044720  30.0456190  81.0517120  98.0190945  29.6697998
  43.0877018  88.5929966  14.8877478  42.7219486  87.8659344  14.3839216
  43.2335520  88.2296658  15.7612193  42.5626798  35.9757348  78.3314220
  42.0165534  35.3099271  77.9134730  43.2818980  35.4824754  78.7259451
  83.5665512 101.3793373  49.3342447  82.7888012 101.8131924  49.6851110
  83.4189224 100.4489517  49.5040369  94.0107112  54.2598447  26.6410398
  93.1994634  54.6971997  26.8995476  94.6652226  54.9581536  26.6267204
  60.4611158  69.9695349  47.7256393  60.0053406  69.6222782  46.9588852
  60.9200668  70.7442474  47.4009705  68.8631392  79.7516918  26.3781476
  68.4768009  80.6218624  26.4770174  69.8074913  79.9030876  26.4169884
   8.6944195   0.2740868  12.5807059   9.5781895   0.4494580  12.2575569
   8.5449120   0.9459504  13.2458997   6.2976261  19.1595754  31.8089962
   5.4461619  19.0393552  31.3885307   6.4459511  18.3437261  32.2871470
  63.0471706  94.1094780  49.2966461  63.2985783  93.3064842  48.8403225
  63.2344389  93.9300060  50.2180338  82.6541710  91.7775822  66.9340563
  82.2834396  92.4349880  66.3453293  82.1004200  91.0065460  66.8112040
  58.2661057  75.3814459  34.0217733  59.1156530  75.3009367  33.5881639
  57.9060507  74.4946241  34.0097189  53.7265968  71.4549875  37.4476600
  54.6830893  71.4918518  37.4482965  53.4853888  71.4784145  38.3736730
  71.6179991  78.3711958  33.9401078  72.4099922  78.6741781  33.4960556
  71.7598820  78.5925579  34.8604894  88.5504913  98.1216335  33.0736542
  88.7223816  99.0272617  32.8157282  89.0003681  98.0220413  33.9126539
  73.7739086  81.9209290  59.2784595  73.9930153  81.8395138  60.2066803
  74.5600557  81.6244221  58.8198900  70.5107832  91.0020542  57.9888344
  70.4990435  91.9305992  58.2209969  70.5789661  90.9947300  57.0340919
  64.0027094 101.5477467  67.2206593  64.0424490 101.5359211  66.2643576
  64.3417597 102.4092197  67.4638367  68.9846373  71.3650036  51.4479446
  68.3884716  70.7861423  51.9230652  68.7797737  71.2145901  50.5251026
  94.7662067 103.3374405  16.9969499  94.8923111 102.4248028  17.2566056
  93.8390923 103.5078526  17.1632254  43.7843132  86.1684799  85.5829906
  43.1105709  85.5832291  85.2368927  43.3260393  86.7055511  86.2293434
  30.8433104  87.4740887  71.4436436  31.2284493  87.2299099  72.2852325
  31.5318370  87.9692364  70.9998035  61.1284113  94.6899605  28.8845491
  61.2540150  94.6439743  29.8323584  61.6229439  93.9458752  28.5410309
  62.0450311   5.3014478  43.9814234  62.3404245   5.5700406  44.8513842
  61.1245351   5.0684556  44.1023779  36.8732834 102.7270222  20.7287884
  36.1461806 103.1373310  20.2606010  36.9145036 101.8383217  20.3756070
  67.2957802  72.7201509  45.1787996  66.3713932  72.5075722  45.0501680
  67.4795866  73.3948755  44.5251989  94.9208641  83.5807133  26.7184019
  94.8620224  82.9401970  26.0095239  95.4437733  84.2945576  26.3534117
  74.1428280  70.5434656  35.9996176  75.0650167  70.3751898  35.8060074
  73.7879229  69.6869755  36.2377214  91.3831620  19.2788037   6.8479383
  90.5747514  19.3611058   7.3538339  92.0777039  19.4984826   7.4688870
  85.9538937  97.3986530  46.2590075  86.1887264  97.3719311  47.1865702
  86.5139675  98.0814266  45.8897209  27.9673859   5.6325635  14.8419964
  28.0520817   6.5144643  15.2043748  27.6485916   5.7697781  13.9499331
  39.3209600  92.3579025  60.3080988  39.0856624  93.1330299  59.7981453
  40.0802851  92.6312637  60.8228111  36.6948128  89.0944767  89.0031528
  36.6081381  88.1440735  89.0769768  36.6481733  89.4100571  89.9056339
  46.5191031  95.7217884  29.8285389  46.2020111  96.5957260  29.6006632
  46.7955303  95.3422546  28.9944077  83.3653359   3.0452928  33.2116508
  83.6681323   2.3914822  33.8417912  82.5889687   2.6521691  32.8129888
  67.3867702  85.4025650  12.4520576  67.1773958  85.8403683  13.2771194
  66.9373465  85.9213257  11.7848706   7.2625538  19.6158322  64.7853613
   7.1757790  20.5684384  64.7501326   6.5356442  19.3293961  65.3383398
  67.6143503  92.0855904  64.4990206  66.8050671  92.5895214  64.4133186
  67.3722363  91.1973000  64.2371941  35.7168746 100.7103539  34.9158406
  35.9333634  99.9979496  34.3143129  35.1142287 100.3164387  35.5466151
  43.5659647  91.0777187  14.1002595  43.3362579  90.1742077  14.3173659
  42.9029894  91.3472748  13.4646201  25.7824322  35.5823907  25.2583337
  25.9529206  34.8454293  25.8448863  25.6681534  35.1813134  24.3967605
  83.0030441  70.8343840  43.5660744  82.9913235  69.8880243  43.7092257
  83.2898331  70.9358025  42.6584959  74.0310764  95.6431103  54.6048450
  73.6253691  96.5008450  54.4786406  74.2890835  95.6334782  55.5265713
  58.0876260  22.7127179  37.1468019  57.4547582  22.1169576  37.5477743
  58.9374118  22.3018655  37.3058391  71.9372559  93.1177330  32.6618433
  72.7102137  93.2744312  33.2042575  72.2372627  92.5078392  31.9878507
  98.5045199   0.4851350  70.0704575  98.9086346  -0.2630988  70.5098486
  99.2273764   1.0947999  69.9220610  61.6239119  79.3755388  34.6603513
  61.0918760  79.2639542  33.8724923  61.0850620  79.0176725  35.3659058
  54.1668034 103.0096149  34.4415140  54.8081827 103.7112522  34.3294215
  54.6595669 102.2059250  34.2756653  96.0378270   0.4867276  45.2687407
  95.2129750   0.3324422  44.8082542  95.8940081   1.3006505  45.7515192
  79.0800571  97.0053291  25.6611371  78.2738161  97.4399757  25.3831339
  79.0107822  96.9592857  26.6147161  94.2523193  89.2920113  55.6992388
  93.3729553  89.1084766  55.3686762  94.8262215  89.1458607  54.9472427
  16.5008351  20.0906190  28.0880785  16.5551945  20.7762822  28.7537789
  16.0368820  19.3735036  28.5201883  13.1461331   9.0530118  26.5601015
  12.3492047   9.2284306  27.0604610  13.2408043   9.8132047  25.9861803
 100.1157622   3.5941705  31.2161446 101.0039859   3.3597764  31.4851260
  99.5709948   3.3755692  31.9722342  76.6851334   6.2083634  37.9717541
  76.7183094   5.3227624  38.3334756  77.6030259   6.4601621  37.8702354
 106.8930631  18.8296422  52.9191208 107.5235562  19.3162450  52.3881483
 106.2269645  19.4762334  53.1525040   1.6201063   9.5668229  34.5204711
   1.0944411   8.9427861  34.0199780   1.2942072   9.4895562  35.4171610
  76.7754650  67.5167942  45.2364683  77.4977016  67.3854876  44.6221685
  76.0077238  67.6455927  44.6795034   2.1818062  20.7139405  46.8402052
   1.8724295  19.9899777  47.3846292   2.8096005  20.3111943  46.2402868
  99.1674423  70.9668827  36.5060329  99.9519920  70.8196831  35.9777808
  98.7148952  70.1234245  36.5029550  14.2111393  33.1818971  13.2399797
  14.8883339  32.8876790  13.8491333  13.4246060  33.2665643  13.7789023
   4.9567076  11.5841493  34.3831921   5.8318230  11.6442593  34.7663260
   4.9552246  10.7467183  33.9195800  77.7526140  79.3581533  39.4962692
  77.0914316  79.5234680  40.1683855  77.2902155  78.8589191  38.8230801
  83.5760212  93.4257507  40.5400848  82.9684544  92.7215672  40.3137541
  83.8706970  93.2124901  41.4254761  84.8142624  80.1828480  83.2989979
  84.4444942  80.8177280  83.9125443  85.0227833  79.4208622  83.8394737
  74.7223763  15.8005723  71.7537689  75.1305680  16.3925942  71.1220074
  74.4679336  15.0365552  71.2363005  52.2629070  92.9518509  22.5435877
  52.2715712  92.1487522  23.0643463  51.3862371  92.9793072  22.1602726
  87.9043961  80.2018356  27.4450564  87.1130276  79.9468136  27.9193282
  88.6190128  79.7960329  27.9358482  89.9284744  92.8180885  19.8485136
  90.3681469  92.0224380  19.5487273  89.8700142  92.7159977  20.7984567
  87.6075172  71.0089493  61.9297647  87.4283504  70.7067919  61.0393524
  86.9723225  70.5427217  62.4732637  77.7642155  94.3739891  10.6948960
  77.8776741  94.7279358  11.5769839  78.6146355  93.9912510  10.4791808
  73.9149714  92.0955372  62.8411245  74.1234255  91.7077732  63.6910772
  72.9762030  91.9435596  62.7322960  61.4867401  86.0899258  70.2296066
  61.7570543  86.4107895  69.3692493  62.2039509  85.5210400  70.5092573
  28.5312505  28.7623330  86.2261916  29.0462060  29.3013497  85.6257693
  29.1763635  28.3911534  86.8280951  96.6570950  97.2189522  24.9535775
  97.6004028  97.3719406  25.0082397  96.2637615  98.0427742  25.2413797
   3.0396744  21.3659963  70.1591873   3.3342978  21.2010297  71.0548544
   2.2201487  20.8773526  70.0827980  55.3354263  90.0030804  35.9283900
  55.1191473  89.5999432  36.7691851  56.2445784  89.7500420  35.7682586
 106.9561768 104.1916943  76.6051722 106.3057137 103.5017776  76.7360926
 107.7980232 103.7547779  76.7341757 101.3016229   0.2529439  32.3525357
 101.2286286   0.9898671  32.9590368 101.0610108  -0.5120841  32.8751063
  89.9302153  31.2139520  33.4367347  90.2212910  31.0453614  34.3328857
  89.3983321  32.0070180  33.5028577  25.6890961  17.3130711  45.4336119
  25.6317230  16.4014729  45.1473665  24.9691197  17.4143800  46.0561943
  52.4871636  11.3358724   4.7064229  51.7318917  10.8841169   5.0828763
  53.0943585  11.4388550   5.4391881  58.7544680  99.3743992  36.2643123
  58.7591314  98.4636688  35.9697485  58.5945559  99.8825359  35.4690361
  40.0699377  60.7847500  48.4642458  40.5931568  61.4874601  48.0786705
  39.5243192  61.2230587  49.1172552  68.9801073  92.2822380  53.4714413
  69.4322586  93.0582333  53.1403494  69.5944357  91.8948841  54.0949678
  64.0361357  83.8522530  18.4815371  64.2499304  83.0093288  18.0815434
  64.3869257  83.7915707  19.3700719  63.4941816 103.5059261  34.7895217
  63.3194208 102.8556728  35.4698634  62.8693628 104.2096138  34.9646091
  56.3901138  89.0283298  14.9838889  56.3714170  89.6794224  14.2824864
  55.4705620  88.9013863  15.2174270  78.6818695 100.4337215  62.4972200
  79.3092537  99.7699356  62.7835941  78.0780792 100.5263615  63.2341623
  51.0174417  82.2507763  52.1407557  50.8662081  83.0334949  52.6705742
  50.5801201  81.5479946  52.6214600  65.1022387  96.1527061  81.6834736
  65.5635166  96.9153214  82.0325565  65.7549763  95.4526615  81.6935349
  49.7152042  80.4853916  54.2155409  50.3864098  79.8051262  54.1612244
  48.8880157  80.0142193  54.1156197  66.0918999 101.1886787  52.4650574
  65.1407862 101.2932014  52.4913311  66.2291002 100.2414131  52.4740314
  90.1012521   5.6304845  88.3846855  89.2334323   5.5984601  87.9820824
  89.9594645   6.0661897  89.2251015 106.0307364   9.1109094  46.9511032
 106.4982133   9.9170121  47.1699762 105.2715783   9.4036588  46.4469147
  84.2383862  99.8564625  39.7322488  85.1168346 100.2366638  39.7348619
  83.6541367 100.6024265  39.8679781  99.8653698  94.2308998  18.1394470
 100.7425404  93.9067364  17.9352057  99.9083710  95.1695442  17.9568565
  33.8787647  11.1285981  40.1928568  33.9619633  11.2233170  41.1417150
  34.6415707  10.6105241  39.9360633  71.0934782  97.9725170  24.2241383
  70.9928322  97.0226669  24.2865467  71.3626146  98.2430363  25.1019859
  92.4840832  90.9247303  62.8684378  93.2934380  91.4351082  62.8948641
  92.2892666  90.8327675  61.9357967  41.7704582  92.9370308  17.9968512
  41.2456465  92.8933048  17.1975422  42.6522350  92.6899052  17.7182364
  76.3878822 100.8675766  48.1472731  77.1071196 101.4986038  48.1202650
  76.8028641 100.0236416  47.9689646  77.5133991  49.2307329  38.2906151
  77.9747772  48.8424826  39.0340018  76.7456627  48.6725426  38.1671739
  88.5402298  80.3654861  49.8879671  87.6957035  80.5450153  50.3012180
  89.1439056  80.2420998  50.6204844  73.6456013  87.7490044  34.1949344
  73.3079863  88.5607433  34.5735192  72.8693008  87.2042847  34.0650272
  49.7589779  88.7234783  16.1951065  49.1259623  88.1257534  16.5929067
  50.1252460  89.2104340  16.9333172 104.9173641  62.4441814  47.1461344
 104.7911644  61.5835762  46.7465544 104.0878201  62.8993511  47.0015478
  34.7089505  96.0545540  48.0809021  34.0524983  96.7002392  48.3424234
  34.8868012  96.2526894  47.1614790  81.6961670 101.5187263  27.6366830
  81.3611317 101.1792946  26.8067575  82.6395321 101.3616467  27.5963330
  96.5628910  84.6900463  13.8076770  95.9780502  84.3376160  13.1368768
  96.8747234  85.5180931  13.4425235  71.3608436  10.6644830  20.0751305
  70.9352164   9.8268231  19.8923707  70.6471734  11.3023385  20.0680828
 109.4472222   7.8946313  51.6027927 108.8224654   7.9352578  52.3268509
 108.9122729   8.0131921  50.8179283  95.8792214   4.0986928  55.6769657
  96.1559443   4.5532521  54.8813343  96.6586070   4.0924462  56.2326145
  68.8146687  66.5910101  17.5020123  69.4528913  67.2934389  17.3775125
  69.3455124  65.8102226  17.6595235  85.2118587  79.5551491  58.2631588
  84.5437241  80.2385521  58.3160353  85.7316113  79.6662283  59.0592432
  80.6350899 104.7126198  43.6529541  81.2209034 104.0601826  43.2690382
  80.8842373 105.5354118  43.2320309  75.1103830  93.8176727  44.4298935
  74.6275282  93.3510876  43.7477064  74.8760319  94.7370243  44.3030453
   6.2991616  23.1680116  30.3193259   5.3584095  23.1451425  30.4945135
   6.4345833  23.9882668  29.8449063  48.8609409  81.2990284  87.5562382
  48.6354303  82.0962620  88.0356026  48.0167532  80.9076691  87.3317051
  43.0818554  19.8411664  16.9711328  43.6441704  20.0874719  16.2367201
  43.4897133  19.0537652  17.3315156 100.4435925   5.5643948  52.8048325
 101.0738807   5.5767735  52.0845461 100.0238375   6.4239606  52.7705956
  75.5944328  23.0896672  25.1047873  75.6289940  22.4606141  24.3841386
  74.9721842  23.7554463  24.8119164  26.0939213  21.5186604  31.8203783
  26.3377568  22.4200925  32.0306182  25.1776787  21.4496049  32.0886540
 107.3889022  31.9052228  31.4554024 107.2867493  31.9647798  30.5055356
 107.5627761  32.8041943  31.7344260  12.3256203  23.7119397  28.7753582
  12.2392746  23.6696061  29.7277141  12.6401325  22.8433808  28.5245299
  49.2216539 101.8374634  29.0872860  50.0202465 101.3215733  29.1983938
  48.9648724 101.6883755  28.1773043  20.1743218   4.9354848  45.9891891
  20.2712532   5.8055695  46.3762093  20.3356549   5.0694474  45.0552416
 102.5163131  17.9413804  22.7521634 103.1240611  18.2703599  22.0898604
 101.6991000  17.7950486  22.2757387  81.9274998  90.8521748  48.6436749
  81.6009808  91.5988541  48.1415939  82.5345993  90.4110622  48.0494642
  75.1640654  80.8442593  40.6091070  75.1331186  81.0085392  39.6666169
  74.4941330  81.4217854  40.9750128  31.8797489   5.2789887   2.7398315
  31.8367954   5.1324853   3.6847770  31.3084027   4.6075066   2.3671320
  96.6774845  90.5501652  47.1757460  95.8023357  90.2784538  47.4523687
  97.1641636  90.6582928  47.9928637  90.3942776 103.2321072  35.7656789
  90.7101822 103.9116764  36.3611770  91.1435509 102.6477718  35.6500316
 101.1054473   8.6933144  26.6813684 101.2731938   8.7664613  25.7418251
 100.3796582   9.2961606  26.8427324  49.9232292 104.3989468  45.1186419
  50.5268049 103.9888859  44.4991493  49.3221569 103.6968994  45.3678036
  89.0113735  84.9957752  16.6848934  88.9143848  84.3549824  17.3893201
  89.8197651  85.4629803  16.8957317  94.2522578   8.8309106  16.2653959
  94.5225482   9.4921693  16.9025111  94.6743302   8.0249700  16.5629661
  93.9568572   5.2734765  79.2015886  94.7954993   5.0951299  78.7760305
  93.7151627   4.4431790  79.6119833  71.5474176  80.6987762  81.2304306
  70.6833839  80.2918148  81.1666870  72.0431852  80.3235245  80.5026722
 105.0526524  83.2096291  42.3494768 104.7029495  83.0770588  43.2305908
 104.3545723  83.6673641  41.8810892 104.5519118  31.0003003  45.3881121
 104.8864274  31.4083489  46.1867523 105.2994113  30.9958371  44.7902298
   3.1482359  53.2886800  28.0558848   3.3907124  52.8208932  28.8550210
   2.1911999  53.3021172  28.0672526   6.6064068  29.1291055  31.4556742
   6.7369744  28.3648499  32.0170164   6.6933724  29.8775491  32.0460129
   0.3467079  24.7807130  50.0976562   0.7734438  24.4550904  50.8901787
   0.9322115  24.5209321  49.3863726  79.4841342   8.1379994  41.6302919
  79.4746642   9.0020570  41.2185335  80.2114110   7.6799020  41.2090445
 109.5573425  86.3259602  68.8608789 109.3522549  86.9337273  68.1503963
 110.3180218  86.7125130  69.2946625  27.3749157  28.7921723  13.4234548
  26.7337128  28.0821523  13.4542847  27.9660317  28.6129960  14.1546941
  48.0668832  72.9813087   3.8834592  47.8880216  72.4603165   4.6662732
  48.1870175  72.3348701   3.1878110  97.8371339  58.3714398   7.8962982
  98.0709176  57.5395116   7.4846441  96.9989495  58.6079892   7.4991530
   7.6265904   4.4126614   8.5779858   8.5113808   4.0561685   8.6573464
   7.0803543   3.6541280   8.3718807  78.8949633  98.4191990  32.4062586
  79.5972776  98.6911201  31.8154550  79.0204620  98.9544487  33.1898379
 104.7189526  28.4162434  33.4960747 104.0660577  27.7229890  33.5928321
 104.8236756  28.5162648  32.5498939 107.6199345  21.2029370  45.1730394
 106.6848473  21.2365922  44.9712610 107.7494769  20.3392610  45.5648613
  90.5029106  89.7032642  56.0726023  89.6033287  89.5324802  56.3515615
  90.5893612  90.6557083  56.1126328  58.1001520  95.8338070  48.2794619
  58.7843943  96.4833736  48.4410381  57.2824907  96.3283634  48.3350134
  40.2680349 103.8639736  20.3198528  41.0237455 103.3478260  20.6004310
  39.8301625 103.3139324  19.6702719  60.3850412  78.1905317  43.6013460
  59.9889135  78.3502913  42.7447319  61.0090399  78.9075661  43.7141466
  78.5548830  86.9537163  18.1475306  78.5059214  86.7635632  19.0843749
  77.7399778  86.6022396  17.7888882  33.8344189   8.4690865  25.0177097
  33.5478874   8.5966977  25.9220624  33.6615082   7.5445851  24.8398685
  61.1592579  98.8740826  55.1866245  62.1119308  98.9245510  55.1084995
  60.9241533  99.6211815  55.7368946   4.1560217  17.8703317  24.2815065
   3.5205599  17.4694356  23.6884594   4.9024531  17.2711572  24.2733097
  39.3449949  35.1738175  15.4994869  39.5761645  36.0780724  15.7119036
  39.5635860  35.0822553  14.5720887   7.5193688  11.7473325  45.3348160
   6.6810986  11.6102036  44.8935270   7.9004666  12.5069341  44.8943615
  40.5639553  90.4661560  79.1816568  40.2653217  91.2222958  78.6763811
  40.1707220  89.7130203  78.7407541  20.2253147   2.3780450  32.5101829
  20.1344105   2.0816049  33.4157705  20.0024983   3.3084973  32.5392318
 103.8758473  18.5013303  84.7950459 103.6037783  18.6743936  85.6962967
 104.2654757  19.3244370  84.5002270  96.4472918  11.9471654  60.7915878
  95.9004836  12.4980744  60.2314711  96.3001351  12.2836598  61.6755247
  70.3252216  89.0776845  71.7281738  69.9318690  88.8013764  70.9004310
  69.6571441  89.6259805  72.1396009   8.0223934  79.7381973  39.8579359
   7.8097526  80.6512547  40.0511503   8.1302635  79.7134256  38.9071560
  90.2885871  21.7938432  36.6860938  90.1588540  22.6023778  36.1904407
  91.2030845  21.5598020  36.5275002  30.8494374   4.2473039  42.6895237
  30.4490753   4.6404656  43.4649992  30.9749886   3.3280000  42.9247999
  94.0603022  10.4750928  73.5534334  93.7494950   9.9582585  72.8101158
  94.6130948  11.1507901  73.1609058 106.6177134  19.8477563  20.4093480
 106.9362120  19.1944989  19.7864163 107.0303969  19.6085557  21.2392306
  50.0597525  80.9863091  67.0373249  50.3172302  81.2055588  66.1418533
  49.7413683  80.0853539  66.9812059  25.5414768  38.0378159  31.1482239
  26.2918469  37.6085385  30.7372546  25.9281918  38.6332902  31.7901635
  81.2988758  89.2847157  27.1815729  81.3017273  89.4481468  28.1247139
  81.7291451  90.0519848  26.8042302 106.6689734  30.5936059  22.6549649
 107.3060565  31.0045537  22.0706034 106.3152222  29.8629483  22.1477890
  79.3118191  74.3961287  60.9713602  79.2547083  75.0047350  61.7079496
  79.6519709  74.9248934  60.2496004  81.0030651  80.7651043  47.0552683
  80.6115437  81.5601063  46.6934395  81.9457912  80.9286976  47.0282555
 104.7054915  11.6650590  40.1016188 104.2120938  12.4249848  40.4103327
 104.4821601  10.9678563  40.7182741  59.0635633 101.8151283  12.4134815
  59.0829182 101.0197353  11.8813086  59.5944452 101.6026783  13.1811154
  88.1258202  63.9883137  49.2145300  89.0534019  64.2040396  49.1181946
  87.8619385  63.6740303  48.3497620 110.0576596  29.5718202  21.4551568
 110.6812625  29.0761002  20.9244871 109.2494206  29.5664987  20.9423685
  92.2394848  85.3038025  64.7078848  93.0602264  84.8977184  64.9866772
  92.4846172  85.8521175  63.9625788  12.9266545  11.9674024  71.3553858
  12.8154560  11.3219651  72.0534325  12.1786877  11.8242940  70.7754755
  79.8249769  89.1645050  16.3563108  79.0795183  89.3702698  15.7922316
  79.5280504  88.4238434  16.8849683  13.9076706  42.5435838  24.3273330
  13.5911366  42.2861775  25.1932311  13.9768883  43.4972581  24.3713784
  18.9782616  31.2348088  44.8002815  18.9902016  30.4332646  44.2771912
  19.8781677  31.3307771  45.1120472  25.2525517   4.5147141  35.1810789
  25.0535294   4.0966329  34.3433261  26.1333748   4.2092141  35.3979540
  91.7075539  80.0952244  67.0554686  92.4334812  79.6894836  66.5815163
  90.9339523  79.6086025  66.7708969   1.1263796  17.8298673  76.2592840
   1.0022589  17.0898351  75.6649923   0.8153435  17.5113496  77.1066523
  41.2347504  15.6209668  42.6394653  41.7112919  14.7975072  42.5342941
  41.3760945  15.8643254  43.5543585  74.2937756  95.7641697  28.9138865
  73.7111092  95.0274277  29.0981579  75.0614357  95.6056309  29.4632506
  77.6455641  93.9468479  36.0024428  77.6721096  94.0459156  36.9541311
  76.7954397  94.3056393  35.7479048  25.7176872  65.4168996  24.7158337
  26.4665695  65.9303006  25.0188756  25.8514782  65.3324040  23.7718034
  76.3979340  99.4198513  39.4162655  76.7271519  99.0380192  38.6026025
  75.4453516  99.3834972  39.3296671  93.3195357  19.7118672  18.7537014
  94.1295819  20.2188119  18.6983001  92.6361804  20.3670319  18.8951993
  96.5259557  26.5580853  43.7929583  96.7153935  26.9833383  42.9565907
  95.7443337  27.0053204  44.1174316  31.2875744  14.0177258  57.2719717
  31.9817063  14.5770368  56.9232655  30.5969902  14.6272382  57.5323820
   1.3609120   6.5002641  24.1377878   1.4817759   5.7619580  23.5406947
   0.8550259   6.1392316  24.8657727  77.8024864  89.9976444  14.8848283
  78.1196022  90.4073143  14.0799403  76.9305229  89.6725750  14.6606755
  86.5798569  96.4088058  48.8203287  86.9666290  97.2405243  49.0939617
  87.3301888  95.8563423  48.6011696  59.5468950  74.7805643  61.2076902
  59.1605330  74.0997314  60.6568527  58.9508820  74.8523235  61.9532442
   1.5514036   1.9274529  30.6141686   0.7793757   1.4419373  30.9048152
   1.7888781   1.5226373  29.7799277  14.5743080  28.9913663  64.8724508
  14.9837013  28.2843217  65.3711510  13.8019367  29.2299470  65.3850412
  97.0955467  96.8076134  55.0274324  96.8818283  97.6938820  54.7357512
  96.7474365  96.2389565  54.3406439  28.4569641   3.2591924  45.7276821
  29.3579861   3.2351407  45.4054785  27.9468056   3.5890492  44.9879789
 101.1106496   4.9937638  56.9355202 100.8301692   5.6927689  56.3448000
 100.5671410   5.1066884  57.7153111   3.2127520  19.6300134  44.4975328
   4.0850302  19.3603143  44.2100906   2.9904696  20.3672131  43.9288902
  99.4843440   1.9541558  47.2510242  99.8861556   1.3042840  47.8276110
  99.5916896   2.7846631  47.7146578  75.3254604 100.7541275  52.8892899
  74.6149111 100.4716301  53.4650898  75.1507378 100.3118896  52.0585489
  88.6693954  79.8510695  82.3058128  88.8980198  79.0286779  81.8726444
  88.7898254  79.6721220  83.2383919 108.8530064 103.5009480  14.0001810
 109.3816280 102.7349854  14.2240262 108.7511349 103.4521675  13.0496681
  11.7752453  19.7407063  20.3739262  11.1835285  20.3753098  19.9697196
  12.3356243  19.4449719  19.6564662  84.5148945  93.0305386  25.2838111
  84.6595860  93.3542061  26.1729336  85.3535748  92.6455021  25.0296450
  55.8411217 102.1286488  17.0910621  55.9386921 102.7405643  16.3614964
  55.1127529 102.4803925  17.6029122  21.3768765   7.2517880  39.1072392
  20.7342335   6.5429982  39.0778065  21.7030808   7.3167523  38.2096887
 107.1903610 102.8973961  45.6959105 107.4605179 102.6349068  46.5758801
 107.8450966 103.5415840  45.4265308  15.2816769  40.7708844  71.4840698
  15.8005902  40.5635270  72.2612238  14.4233128  41.0179814  71.8281317
  34.9750543 102.1461582  52.9083061  34.0488791 102.2820091  53.1082487
  35.1594114 102.7608013  52.1980524  71.8879461 104.9576664  34.3769240
  71.6017342 104.7871494  35.2742743  72.1390581 104.0983295  34.0382338
  57.5018167  85.7250690  34.8508692  57.0071554  85.6965637  35.6698537
  58.4030962  85.9003735  35.1214027   4.0077158   8.5880670  15.9624517
   4.9205395   8.7269315  16.2148464   3.5502001   9.3663320  16.2806189
  34.7303196  25.7370385  39.6290851  35.4367157  26.0179242  39.0474176
  33.9793869  26.2705525  39.3689108 107.4295907  22.5130662  50.5044842
 107.4178080  22.6422032  51.4528561 107.1322207  23.3489713  50.1452255
  94.1744614  76.1079311  70.3456688  93.8619709  77.0063925  70.4521942
  93.3853626  75.5703259  70.4129457 101.4359097  26.1653241  70.7054996
 101.4167504  27.1170148  70.6047440 101.6144090  26.0264882  71.6356039
  86.0617828  92.4415970  18.2191145  85.7623196  91.5537357  18.0235553
  85.7445908  92.6114273  19.1061223  99.8769288   8.9837178   7.0723963
 100.7648139   9.0698346   7.4194884  99.9810843   9.0677079   6.1245948
 103.2603073  97.2512722  54.1469145 103.1367016  98.1873512  54.3040895
 102.4367523  96.9637966  53.7527657  68.2524633  98.5610676  29.6818399
  68.4551525  99.1683102  28.9702201  68.8853788  98.7754250  30.3671908
   1.5266129   4.2451581  32.3017240   0.5955836   4.3533238  32.4959373
   1.5888020   3.3772763  31.9027853  82.3025799  91.0458088  39.2176914
  81.5081024  90.5453777  39.4037271  82.1102238  91.5054989  38.4004283
  98.1388526  31.5945348  26.2727761  98.5687117  31.6190156  25.4178762
  97.2041039  31.5582379  26.0699010  31.7093087  65.8764351   2.8479787
  31.2220002  65.2327145   3.3621618  31.7033053  66.6675365   3.3868333
  81.4589024 104.0731716  17.4552810  80.5680084 104.4173527  17.5192070
  81.6080379 103.9675999  16.5156829  13.7685486  28.0340489  11.9089305
  13.7867256  28.9896783  11.8571472  14.6215245  27.7976712  12.2733474
  70.0695329  26.2669572  54.1159964  70.7233529  26.4950856  53.4551573
  70.4875140  25.5842027  54.6407557  24.8719382 104.2697334  40.3375244
  24.0821099 103.7411499  40.2234936  25.2734232 103.9309311  41.1376858
  74.9094772  98.8820744  79.1913366  74.6055317  98.1337738  78.6776209
  75.4864454  98.5000610  79.8527002  17.0015713   4.7974500  30.3329182
  16.2292572   4.2340669  30.3815722  16.9702908   5.1712140  29.4522643
   5.5692145  25.2605351  50.1322746   5.5120941  24.3432721  50.3998327
   5.1487967  25.2859315  49.2727184  70.4404068  92.0044327  42.4829721
  71.0419226  91.4467812  41.9895887  70.6011820  91.7784309  43.3991051
  29.9362751  15.2351674  60.4995584  29.4907566  15.3138932  59.6560240
  29.6246334  14.4042882  60.8583879  30.5577465  17.7589044   6.3817304
  31.1488720  17.1676167   6.8477654  30.1929852  18.3208283   7.0654094
  37.7698493  92.2276497  20.8646393  37.7724719  92.2690868  21.8209386
  38.0002260  93.1138992  20.5858684  87.8479671  94.2592525  30.0220418
  88.0879498  94.5983219  29.1596770  88.3560562  94.7880650  30.6372094
  32.7868171  73.3903142  75.0205961  32.5145765  73.9386960  75.7563940
  32.5911756  72.4967595  75.3025821  70.6875420 101.5038490  18.6191165
  69.7958612 101.1572361  18.6507010  70.8779573 101.7577171  19.5221806
  19.3380734  37.6261910  52.8597879  18.9317700  37.0472249  52.2148561
  20.2189537  37.7829274  52.5196123  65.8575535  85.6771183  27.6112318
  66.1292028  85.8847332  28.5052872  65.7225895  86.5298176  27.1978068
  98.4166913   1.9882687  56.3713980  98.2792620   2.4016103  55.5190516
  99.1196971   1.3563832  56.2205935  72.7173042  99.2969322  47.3233557
  72.2528028  99.9837112  47.8016853  73.3273077  98.9299965  47.9632711
  56.3177677   2.1754369  18.5616755  56.6729733   2.7016934  19.2779994
  56.9986531   2.1955689  17.8891993   6.2352654   3.5281571  54.5252657
   6.0135647   3.3679685  55.4425526   5.3896137   3.5770043  54.0794802
   2.1446463  33.3956441  35.2730513   2.2627636  33.4802541  34.3269420
   2.2532841  34.2855271  35.6085181  28.8385677  68.1459332  60.4671621
  29.5173335  68.6620569  60.0322771  28.8433385  67.3070574  60.0061941
  39.5996046  89.1765118   0.7041676  40.0285149  89.5140171   1.4905265
  40.3201056  88.8938713   0.1409433  75.3929281  91.1995220  34.3325400
  74.8839617  92.0003510  34.4584894  75.5061674  91.1343479  33.3842993
   8.9942261   4.0146073  33.8148546   8.3846756   3.3055028  34.0194440
   8.6610790   4.7658738  34.3056035   2.2098438  81.7001152  19.7782016
   1.7936508  81.4896584  18.9423072   3.1485454  81.6575432  19.5958066
  15.5080410   2.6262387  35.3034925  15.7799050   1.8305501  35.7608795
  15.5402275   2.3921689  34.3759131 103.3921056   5.7514390  75.2391624
 103.1711249   6.5599450  75.7014704 102.6918607   5.6446179  74.5953608
  20.9743115  30.4292878  23.3441877  20.9596821  29.4804295  23.4694242
  21.3544937  30.7718095  24.1531181 107.3417430  30.7819852  53.3068991
 107.9032855  30.1829537  53.7989044 106.6081481  30.2394113  53.0176163
  27.4590203   1.9607171  21.5856457  27.3782727   1.5996369  20.7028508
  28.0842205   2.6797208  21.4940667 106.8673758   4.9784478  66.9351912
 107.6170354   5.5507192  66.7716503 107.2107892   4.2911061  67.5060415
 102.2197056  90.1981163  57.0913124 102.7920246  90.4281616  57.8232718
 102.0157719  89.2729759  57.2283173 103.7714343  50.5869588  53.5330534
 103.6328893  50.0253018  54.2956686 103.7763076  51.4758977  53.8880157
 106.3292508   3.1798657  26.9696784 105.7589536   2.5381097  26.5464306
 105.7892136   3.5600671  27.6625276  34.8606869  10.8104142  50.5612230
  34.6951004  11.7524156  50.5232763  34.0052315  10.4242333  50.7490969
   5.2858874  36.6458234  48.9530897   4.8490998  36.1162099  48.2860422
   5.7955118  36.0161504  49.4630194  61.4502001  97.2870350  33.2508540
  62.1920776  97.8364658  32.9979181  61.8469763  96.4601612  33.5248828
  68.7088490  89.5363617  46.2177896  68.7581873  90.4579258  46.4717913
  69.6115875  89.2233658  46.2754631   2.6466271  19.2250260  34.3832040
   2.5052305  18.2783326  34.3835735   3.5946032  19.3256387  34.4695282
  84.3154144 102.2339535  16.6956675  83.8330269 102.5574780  17.4564993
  83.8055611 102.5343895  15.9433246  94.5321751 104.1883945  32.3186374
  93.6094952 103.9854813  32.1646476  94.6966457 104.9703503  31.7916369
  11.9822594  22.2150144  55.4583025  11.6832348  23.1238851  55.4304981
  12.4710175  22.1486672  56.2786388  94.8821168   2.5458917  14.0657592
  95.0081258   1.9366559  13.3383107  94.9230103   3.4127911  13.6619699
 108.7287812  10.8568486  36.0556984 109.0481906  10.7705411  35.1574993
 109.4696956  11.2220582  36.5393281  85.2350330  92.9502678  20.7669759
  85.1793194  92.0908260  21.1846876  85.1544094  93.5732651  21.4891982
  12.1648880  32.0147523  56.4436054  11.4152142  31.9619283  57.0364141
  11.7812535  32.2132119  55.5893993  95.7478385   9.9982175  65.3042841
  95.7710366  10.9053048  64.9994946  94.8780970   9.6844872  65.0565815
  68.5417938 100.3860760  69.7626019  68.8436747 100.1698112  68.8803720
  67.7498388 100.9055614  69.6241331  67.1183634  94.6147060   8.9700037
  67.6133204  93.8937187   8.5808587  67.7877522  95.2166176   9.2953628
  38.0357167   8.4900769  26.0694623  37.6618572   9.3701943  26.1126947
  38.9823815   8.6316880  26.0700846  94.7698689 101.6782665  39.4903064
  94.6338367 102.4890232  39.9806190  95.2133560 101.9548607  38.6884069
  73.5233831  92.9021740  54.8681641  73.7760448  93.8247871  54.8339319
  74.3349552  92.4250126  54.6952391  13.2289501  14.3988427  42.9579592
  12.7874657  15.0047120  42.3627710  14.1394230  14.3937024  42.6625729
  88.3549886  42.1620377  33.6116004  87.4753432  42.5336369  33.6777115
  88.4003215  41.5254697  34.3250179  72.8473616  95.7209587  10.8266914
  72.5958967  96.6324234  10.9757996  73.1221819  95.4044724  11.6872382
  36.0117245  90.0722694  26.7456532  35.9726977  90.6204796  27.5293446
  36.9365335  89.8401356  26.6615510  97.9572968  23.0170068  23.4017467
  98.4059434  23.3998975  22.6478624  97.9713015  23.7072572  24.0647602
  18.3421893  48.1790563  89.4608196  18.9900918  48.3025857  90.1545036
  18.0920692  49.0671083  89.2057981  90.0286250   9.3298825  41.1023140
  90.3025250  10.1471814  40.6861067  90.7636981   8.7325772  40.9639835
  85.4357910 100.7055950  29.3873882  85.2372074 101.0644531  30.2522683
  85.0631332  99.8240376  29.4025254  14.5487782   5.7085523  46.5293598
  14.4027325   4.8166951  46.8447781  13.9247986   5.8137902  45.8111668
  82.9256725 103.8523388  33.9677191  82.5624180 103.5144615  33.1491089
  83.7600231 104.2472839  33.7145281 103.5300450   2.9953679  36.9310093
 104.2438416   3.6015519  37.1291590 102.8051476   3.5590657  36.6608191
  70.5428200  23.5615167  36.0206366  70.3446727  22.6442441  35.8320498
  71.4644198  23.5592088  36.2792420  70.0430775  87.8033543  31.1760998
  70.5048943  87.4087238  31.9158435  70.7194090  88.2871723  30.7020497
  46.6506096   9.4987115  32.1190715  47.0485874  10.3290376  31.8575406
  45.9302231   9.7499665  32.6971269  43.9695978  64.9323559  50.3303385
  44.0825081  65.3113174  49.4586325  44.8183060  65.0536776  50.7560205
 109.6953444   7.8946313  37.5106239 108.8049035   8.2030591  37.3426533
 110.2580123   8.5600671  37.1146035 100.5314212  37.1809873  28.0890822
 100.6361060  37.7375230  28.8607907  99.5841794  37.0877751  27.9877138
  82.4461742  59.0534421  82.2314206  82.1799178  58.9176579  81.3220791
  82.2173400  59.9646779  82.4144760   9.9605366  17.2196969   9.5905209
  10.7735535  17.5909718   9.9331474   9.7662922  16.4875420  10.1757038
  15.1333805   7.9550466  22.9032421  14.3129154   8.1947049  22.4723959
  15.5755516   7.3835668  22.2754455  42.3702904   4.3332299  79.0946436
  42.9572674   3.9221867  79.7292519  42.9444309   4.6058377  78.3789015
  99.8468928  13.1102284  57.0539951  99.3860965  13.4544381  57.8191185
 100.5468850  13.7425527  56.8914652  58.3465433  98.2982731   3.2951140
  57.4273491  98.3242226   3.0293310  58.3359957  97.8731346   4.1526583
  78.4311008  83.5779572  32.8846669  78.8604021  83.6962414  32.0373535
  79.1238499  83.2556248  33.4612370 107.9928403   4.4003209   9.5699233
 108.5042338   5.0003346  10.1127791 108.6051946   4.1065797   8.8954026
  16.5051552  23.8818463  48.4538746  16.1529442  22.9932889  48.4023905
  16.4573094  24.1049584  49.3834782  54.0500879  97.9511929  10.2636945
  53.6838245  97.1627998  10.6643474  53.4627151  98.6549282  10.5393267
  89.3553162  96.0954285  37.7781773  89.8724270  96.4562988  37.0580411
  88.7250519  95.5141163  37.3526525  96.3279057  94.2619705  26.9930911
  97.0712185  94.0770054  26.4190650  95.5674267  94.2488670  26.4119482
  92.8111081  22.0068082  43.1042528  93.1648593  22.3326310  42.2766495
  92.0041613  22.5053891  43.2326412 102.7392773   7.8472623  68.5353899
 102.2918658   7.8450021  67.6891947 103.3601909   7.1208867  68.4799671
 104.4760327  16.4608582  16.9469583 104.1859345  16.2386235  17.8316569
 105.2907805  15.9717473  16.8321192  10.6902691  14.6067914  23.0905342
  10.3493973  13.8523110  23.5709453  11.4454933  14.2648038  22.6120877
 109.0443091  11.0776624   0.3211641 109.5196967  11.4324769  -0.4300646
 109.7271781  10.8597001   0.9555241  79.0800381  92.0437431  61.9924212
  78.1497478  92.2689819  62.0000744  79.5085382  92.8087807  61.6085720
  91.5033393   8.2543286  55.8466530  91.7558245   8.0370435  54.9492836
  91.3145547   7.4088296  56.2537479  16.8948424  19.3643427  53.8792324
  17.4105811  20.1699209  53.9151001  16.0850835  19.5775175  54.3429995
   8.7856670 101.2279997  18.4213769   8.0640645 101.4507094  17.8332245
   9.3994613 100.7392931  17.8730583  96.1751159  13.3022583  48.5442448
  95.7366189  12.4652147  48.6969185  96.0642286  13.4633327  47.6072311
  35.7166702  44.8222857  90.2170690  36.6551204  44.7575032  90.3941184
  35.5543516  44.1637867  89.5415959  19.6705925  29.3885875  54.5108414
  19.5954680  29.4291425  55.4642248  20.1732111  28.5912585  54.3438911
 102.2483244  27.5254297  67.5519657 101.6540238  27.4346399  66.8071175
 101.7139360  27.9267859  68.2372189  10.1410747  17.7709579  33.8236737
  10.0622082  17.2052431  34.5917749  10.0312126  17.1800447  33.0787015
 101.8197874 105.0811600   8.9595169 102.7180485 105.1090048   8.6299962
 101.6250042 104.1479339   9.0454221  47.2483921   5.7166409  30.6534147
  46.4512587   5.2981716  30.9785128  47.6002169   6.1832672  31.4115143
  49.0146828  38.7479639  12.9767478  48.5816813  38.3455038  12.2239065
  48.7303829  38.2233834  13.7252259  21.3147783  10.4622567  21.5948629
  20.8446956  10.2455878  22.4000406  20.9257746   9.8939377  20.9300900
  67.3537025  73.7678281  53.2969046  67.0547787  72.8591696  53.2620049
  66.5796027  74.2834750  53.0708313  48.4227001  73.2129895  85.2339909
  48.5168909  72.3171389  85.5577383  49.1341304  73.6957585  85.6547455
   9.3427998   9.6445686  68.4827280   9.9861586   9.0096372  68.7976599
   9.2678940   9.4648886  67.5455284  93.4626595  85.4238955  39.0036201
  94.1458873  85.8624629  39.5106602  92.9264978  84.9781910  39.6594477
  49.7738062  66.5988075  82.4274466  50.0074743  67.3241412  81.8482051
  50.6113528  66.2858390  82.7692059  31.4897037  14.2255819  27.7899480
  32.0488143  14.0518010  28.5471964  30.8914900  14.9115443  28.0863023
 107.9674009  93.7032167  29.8946643 107.8077415  94.5069126  30.3894520
 107.1034197  93.3008007  29.8061752  33.1221398  80.0925958  74.7375122
  33.1917935  80.9961307  75.0457386  33.9986827  79.8807895  74.4165102
  96.2513112  45.0847160  84.4749758  95.4099034  45.2381932  84.0451959
  96.1994456  45.5857974  85.2888921 111.2195424  91.8561641  23.0321121
 111.0084227  91.8576447  22.0984864 111.1266712  92.7703730  23.3001232
  19.6169174  29.4453216  35.1633930  20.2757287  28.8738012  34.7689724
  19.9087560  29.5586205  36.0679507  74.0919971  44.6927786  25.6619263
  75.0434923  44.7964764  25.6737566  73.9163542  44.1838217  24.8705077
  20.2341533  13.5103393  42.6228762  19.6498621  13.8903832  43.2789230
  19.9980009  13.9520836  41.8071985  50.6700182  19.3527639  20.2198553
  51.1446857  19.1610169  21.0286546  51.2295723  19.0048492  19.5255280
  89.8721830  99.8240295  18.7245977  89.4749788 100.1161302  17.9041481
  89.2787532 100.1425827  19.4047415  12.9929471  29.6384549   0.3315543
  12.4653101  28.8612080   0.5151824  13.8551641  29.2933440   0.0997936
  89.9988493   8.0356103  38.2040715  89.5877632   8.0998540  39.0661097
  89.7121962   7.1877748  37.8646064  95.6663255  80.9531752   9.9699140
  96.4307956  81.5075556  10.1263726  95.7494644  80.2448169  10.6083083
  37.1954417   4.0353933  26.4423776  36.2713814   3.9859205  26.6871095
  37.2022891   4.5503747  25.6355453  35.3157091  13.7605238  49.7246790
  34.7678947  13.8114071  48.9413881  36.1796308  14.0507293  49.4320154
  53.1937408  30.9063792  64.4882298  52.8836679  31.7491269  64.8196840
  52.4047661  30.4710150  64.1654158  25.9840512  28.6049771  48.5753632
  25.4891372  28.1134772  49.2308950  25.7830882  29.5221329  48.7615633
  68.1655560 101.0872740  27.8040028  67.7568773 100.3975901  27.2809839
  67.5005445 101.3232828  28.4507585  63.4724092  23.6003041  14.5307052
  62.5344276  23.7064028  14.6893430  63.8626528  23.5829091  15.4045689
 102.1429720  21.4750528  16.6263115 102.0209946  21.4126682  15.6789672
 102.7326526  20.7519746  16.8400049  36.7078447   3.7040743  22.1997666
  36.3475704   4.5437264  22.4851060  35.9877944   3.2810354  21.7320085
 100.8987025  88.8562504  14.9804640 101.7092351  88.8860527  14.4721520
 100.6670312  89.7750572  15.1159430  35.8394051  55.4229927  64.8039341
  35.6435609  56.2623167  64.3875074  35.5234647  55.5217266  65.7020760
  25.0842834  34.9990726  16.6660798  25.4154944  35.5675292  17.3613417
  25.5869102  34.1897297  16.7586195  96.2848481  15.5256617   5.6309068
  96.2015446  16.3378823   6.1304975  96.0245081  15.7639766   4.7411537
  13.8719392   9.8541009  32.9753232  14.6499455   9.6073502  32.4752736
  14.1962373  10.0072277  33.8628006 107.0608883  13.1208801   2.4280855
 106.8728247  13.8071501   1.7878534 106.6253515  13.4141135   3.2284313
  31.7303634  24.3578386  62.1549416  32.5798655  24.5301008  62.5610256
  31.1406875  24.9987960  62.5520468  99.1947051   3.0099747  14.5052409
  99.6177908   3.7912029  14.1489923  99.0069910   2.4685434  13.7385285
  19.3906903  26.2045360  65.1119900  18.8328528  26.8019915  65.6100798
  19.9990535  26.7777157  64.6455240  17.9994893  30.4476166  64.6541548
  17.4118388  30.6698036  63.9319849  18.8555861  30.3362465  64.2407227
  40.9158087  46.9684362  14.3945789  41.7262316  46.6918945  13.9668286
  40.7689524  46.3126993  15.0762486  24.3257213  17.7168953  40.6453705
  23.9045143  16.8861485  40.4247427  24.2382860  17.7846873  41.5961552
 105.3105119  93.8319210  25.1679802 104.5535568  94.3375650  24.8720551
 105.1230458  93.6349979  26.0857558  42.7342319  14.2827463  37.9445410
  43.1659079  15.0819528  37.6426172  42.2447872  14.5536757  38.7212467
  82.8020111  67.8560487  44.0647793  82.1365694  68.2238713  44.6462679
  82.7681420  66.9134728  44.2279863  28.7632680  15.6842375  77.7956915
  28.9828277  16.1941254  78.5754585  28.6490130  14.7903371  78.1183672
  46.7359499  75.7683483  48.0060530  46.0246185  75.2738634  47.5989628
  46.3123611  76.2649122  48.7062168   0.1351214  35.0882745  10.8751750
   0.1200807  35.3929281  11.7824745   1.0604814  35.1081538  10.6311548
  49.0230417  10.7086897  41.7169762  48.2732821  11.3032842  41.6935730
  48.6546850   9.8695058  41.9932318 100.1284412 102.6294947  27.9164481
  99.6827534 103.4318215  27.6446605 100.8876065 102.5690331  27.3365831
  56.5087811  99.0121434  38.5401225  57.1445814  98.6029080  37.9531670
  56.0862700  99.6837870  38.0047607  61.4561621  83.1296745  53.8959122
  61.8690625  83.7981025  54.4426775  60.5224518  83.3381406  53.9268637
   2.2856286  28.7010646   8.9604324   2.9346496  28.4495735   9.6175134
   1.7808624  27.9028440   8.8045877   2.5382967  90.3940705  14.4908571
   1.7160149  90.4563073  14.9768710   2.6730533  91.2722567  14.1346800
  88.5784403 103.0956839  24.2574716  89.5037237 102.9213176  24.4297504
  88.4177057 103.9511025  24.6557879  14.9058890   7.1441048  49.3802261
  14.2502725   7.8266323  49.5235920  14.6900642   6.7813444  48.5211229
  20.5316091  49.4550657  77.2354794  19.8313677  49.5987272  77.8720760
  20.2102256  49.8607731  76.4302778  31.6353846  28.1156564  28.2466364
  32.1596050  28.2461619  27.4564505  30.7649899  28.4379196  28.0125642
  37.7534080  30.4350567  61.6161966  37.2949982  30.7616043  62.3904467
  38.6441064  30.7743406  61.7043495  57.2391129  15.4245639  38.0024362
  57.1010780  15.9093308  37.1886921  56.3652325  15.3445637  38.3847499
   1.1266576  15.2360964  49.7062397   1.3552721  15.5414486  48.8283253
   1.4016394  15.9463501  50.2860260  27.4182057  57.8643322  37.6464796
  27.7049589  57.0753002  37.1866608  26.4642167  57.8533888  37.5689244
 100.6814603  99.6137676  37.2881436 101.3047436  99.5808039  38.0138588
 101.0961131  99.1029481  36.5929055   4.8559752  45.1115799  40.7302570
   5.5033946  45.4943562  40.1381731   4.7125533  45.7845259  41.3956928
  24.2681050  27.3452973  43.0957890  24.5246100  26.4424253  43.2835674
  23.7417960  27.2839046  42.2986317  94.0927120  17.5935578  43.8791513
  93.5235663  17.6423943  43.1110859  93.8399955  18.3469307  44.4128132
  29.2484713  10.6336880  38.8235188  29.8968363  10.8896601  39.4795132
  28.4200644  10.6089997  39.3024397  31.6614289 104.7065051  19.1721749
  31.1787458 104.4788539  18.3775544  30.9974380 104.7150498  19.8615766
  42.7928114  32.0577550  40.0880098  43.5369110  32.5130558  40.4820299
  42.3085165  31.7012310  40.8327103  25.5543327  26.2311101  30.3002143
  25.5556607  26.8625045  31.0196400  26.4351034  25.8564091  30.3087687
  15.5404818  40.5090761  16.7144084  15.1233685  40.1369619  17.4914408
  16.2069368  39.8670697  16.4696670  68.5200547  60.3668183  73.3684305
  69.3631195  60.3684264  73.8217190  68.7304782  60.6226903  72.4703864
  99.9545642  27.0319724  65.5245590  99.3082162  27.3604560  64.8996067
 100.2538880  26.2048411  65.1470804   7.5971323   2.4992977  38.6064315
   8.4708357   2.7052656  38.2740879   7.0212150   2.6081038  37.8496552
  13.1626129  33.6520457  40.0128222  12.6665235  34.0564895  39.3010950
  12.6821220  32.8488541  40.2134371   6.5750200  26.5789580  11.2375510
   6.0892773  26.0067272  11.8315518   5.9284920  27.2186208  10.9391129
  31.6518259  17.3850024  40.1480913  31.7634773  18.3327472  40.2225590
  30.7888794  17.2150838  40.5258274  40.4411507  26.1245489  19.2723274
  40.5300808  25.6591463  18.4406292  39.9927211  25.5042720  19.8471296
  33.5631847  24.0755987  36.6142726  33.7049770  23.1408119  36.7636156
  33.4926939  24.4504189  37.4922085  68.4157919  69.9323856  86.6843176
  68.5421323  69.9934935  85.7374618  67.7532124  70.5946719  86.8807793
  77.0609260 103.2814666  32.4443626  76.4279973 102.7217812  31.9944906
  77.9142425 102.9608177  32.1523571  29.2015553  16.8056214  25.7722044
  29.0153050  17.7168369  25.9985423  30.0422549  16.6217566  26.1913109
 102.2742966 102.2589988  18.7786698 101.8633918 101.3945982  18.7928247
 102.1179799 102.6128692  19.6542108  72.5884676   1.4606215  21.1623549
  71.7499065   1.6979229  21.5582514  72.3574066   0.8596399  20.4540730
   2.4887700 102.2600866  10.9745920   2.0197935 101.9312546  11.7415106
   3.3379312 102.5411353  11.3154268  60.8886174  96.3468680  38.1191516
  60.0823823  96.0166178  38.5155749  60.7181278  96.3269112  37.1774697
  75.8481996  68.1956378  89.0799522  76.7808402  68.1878844  89.2952442
  75.6691471  69.1002384  88.8232994   4.3240133  18.7732148  52.0320415
   3.5533237  19.1190863  51.5818834   3.9703181  18.1567836  52.6732492
  71.5064827  69.2083899  34.5031166  71.1263544  68.4771124  34.0163231
  72.0570364  68.7936107  35.1672554   5.1384395   9.8363352   5.2722460
   5.6308019   9.7479737   6.0883361   5.6939900  10.3815627   4.7151804
 105.1040796  82.8801361  53.5425282 104.7416023  83.7063137  53.2227325
 105.8655504  82.7208558  52.9848337  21.0881610 100.6146744  38.3079791
  21.6939016 100.0221414  38.7531877  21.5554567 100.8855385  37.5177264
  64.8610554  74.5623699  55.2455044  64.6509871  75.4935447  55.3163338
  64.2756811  74.2360917  54.5620489  86.8476049  93.3212868  11.3667059
  87.0683018  93.2087580  12.2912931  86.1061875  92.7328995  11.2241101
  92.7549700  95.6177411  25.4151917  91.8041865  95.7276133  25.4021239
  93.0056158  95.5902687  24.4917989   4.3100686  97.3885760  21.1522126
   4.8183437  96.7271904  21.6217470   3.8986201  97.9089120  21.8422794
   2.1943897  21.4850712   6.1966282   2.2000661  22.3533440   5.7937640
   2.9470703  21.4904761   6.7879611 104.7314771  29.8695683   7.7593189
 104.3909814  29.0251637   7.4638939 105.5505123  29.6546483   8.2056630
  80.6953881  93.8634769  38.5652494  80.7053528  94.1778508  37.6612020
  79.7790412  93.6426953  38.7319684  15.7117760   4.8107260  50.8905172
  16.0527813   4.8731416  49.9982977  14.8099303   4.5089665  50.7816792
  69.4437060  87.3181013  62.8935432  69.1533438  86.4398161  63.1395864
  70.2285883  87.1717421  62.3655558  34.9124026  25.8954334  47.4584246
  34.8932433  25.0867534  47.9701853  34.1764855  26.4080477  47.7929163
  24.1963053  12.9742491  63.6449480  24.5014048  12.5365663  64.4396687
  23.8503289  13.8126159  63.9510155   9.9119979  32.7332902  21.4585280
   9.3445051  33.3476782  21.9240499  10.7250381  33.2182646  21.3171196
  45.4634762  36.5273547   1.4619917  44.9184895  37.1626759   0.9976773
  46.3432980  36.6645765   1.1108275  38.7952518  21.6569448  17.7252352
  38.2097483  21.6239595  18.4817600  39.5967388  22.0591450  18.0600274
  31.0302734  33.2015014  55.3869677  31.2441063  33.4305596  56.2914228
  31.8796444  33.0648780  54.9672842  51.2239599  21.2136960  26.3463163
  51.6495848  20.6242919  25.7236814  50.3027678  20.9540915  26.3305593
  25.1930237   1.2952587  23.1541514  25.5264521   1.4924456  24.0294647
  25.8945632   1.5690887  22.5633121  20.7919784  80.5100814   8.0293030
  20.1188655  79.8350803   7.9425848  20.3061290  81.3068739   8.2421482
  41.8483162   1.0409098  54.3615913  41.1042070   1.3532177  54.8763752
  41.5701294   1.1440790  53.4515381  25.0617003  27.7542782  60.0956678
  24.8252654  27.7117753  59.1691017  24.6833944  28.5785294  60.4018164
 109.1917125  26.2399292  28.4903264 109.1871087  25.7648683  29.3213058
 109.1754550  27.1632552  28.7421989  48.9897251  25.4466295  26.7321324
  48.4915829  25.3520656  25.9202576  48.4951687  26.0871816  27.2433496
  91.7589120 104.7145411  23.3988094  91.6754893 103.8267409  23.7467790
  92.1038178 105.2269682  24.1300344 107.0323884  32.3680377  15.2836227
 107.1587681  33.1251144  14.7116983 107.1217608  32.7194977  16.1694682
  12.5346744   8.4815794  22.2044277  12.0485508   8.5982120  23.0207086
  12.0930183   9.0555423  21.5785384  97.5702313  83.4494201  81.0414982
  98.2959799  82.8269664  80.9959888  96.9204406  83.0194703  81.5974998
 102.2550086  87.0343212  28.9042473 102.8752164  87.1364585  28.1823468
 101.4346055  87.3950521  28.5680294  91.1732110   0.3485737  51.7671299
  91.4020940  -0.4744396  52.1989775  91.5638324   1.0256535  52.3195887
   4.4221349  85.0753573  49.6615982   4.2121263  84.7132507  48.8007832
   4.5839162  84.3084470  50.2110624   2.3664719   6.8384492  36.1523700
   2.5911534   6.9264174  35.2260828   1.6884527   6.1630499  36.1712742
  81.8494892  12.3019290  21.3099265  81.5982628  12.8248286  22.0713019
  82.8020859  12.2313023  21.3716412 109.7734452  25.6883693  47.6658201
 110.4575166  25.6320000  46.9986629 110.2224664  25.4871297  48.4868670
 105.8908037  95.4768095  41.9064999 106.1394337  95.6497720  42.8145218
 105.7307366  94.5335332  41.8775225  25.8553958  28.6027145  36.4033628
  26.5851402  28.8846779  36.9549060  26.1581063  27.7871060  36.0041380
  34.0750194  47.3739576  32.3509359  34.4036293  47.5637102  31.4721632
  33.1381583  47.5641727  32.3025656  44.6307421   2.8443825  31.8100953
  44.3327475   3.7517142  31.7454433  44.5004654   2.6144767  32.7300978
  89.4938389  98.1951353  54.7588778  89.1431967  97.3412338  54.5056295
  89.1371874  98.8023523  54.1105604  31.7675061 103.8060882  44.4768143
  32.4497934 104.3634789  44.8510218  30.9787173 104.3480446  44.4950867
  17.2801673  58.2378531  14.3622160  17.6965284  59.0927839  14.2528236
  16.3441598  58.4131336  14.2652774  92.7994922 103.4248281  54.7673702
  93.3445898 103.8798856  54.1254807  93.4228984 102.9518040  55.3185940
  48.8270903   4.6536475  15.4576802  48.6309528   5.0620151  14.6144736
  49.7456932   4.8683414  15.6198728  12.6967418  41.8662834  26.6929531
  13.2166445  42.1751881  27.4349165  11.7895532  41.9380903  26.9897437
 110.4212680  38.8213992  25.8357644 109.5778743  39.2738652  25.8217978
 110.4420654  38.3796811  26.6846967  43.0329084  26.4653230  60.4315519
  42.9701805  25.5364799  60.2089548  42.1283340  26.7777610  60.4126644
  45.9794426  22.2223282  54.2850542  45.0545645  22.4361062  54.1620111
  46.4459848  22.8519249  53.7353468  43.2602739  55.7227278   2.1703224
  42.6238823  55.7229042   1.4553106  43.9975548  56.2327480   1.8348736
   5.0977033  44.1489553  35.0469089   5.3714275  43.2847881  35.3543568
   4.2298567  44.2757654  35.4303074  54.9228954  21.8344021  61.8175411
  54.4314766  21.3550115  62.4845695  54.4178200  22.6353240  61.6773558
  23.4110022  42.0699787  16.7763293  23.4860945  41.6392946  17.6278591
  22.7312016  41.5764904  16.3174474  30.1948190   9.8463768  28.9089632
  30.3976607  10.5666733  28.3120871  30.8378530   9.9304116  29.6130061
  31.4616823  40.6515217  34.0684676  31.8220210  41.3005495  34.6727443
  30.5612707  40.5212021  34.3659663  13.7868464  22.7199316  24.5925593
  13.6723530  21.8344975  24.9377108  13.2327747  23.2673764  25.1489234
  72.1884441  52.5493670   7.4434441  72.6096058  53.3431578   7.1136701
  72.5288820  52.4492455   8.3324385  50.4588652  32.6015306  30.8954835
  49.9875689  31.9470334  31.4109874  49.7706938  33.1027746  30.4579854
   9.2433333  35.3660512  51.1429548   9.8109573  35.5441809  51.8928242
   9.7753912  35.5934834  50.3804445  53.1730032  13.9169765  31.9663405
  52.9310608  12.9935980  31.8951511  54.0278959  13.9741635  31.5395856
  89.7262620  70.3665077  79.6258370  90.3975438  70.8692312  80.0872306
  89.2708682  71.0132646  79.0868047   5.6706548  12.1884549  48.9323902
   5.5670702  13.0848622  48.6130857   5.3596222  11.6401720  48.2120609
 100.5424985  34.4685292  22.6149654 100.0909015  35.2117968  23.0147719
 100.4777523  34.6272945  21.6732478  74.4941591  83.1997501  87.2976679
  74.4081162  83.2868898  88.2470015  73.5926913  83.1715166  86.9770575
  38.5972261  32.1186924  21.3557172  38.6576939  31.1670661  21.2721515
  39.3311596  32.4515963  20.8392429  45.9467745  49.6259546  31.6358876
  46.2811613  48.7347794  31.7370057  45.7508516  49.9109697  32.5284219
  41.5843010  29.4255829  24.3735814  42.0818377  29.3191099  23.5628080
  41.8792248  30.2647853  24.7271228  11.3196683  28.9474320  49.4512415
  11.4966702  29.8869634  49.4045210  11.5884316  28.6102843  48.5966492
  71.9124985  41.8551683  14.3690407  71.2414980  41.3200140  14.7928274
  72.7391720  41.5277147  14.7234690  19.7805643  24.6453452  29.9083304
  19.1624570  25.2839708  30.2637649  19.9008656  24.0099955  30.6140852
  53.3570480   9.2552549  56.0363054  54.2536592   8.9285600  56.1111116
  53.2862186   9.5551109  55.1300526  62.8435135  30.5831099  60.6850100
  62.5236654  30.9788275  59.8742485  62.2333384  29.8663402  60.8586597
  43.3773756  23.6901641   6.2040615  43.3231354  23.1794906   5.3962851
  42.8026199  24.4403791   6.0521877  24.3574023  47.1860743  41.4452791
  23.7661028  46.7742920  42.0753813  23.7785697  47.5441074  40.7722282
   9.9455506  49.0108919  66.0765839   9.5174628  48.7723446  65.2543497
   9.2945111  49.5360136  66.5420198  40.4327631  36.2591267  33.8496494
  39.6664858  35.6867623  33.8115644  41.0504484  35.8740830  33.2280087
   5.4050393   5.5949946  75.5078486   4.6681876   5.6848546  76.1121718
   5.0892492   4.9943753  74.8327438  27.9602838  46.9697952  18.9776087
  27.7140403  46.7794895  18.0724120  28.8040543  46.5328503  19.0932095
  29.1979146  43.4839869  32.4678969  28.3076859  43.2825422  32.1795487
  29.7605920  42.9953861  31.8671513  38.2546735  14.8175526  13.7803793
  39.0583706  15.2399945  14.0834343  37.9187417  15.4016733  13.1005371
  33.6938930  36.1492300  37.2929311  34.2632532  36.5599227  36.6422462
  34.0162206  36.4753580  38.1331539  20.3514075  37.7971840  42.4130821
  21.2614131  37.7085471  42.1297693  20.0994539  38.6784840  42.1372986
  41.2038565  26.7721176  25.0918341  41.4347172  26.6806769  26.0162663
  41.3747454  27.6925397  24.8922014  35.9877443  31.9826102  29.1446471
  36.2955403  31.0790610  29.2159915  35.3970933  32.0939612  29.8896050
  28.4880423  39.1397583  84.6036938  29.2143606  38.6863339  84.1757933
  28.8196223  40.0227928  84.7665921  29.6826172  36.9353628  10.1670003
  29.6514988  37.8407526   9.8579168  30.4056215  36.5405774   9.6795142
   3.3041891  18.7942827  31.7779875   3.2861033  17.8662312  31.5442705
   3.1927332  18.8040841  32.7286267  59.7212315  26.9972515  31.5710330
  59.5361185  26.0581970  31.5591812  59.8798847  27.1984792  32.4932957
  44.6033764  42.7589941  24.5538044  44.1570902  43.4209347  24.0257025
  44.6856594  43.1588459  25.4195857  44.3642235  26.1774683  15.4821908
  44.3133450  25.4612708  14.8491776  44.3010473  25.7480288  16.3353157
   3.3850570 100.5569828  63.5565090   3.9405580  99.7778413  63.5321760
   3.7581916 101.0954637  64.2543936  50.2583504  20.6898618  30.7672381
  50.0838423  20.0346184  31.4428401  49.5386410  21.3156247  30.8488965
  67.2747231   6.9752437  19.8795283  67.9857159   6.3352692  19.9135077
  67.2899532   7.3960412  20.7391381  14.9112737  13.2651222  14.1483843
  14.6853089  12.6289582  13.4698069  15.5883598  13.8111663  13.7488568
  71.1158848  17.7651441  45.1986742  71.1278915  16.9100320  44.7687054
  70.4495764  18.2624030  44.7243309  69.7039365  59.9965649  76.0352210
  70.2060317  59.3956774  76.5857354  68.7962197  59.7088021  76.1325589
  70.7180548  17.5547242   8.9027435  70.0368118  18.1702292   9.1734737
  70.5700827  16.7799520   9.4450217  51.0978174  23.7292409  25.2949357
  50.9064436  22.9138589  25.7583547  50.2444124  24.0374470  24.9900770
  54.9438254  90.0476006  21.2934852  55.7641212  90.0082532  20.8017540
  55.1353518  90.6242815  22.0330715  92.4524244   8.0125588  41.1288118
  92.7342232   7.3541403  41.7638779  93.1275769   8.6898124  41.1703825
  33.7107849  32.2169185  11.9852257  34.3222237  31.9730854  11.2902999
  34.0216756  33.0695558  12.2895062  25.8642316  12.7417278  16.2746239
  25.4679441  13.5680568  15.9982777  25.9767675  12.2468400  15.4630482
  50.3248215  33.2609558  20.6488967  50.0012493  32.6446342  19.9918735
  49.5422554  33.5323191  21.1286783   9.8429418  12.4260926  24.8525786
  10.1213777  11.6584778  25.3520513   8.9119411  12.2786832  24.6860242
  39.9345970  20.2572823  40.6648540  40.6496668  20.1566386  40.0365448
  39.7916174  19.3753266  41.0082865  46.2019110  25.9300232  19.5093048
  45.5099201  25.8133459  18.8583362  46.5966702  25.0624704  19.5973539
  27.4061990  62.0443058   2.6254675  27.5922990  61.1058807   2.5945345
  27.3513436  62.3080063   1.7069450  54.5328617  31.1299014  35.2742743
  55.4743624  31.2025666  35.4308939  54.3102074  31.9202089  34.7822690
   4.3487778  38.3243060  52.7157688   3.9313495  38.7372613  51.9598246
   4.1972989  37.3874521  52.5909090  27.3838878  54.7685385  39.4994426
  27.4143338  55.0717688  40.4068327  26.7317438  54.0678740  39.5028114
  27.1748614  39.8856425  52.9871559  26.6246080  39.3731856  53.5794783
  27.4520063  39.2608643  52.3170233  89.2153553 103.6071948  27.8947377
  88.7143961 103.5809221  27.0795202  89.8487726 104.3128267  27.7639842
  18.2663202  12.8755975  15.2009773  17.6801562  12.3342502  15.7297361
  19.1454828  12.6189923  15.4792917  51.1250734  13.5448265  17.0965004
  51.8299484  14.1343653  17.3645091  51.3442612  13.3029461  16.1966765
  88.5573677  99.1194532  46.7007732  88.3968095  99.0871469  47.6438570
  89.5105950  99.0895811  46.6189384  41.5591621  49.8598766  18.9019358
  41.4304399  50.2861977  18.0546403  41.9147015  50.5477762  19.4646239
  53.6472034  32.0721698  20.3164768  53.1234598  31.2720704  20.3584838
  53.3793306  32.5744605  21.0860109  63.8197088  55.9212637  10.1914680
  63.0939674  56.3124609   9.7051597  64.4552422  56.6308594  10.2852726
  41.1676359  45.8589125  43.7215185  41.0751867  44.9072695  43.6760759
  41.7775393  46.0060549  44.4444275  53.3174849  64.9172688  14.7751796
  52.5229120  65.0008535  14.2480195  53.0015516  64.8571205  15.6767356
  54.9573015  97.9747974  84.5833490  54.0712952  98.1506407  84.9000553
  54.9071180  98.1198418  83.6385343  56.5088367  53.8959408   4.0807620
  56.1146832  53.2721758   3.4710148  57.4284315  53.6347818   4.1294754
  45.5525398  22.1018767  50.6522608  44.8741961  21.6263151  50.1727581
  45.3772736  23.0238557  50.4639339  24.8763657  33.2724977   1.7386635
  24.8986626  34.1392803   1.3331738  24.0725446  33.2718062   2.2583783
 110.2209415  28.2783389  33.5372877 110.7355471  29.0735531  33.3992815
 109.3115159  28.5627604  33.4462857  26.5419555  45.5019617  41.4573765
  26.2973356  44.7942019  40.8611631  25.8242464  46.1315966  41.3889408
  88.3864306  72.3890602  78.3120540  88.2955359  72.9787576  79.0605382
  87.5817679  71.8706655  78.3164588  58.6466026  36.2445498  29.2811561
  57.8047180  36.6767073  29.4250298  58.4955597  35.6695533  28.5309601
  29.3185091  66.6330481  42.5357389  29.0906978  65.7109308  42.6542139
  30.0711370  66.6197634  41.9444609  35.9607196  38.5006380  25.9534216
  36.3489223  37.8215313  26.5050960  35.4959726  38.0175185  25.2701664
  40.1292419  47.4251366  28.5485625  40.8086252  47.3376417  29.2171550
  39.7888374  48.3118105  28.6675906 105.7428645 101.3776838  76.9367841
 105.0944327 101.6053307  76.2704936 105.3067922 101.5628540  77.7685193
  26.1109686  35.8364868  59.7897100  25.1771164  35.9953237  59.6521473
  26.4259005  35.5135274  58.9454699  21.6943975  93.4442500  39.4460011
  20.9875674  93.4810928  38.8015866  21.5387864  94.1976861  40.0155210
  22.6036763  18.6626709   1.6320926  23.2984138  18.1118822   1.9929296
  22.4555802  18.3157635   0.7523456  20.2104926  23.7566495  24.5505881
  19.5996904  23.8638330  25.2797389  20.3460121  22.8111148  24.4886804
  45.1353693  33.5115266  32.2995734  45.9541082  34.0033007  32.2358871
  44.4587135  34.1389203  32.0451188  28.8945150  27.9123187  49.4295073
  28.6477017  28.2036614  48.5517597  28.3134532  28.3976746  50.0151920
  37.2909880  37.7208591  16.7987895  37.6573920  38.5212493  17.1747625
  36.3668156  37.9248118  16.6554737  34.3183494  16.5928459  44.6060658
  35.2619123  16.4329994  44.6253538  34.2210174  17.4907923  44.9230099
  28.7828183  31.1982894  35.5745244  29.1716862  32.0674133  35.6726980
  28.6855555  30.8767772  36.4708519  43.6761761  46.7496920   9.4839108
  43.0956793  47.3951006   9.0805507  43.7617826  46.0600710   8.8256335
  36.4364290   7.3039269  50.6474876  35.5873108   7.1931732  51.0752296
  36.9822121   7.7334547  51.3061666  34.3769431  39.8271179  36.4215398
  33.7184381  40.4512310  36.7266345  35.2097845  40.1927328  36.7197585
  34.7370982  56.8389368  43.3485031  35.2144170  56.8826962  42.5199604
  35.0343537  56.0241270  43.7534189 107.8373102 101.8737147  11.6226387
 107.1644286 101.2124327  11.4608669 107.3546699 102.6986587  11.6751671
  86.4770031  18.5788441  44.6725607  85.8014870  19.2300832  44.4833517
  86.9815826  18.5146058  43.8616943   9.8403460  17.8341520  77.1090412
  10.4346883  17.1565390  76.7868137  10.2249634  18.1149995  77.9393578
  34.7157454  17.2554600  37.0545650  33.7598515  17.2447872  37.1033907
  34.9908566  17.7178872  37.8462124  46.2061453  40.3343105  28.8740158
  45.7947969  40.7885504  28.1386971  47.0365047  40.7923269  29.0042233
  35.4970813  24.6590447   9.3007123  36.1968780  24.6609330   9.9537927
  34.6908545  24.7172332   9.8133957  43.3994007  33.1018925  49.2404699
  44.0417528  33.4297848  49.8698330  43.6682129  33.4816766  48.4039688
  65.6536388   1.1026027  50.8357000  66.3306332   0.4950768  50.5376673
  65.5495310   1.7193954  50.1111603  67.6370001   9.6255910  33.2534146
  67.7817011  10.4368353  33.7404203  67.4510717   8.9716482  33.9272261
  43.5432148  12.2818196  22.2810769  43.6726427  12.6396286  21.4027524
  42.6237965  12.0161080  22.2983694  39.2373991  22.4882174  13.6717463
  39.0807962  21.7596626  14.2725062  38.7277985  22.2691703  12.8916454
  29.8338819  34.9283409  21.2240601  30.7854104  34.8247242  21.2333679
  29.5280910  34.2761874  20.5936480   6.9258386  59.8189926  32.2529030
   7.1402586  60.7291651  32.0483541   5.9895009  59.7461319  32.0679832
  97.1226605  55.4595089  41.0637093  97.9281100  55.1538563  40.6465054
  96.4355537  54.9064684  40.6918716  51.8757868  35.4069161  55.4664087
  51.4869833  36.0537577  54.8776293  51.2211704  34.7108841  55.5234003
  36.8907356  25.1714468  18.5235274  36.8345070  25.7076287  19.3144619
  37.8276181  25.1222539  18.3336222  40.8401394  52.0362282  13.8531685
  39.8963261  52.1377182  13.7300813  41.1736202  52.9323578  13.8975835
  16.7158508  14.3010604  20.7183218  17.0923746  13.6136770  20.1688075
  16.0386848  14.7002828  20.1721549  34.9319983  68.6383772  24.6249938
  35.4385471  68.3649254  25.3897572  34.5596576  67.8262377  24.2814469
  25.9116054  49.7081327  39.3445086  25.4701638  49.6717787  38.4959555
  25.7062244  50.5791426  39.6842122  31.1246943  50.4325008  47.7869177
  31.0590196  50.5326271  46.8372345  31.8959069  49.8806000  47.9168034
  13.3660746  37.0794344  19.1398072  13.6317122  36.6018605  19.9256766
  12.4093151  37.0563245  19.1574359  40.7697821  10.3384554  28.1085849
  41.6883755  10.5666256  27.9658890  40.4348564  10.1357913  27.2350955
  13.3866346  24.2091560  73.6000013  13.0970049  24.4483185  72.7195787
  13.1159425  23.2966661  73.7015772  80.5248737   6.9931918  13.5582805
  81.4271545   6.8121278  13.8216019  80.3635502   6.3947111  12.8288770
  53.5272551  21.5434933  18.6733031  53.9347315  21.9391418  17.9028118
  53.0185127  20.8109879  18.3256638  56.7990160  41.5320063  28.4255123
  56.9130802  41.9579697  27.5759387  55.8689737  41.3079739  28.4581709
  39.1112852   2.8709981  31.9872141  39.3778658   2.0824656  31.5145802
  38.3469701   3.1907034  31.5077972  12.8984511  29.2212343  25.9182048
  12.2683048  28.8041639  25.3306675  12.9977119  30.1082182  25.5723166
  33.2442069  30.8458018  80.4115105  33.8692808  31.5704894  80.3930283
  33.6530972  30.1631880  79.8794603  43.5365152  22.3355889  24.5470738
  44.4824123  22.1889925  24.5427132  43.4405994  23.2833791  24.4536591
  11.6028225  21.1047721  45.3290319  10.9996355  21.0771704  46.0717535
  11.1983240  21.7172241  44.7146082   8.8514228 103.0363660  44.6431398
   9.0995259 102.8896039  45.5559015   9.6824975 103.0511502  44.1684484
  46.3738155  34.1134286  54.8562574  46.8390179  33.6119342  55.5258274
  45.6557751  33.5417438  54.5845556   3.1265727  21.6883659  53.3083963
   3.2954285  21.4459395  52.3979282   2.5855333  20.9762096  53.6494827
  81.5337563  46.2260532  22.0969343  81.0368252  46.7788219  21.4938211
  81.2440872  46.5002775  22.9670644  27.8616762  15.7765675  15.1994610
  28.0442429  15.3292811  16.0257995  27.0285034  16.2237275  15.3481376
  12.0956552  20.6926966  33.5021877  12.5611949  21.2545204  34.1217518
  11.2972760  21.1773467  33.2925725  37.2453499  18.3770597  20.7920003
  38.0497479  18.8282144  21.0481906  37.4431968  18.0039144  19.9330175
   8.7181538  13.3862615  31.1238813   7.9427928  13.9322948  31.2538600
   8.6425716  12.7010024  31.7879152 107.7393845  95.8224592  19.3714368
 107.8921846  95.0292662  18.8578916 107.2233609  96.3856021  18.7945294
  31.3886786  25.9807873  19.7548628  31.6173148  25.4270673  19.0083027
  31.1230755  26.8129253  19.3634176  50.5062532  37.1924281  47.0016766
  50.4330826  37.2104788  46.0474491  51.1955261  36.5517974  47.1769619
  89.1283258  50.4124832  29.9496102  88.6524066  49.7474098  29.4522023
  90.0512704  50.2230787  29.7806907  10.6863773  36.9952798  19.2617273
  10.3398681  36.2969518  18.7063003   9.9203622  37.3366928  19.7231269
  52.2348213  38.7926769  18.9187956  51.7879581  38.6344409  18.0872273
  53.1638241  38.8208151  18.6899149  25.7504964  21.1294866  34.8212552
  26.0411119  21.8482828  34.2599106  26.4908934  20.5230069  34.8363924
  37.9638982  16.3554311   8.7356049  38.0705929  17.1243167   9.2956614
  38.6777449  15.7715106   8.9919084  17.7168834  47.6014471  64.8982334
  17.7485967  48.1690502  64.1281366  16.7939317  47.3616266  64.9811697
  68.6110735  22.0598817  30.9525204  67.8485775  21.5151906  31.1478209
  68.6409712  22.0961404  29.9964762  55.1341677  31.6309309   7.7771485
  55.4143238  32.4739146   7.4206030  55.2299833  31.0185981   7.0476973
   6.8429083  43.0087423  80.3159904   6.8176931  42.6885223  81.2176800
   7.2256523  42.2875786  79.8163271  59.0902710  56.0029125  19.7656882
  59.6648121  55.9904146  20.5311799  59.6877432  56.0123014  19.0179110
  38.3704853  45.5013847  18.2873082  38.7193274  46.2352848  18.7932038
  37.9678321  45.9089613  17.5205076  23.7815404  19.5357037  30.6963086
  24.4032598  18.9131117  30.3193760  23.2055163  19.7694016  29.9684262
  17.7362883  46.6720200  50.8735800  17.0922422  47.3311901  51.1322880
  18.5435891  46.9409418  51.3119650  23.7085056  43.6577511   5.7843941
  24.1916132  44.4661999   5.6133676  23.0278921  43.9126635   6.4073044
  49.5567082  60.4179901  89.7812735  49.8615359  61.2075674  90.2283525
  49.9034010  60.4969924  88.8925696  93.8707308  93.2585970  48.4550190
  93.0885807  93.3286790  47.9076958  93.5482982  93.3717123  49.3491554
  62.2452927   4.5632097  15.4979694  62.7822161   5.2033365  15.9650731
  62.4286318   4.7264045  14.5727730  77.8364037  85.4248917  83.8318697
  77.7986478  86.1221897  84.4865308  77.0711254  84.8806321  84.0172443
  66.2207793  77.3471272  79.6631960  66.1885451  78.1392896  80.1995436
  66.3582896  77.6670014  78.7715665  69.5727825  68.4841347  10.0867784
  70.0501156  69.2170429   9.6978945  69.0837765  68.8742399  10.8112943
  45.4126787  30.2379513  12.8795242  45.2923870  31.1833382  12.7900338
  46.3292885  30.0900388  12.6467597  51.2397337  42.1105385  33.8805318
  51.5972567  42.9532146  33.6006999  51.9767094  41.6643143  34.2976451
  87.3634337  48.3916321  89.6645299  87.3571633  47.4352872  89.7044899
  87.0504474  48.5965958  88.7834734  58.0462456  11.2911904  48.5075855
  58.7147188  11.9304276  48.7540579  58.2744741  11.0388446  47.6129007
  41.7886686  12.8281152   3.7558219  41.4691734  12.2811472   4.4734436
  41.3792610  12.4594402   2.9730731   5.8080500  19.9749124  25.4002333
   6.5243953  19.6281779  25.9320760   5.3698426  19.1980195  25.0528955
   2.4615955   7.5903797  38.8109946   3.3130151   7.5337917  39.2447138
   2.6474154   7.3962188  37.8922963  26.2660022  98.2779459  47.3246813
  27.1423764  98.4064749  47.6875591  26.3937469  98.3007536  46.3763142
 110.4435307  46.5397501  31.5275884 109.6566650  46.8999243  31.1185050
 110.8705666  46.0432482  30.8294773  43.9383316  54.3884850   6.7325860
  44.2469788  54.7873116   5.9190100  43.8403797  53.4598875   6.5220052
  19.2767711 101.4237327   7.5712591  18.7481399 102.1328155   7.2052240
  20.0749440 101.4227242   7.0429105  15.1886785  47.4516106  23.7879419
  14.7329354  47.9922295  24.4331288  16.0555887  47.8500938  23.7110686
  56.3040781  38.3906984   1.0493011  56.9923115  37.8922224   1.4898562
  56.3293743  39.2526865   1.4647107  56.2062645   6.8129766  24.2558479
  56.0605288   6.4017010  25.1078129  55.6327677   6.3341266  23.6574888
  86.2551259  67.0339453  87.0146993  86.9616794  66.5818965  87.4758590
  86.2234782  67.9019630  87.4169133  20.9943104  38.3581972  36.5278172
  21.3419652  37.5098991  36.2525749  20.0471616  38.2765198  36.4161539
  18.8822699   6.4258921  15.6097269  19.2918587   7.2031236  15.2297544
  19.6112633   5.9269476  15.9783137  61.6257763  53.6624002  22.8756714
  60.9758902  54.2018127  22.4252152  61.6825438  52.8655005  22.3484492
 107.4793175  98.3303300  55.4478121 108.1012706  98.4851125  56.1587620
 106.7618064  98.9399639  55.6203127  40.4840803  36.4887857  60.5745506
  39.8915100  37.1747375  60.8820629  40.8539867  36.8376708  59.7635746
 101.1484388  82.3805276  17.3732638 101.8489555  82.3641554  16.7211580
 100.7720116  83.2574192  17.2984433 107.0252477   0.3980424   1.8338707
 107.9005637   0.7088864   1.6027223 106.5735450   0.3084597   0.9947216
  39.8081899  20.5738330   7.9476714  39.0949392  20.1645660   7.4577671
  39.8722029  21.4571524   7.5845212   4.0997899  26.1455798  -0.0191884
   4.2225260  25.6301069   0.7779665   3.3209431  26.6740918   0.1548881
  28.2642794  22.3148346  29.1400933  28.5541964  23.1293511  28.7293053
  28.3687854  22.4696398  30.0788927  64.8793316  17.2634947  35.7028413
  64.1348648  16.7722738  36.0502648  64.9908829  16.9311869  34.8121333
  17.1472216  34.0926528  35.0846505  16.5536594  34.6534085  34.5851827
  17.6109242  34.6938419  35.6675601  33.3338666  22.0887399  20.2756524
  33.9002132  21.3643122  20.5415249  33.3302808  22.6789713  21.0292077
  45.1330805  32.0068383  29.7998786  45.2139950  32.3135257  30.7029986
  45.3433466  32.7735615  29.2668152  37.1885443   0.4847766  12.1192312
  38.0901122   0.1641584  12.0945454  37.1612239   1.0643944  12.8804994
  72.7127885  32.5901579  88.1840575  71.9273733  32.8790784  87.7194304
  72.6262998  31.6380632  88.2316498   8.1126845   9.0880573  10.4921401
   7.5113612   8.4950745  10.0415695   8.4965509   8.5558838  11.1890399
  56.6665363  49.2393255  19.1841197  56.7673874  48.9739466  18.2699883
  55.7203770  49.3123674  19.3093276  42.8763294   7.5756204  26.1594296
  43.4410095   8.3469278  26.1098981  42.4491930   7.5361443  25.3037262
  23.8292737 104.8632853  31.6496873  24.3400283 105.4925785  32.1589518
  24.2731376 104.0266098  31.7882133  54.6596527  43.2991219  29.8268056
  55.1437998  43.5527897  29.0409994  53.8763237  43.8490772  29.8134708
   2.2474523 103.0614758   8.5309297   2.7895661 103.7417809   8.1315172
   2.5767155 102.9880198   9.4267100  15.4285836  51.4220381  10.6465256
  16.0892403  51.5680981  11.3236010  14.6024561  51.3640976  11.1265147
  73.2469033  68.4121954  86.6954998  74.1399168  68.5066068  86.3640705
  73.2559990  68.8626194  87.5400517  65.7514643  49.9442935  84.0922520
  65.1671599  49.5187035  84.7197024  66.2250756  49.2226961  83.6784652
  70.0583267  50.1834154   4.5255771  69.2486286  50.3785181   4.9973398
  69.7792149  49.6507549   3.7808606 102.6570224  89.2247784  70.3224305
 102.1638154  89.8221957  70.8846334 103.0694150  89.7934067  69.6721796
  42.3408365  13.2203519  16.5331793  42.6272154  12.4218881  16.9766593
  42.7707577  13.1870306  15.6786084  95.7478169 102.8648480  43.9610338
  96.0732464 103.4579078  44.6382427  96.5280513 102.4065340  43.6489248
 105.9550504 103.3702723  41.7021561 106.5395716 102.8434153  42.2471237
 106.5039710 104.0882373  41.3868093  69.0554476  28.6491752  52.3786116
  69.6740341  28.4709382  53.0870008  68.3764744  27.9821348  52.4800444
  21.4332294   1.1640544  13.5940206  21.8731213   1.8941328  13.1584620
  22.1461987   0.6207950  13.9298403  32.3901320  31.1858463   5.8597738
  31.6476107  30.6009150   5.7089478  32.5070024  31.1844659   6.8098110
  55.9316540  20.9466267  30.5915761  56.2936783  21.8012333  30.8257031
  55.2159929  20.8113718  31.2126803  14.0862413  90.3016475  52.1984625
  15.0431295  90.2851096  52.2164869  13.8539787  89.8446396  51.3901138
  41.5856743  43.7584114  52.1674061  42.3353958  44.3523073  52.2053289
  40.8219719  44.3350172  52.1900845 106.0080051  20.7859516  40.0345898
 105.4773045  20.0265408  39.7939873 105.6482697  21.5041637  39.5140171
  28.1842852  41.8436384  29.4364858  28.3846664  41.1109734  28.8540030
  28.0270886  42.5817156  28.8476253  32.8933072  69.3412399  17.1986282
  33.0257678  68.9511633  16.3346100  31.9592905  69.2254114  17.3730695
  56.8760014  43.1372213  25.7594681  57.8139591  42.9560614  25.6990528
  56.5390873  42.9505873  24.8831749  37.9193854  38.7066317  36.8100429
  37.8053141  39.6252728  37.0536017  38.8664579  38.5974097  36.7242694
  56.4343357  58.9426184  12.6844227  55.8416843  58.4768963  12.0944202
  55.8644485  59.5275545  13.1837261  68.3184958   0.7667688  25.3918767
  68.4762192   0.2148563  26.1578727  69.1851807   0.8945161  25.0061703
   2.7668042 104.8245939  14.7690868   3.2579656 105.5724397  14.4289112
   2.9850240 104.1051926  14.1765726  46.5185452   2.3112534  25.3661442
  46.2223244   3.2211989  25.3881502  45.7814598   1.8108885  25.7162499
   4.6771765  15.5587542  15.3532958   4.8340613  14.8664892  15.9954703
   5.5505693  15.8800542  15.1292789 106.0507729  39.2586112  39.5837665
 106.8464192  39.6015763  39.1768837 106.0869464  38.3156753  39.4231486
   7.6276147  51.2332535  40.9580994   8.5417664  50.9501171  40.9778881
   7.6226789  52.0606661  41.4393473  80.0632668  34.1546559   6.6853923
  80.7504940  33.6280012   6.2772352  80.3672218  34.2911482   7.5827318
  31.3878608  35.1540732  52.0245028  31.4390540  34.1984653  52.0451355
  31.8430281  35.4355025  52.8181362  31.4481163  40.2160215  55.8880472
  31.8583775  41.0636473  56.0596609  30.7998228  40.3971148  55.2074957
  58.4913397  11.5653467  19.6105433  58.5203648  12.4984324  19.3990219
  57.6536608  11.2656510  19.2574012  52.4222660  26.7809415  16.9261944
  52.7279758  26.7581415  17.8329766  51.4968491  26.5421867  16.9793558
  43.4058094  47.9962730  20.6508708  43.3428669  48.7104988  20.0167203
  43.9891052  47.3597288  20.2375793  28.8315821  30.6119442  47.8173590
  28.5405517  31.0496426  47.0173883  28.3017802  31.0042763  48.5113478
  67.9874277  68.0251312  35.0696349  68.3688211  68.1620598  35.9368277
  67.0583200  67.8687763  35.2385736  53.0012189  98.5092175  86.8385268
  53.1101321  98.1881964  87.7336893  53.1441246  99.4534456  86.9036452
  42.1709871  37.0578814  50.0717878  42.9898453  37.4429917  49.7597122
  41.5038967  37.3976517  49.4753218   9.7701752  49.7237539  34.6143222
   9.7299385  50.6777334  34.6817183  10.6286430  49.4944954  34.9702787
 104.5180134  92.3978261  22.0464802 104.7228483  92.1205715  22.9394531
 104.9141125  93.2657150  21.9683456  61.8779087  19.5382941  12.2028041
  62.0218897  19.8648608  13.0909789  60.9864807  19.1898942  12.2172892
  84.4304562  42.0143032   1.9742246  83.4891891  41.8458462   1.9310291
  84.5016003  42.8684759   2.4003232  29.2438912  41.5176630  68.7794018
  29.5270038  42.4317360  68.7559128  30.0535679  41.0139322  68.6962605
  38.7137175  30.3994942  52.3175144  38.9102578  30.9053302  53.1060171
  39.0177250  30.9513879  51.5969419  34.1317654  40.9723139  54.0240955
  33.7377882  40.4737091  53.3082676  34.3894434  40.3091621  54.6644545
  30.2095695 103.5887409  16.8275869  29.9398084 103.2847321  17.6942110
  29.4995065 103.3162088  16.2464094  64.8966408   0.0296196  41.9411278
  64.8244810   0.8644135  41.4783669  64.1166687  -0.0054716  42.4948740
  36.2891030  44.4912434  35.6439853  35.4362464  44.7114229  35.2692986
  36.8271875  44.2507505  34.8897576  58.5366583   8.5664743  28.1248379
  58.5197783   9.2784852  27.4853158  57.6387835   8.2349968  28.1379724
  21.2042189  63.6776638  24.0648818  21.2235713  62.7210426  24.0918994
  21.5708804  63.9005709  23.2092524  53.6196852  35.5452871  27.2403765
  54.1677237  34.9598575  26.7177296  53.4711456  36.3029504  26.6745925
  38.6815286  53.6546040  31.9240117  38.3834553  54.0387630  32.7485156
  38.9102507  52.7527380  32.1488452  42.5357151  32.9008174  55.1790619
  41.7977619  33.4216213  54.8621702  42.1856403  32.4215174  55.9300327
  46.4344263  27.2378922  70.6906700  45.6747961  27.7534389  70.4197359
  46.7057514  26.7760777  69.8973560  55.6487894  51.6924000  20.9515405
  54.7529411  51.4278078  20.7425427  56.1582947  50.8846331  20.8871770
  40.7799768  50.3647423  43.6922598  40.8595657  50.2250290  44.6358585
  41.5741634  50.8425331  43.4530544  54.1663122  47.8121901  16.5718186
  53.3528519  48.2868862  16.7426312  54.1210032  47.5858545  15.6428671
  68.9889050  38.5330963  11.3064253  69.5013380  38.6235046  10.5030155
  69.3721819  39.1713357  11.9080722  28.1302571  24.0331769  59.6444798
  27.3953176  23.4792662  59.3812656  28.8685870  23.4293056  59.7247267
   3.2723756  13.7577315  89.1062391   2.4155088  13.5075494  89.4518155
   3.6424537  14.3323108  89.7764126  52.5130749  64.4946575  54.6276951
  52.3810101  63.8917398  55.3593254  53.4068012  64.8178005  54.7419596
  22.0864344  39.0866613  24.4588256  22.9029942  38.6626577  24.1948509
  22.1227789  39.1019368  25.4152131  42.6971436  25.2351856  52.8809786
  43.5257959  25.3878284  53.3351469  42.0588493  25.7595730  53.3645439
  53.8336182  23.5718775  14.0471435  54.6686554  23.4833264  13.5876811
  53.2230520  23.0373406  13.5394895  25.1628089  41.7985964   9.3333387
  25.6611872  42.0559788   8.5577053  24.3162537  41.5126657   8.9900875
  32.5228071  30.3880095  57.1704483  33.4739423  30.4085159  57.2760630
  32.2453785  29.6072841  57.6497555  25.6747079   8.4805578   4.4879016
  26.3645744   8.5892200   5.1425064  25.9491944   7.7207303   3.9745295
  15.8136459  88.3311633  16.7485023  15.6778236  87.3841337  16.7181718
  14.9716039  88.6848358  17.0350552  20.2477002  36.7560315   5.9543008
  19.9858284  36.6634369   6.8703145  19.4258690  36.8922424   5.4828429
  23.4951520  29.3909907  32.8567028  23.1997895  29.5022964  31.9530416
  24.2408943  28.7942791  32.7931595  79.5573664  51.0157728   9.3175143
  79.8173761  51.9297075   9.4330549  80.3714085  50.5212927   9.4127387
  29.3912077  46.2476969  31.7305589  28.8667011  45.9929609  30.9714556
  29.5745087  45.4239702  32.1823406  80.9375286  35.4016256  25.9029412
  81.7191601  35.3653860  25.3516150  80.7319260  34.4851732  26.0875344
  57.4266720  19.1453373  29.3769264  57.0969915  19.2575502  28.4853268
  56.9905853  19.8318160  29.8817086  18.5831594   7.8306007  35.7327127
  18.6938465   6.9260418  36.0255480  18.9494371   8.3585501  36.4421773
  47.9791451  55.0779295  30.8989096  48.5303450  54.3699503  30.5654716
  47.4021435  55.2970934  30.1672935  43.2125044  25.0232029  24.4861412
  43.9256811  25.1934195  25.1014757  42.5682116  25.7064557  24.6712995
  50.3784037  61.6124821  18.8390851  50.1426077  61.3308477  19.7230041
  49.5413160  61.8124294  18.4201193  35.0804186  49.4065905   6.7443401
  35.6457043  48.7025118   7.0620781  34.2128229  49.0071726   6.6812688
  38.9383101  45.9021854  32.3241377  39.5748806  45.2152014  32.5217843
  39.1653872  46.6173172  32.9184890  35.2472162  38.5969448  32.4037147
  35.8312917  38.6987114  33.1552005  34.6651649  37.8775334  32.6484489
  69.6787214  60.1801014  28.0831695  69.4136381  60.5279207  28.9346290
  70.6347418  60.1534653  28.1224275  97.4213647  84.4092142  88.1859127
  96.9542264  83.9586842  88.8894985  96.8502473  84.3189609  87.4230823
  73.4410762 104.3291390  84.5777587  73.8505959 105.1200735  84.2271194
  72.9414915 103.9723646  83.8433472  47.8908110  30.3430676  26.2888861
  48.1142521  31.2687659  26.1919999  48.1273937  30.1328468  27.1922517
  36.2813544  31.0519814  33.0554414  35.9942794  31.4828658  32.2503591
  36.2241173  31.7333484  33.7252879  34.6675348  32.3503947  15.0342584
  34.6596003  32.6835918  15.9315586  33.7841868  32.5211930  14.7075236
  64.6404934  62.4245787   6.2347430  63.6922264  62.5542450   6.2201923
  64.8895359  62.3742247   5.3118813  47.1955585   8.4192443  39.1868043
  47.4544764   7.6198202  38.7284231  46.6298437   8.8786483  38.5662031
  37.0814037  48.5541821   0.9449073  37.1485329  49.4745016   0.6904715
  36.1498284  48.3502245   0.8624446  27.1474385  47.6719761  10.9902918
  27.1215224  48.5124111  11.4477086  27.6922798  47.1139479  11.5452504
  39.6009970  34.9762607  43.1885338  40.2555847  34.5895028  43.7700558
  40.0909662  35.2153563  42.4017715  57.7880239  17.5819731  25.1518536
  58.3584166  18.1957352  24.6890545  58.3601189  17.1602237  25.7930017
  72.1228361  38.2657552  14.9959791  72.8751850  38.8497782  15.0914657
  72.0802641  37.7922130  15.8267474  35.4745269  30.4894233  57.5134468
  35.7549858  31.2337303  56.9809294  35.7117891  30.7323050  58.4084034
  37.6164079  22.8366804  27.9763770  37.1767306  22.1471906  27.4788642
  38.2230377  22.3684669  28.5499668  29.1798878  39.6257806  31.2629700
  29.0710711  40.1603508  30.4764438  28.8505149  40.1757383  31.9738102
  76.4710236  40.9872580  31.2708998  75.8504629  40.3883982  31.6862392
  76.7225647  41.5929651  31.9680882  40.5880785  49.5201349  48.8344383
  40.6376982  48.6138105  48.5305452  39.7649860  49.5648766  49.3210077
  52.2876501  32.5906062   7.1570253  52.9974985  32.2845078   6.5925336
  52.7294731  33.0632138   7.8624803  56.9195127  38.3170485  27.2693658
  57.7291775  38.6275029  27.6746964  57.0895433  38.3634973  26.3285327
  10.4417741  35.1617360  10.1500249   9.8093474  35.1978564   9.4324148
  11.2939608  35.2484632   9.7228390  35.6891966  36.0056782  24.8408437
  34.9022412  35.6398821  25.2447295  35.9925342  35.3212523  24.2443728
   4.6079674 104.3800509  70.6489900   3.9458933 104.8780405  70.1695160
   4.4761696 103.4744084  70.3685096  55.1929092  14.0282273  51.7292309
  56.0847712  13.7900758  51.9824123  55.0836802  13.6529434  50.8554697
  39.9000549  30.4655886  48.9354277  40.6500578  30.8931637  48.5220146
  39.4887447  31.1549616  49.4567871   1.6510804  48.2998753   0.6365003
   1.2366605  47.7780771  -0.0506770   1.0422315  49.0226793   0.7884574
  20.3505325  50.8437443  34.0003943  21.0821247  51.1358643  33.4566402
  19.9182975  51.6524649  34.2749405  50.5954170  54.2351913   6.3915777
  51.1936283  53.6538982   6.8611318  50.4513121  53.8017845   5.5503738
  78.7750069  95.4283908  43.8401937  79.1549642  94.6592454  43.4156036
  79.0564755  96.1650232  43.2976246  41.2597752  46.4203024  21.3862038
  41.8235588  47.0632362  20.9560657  40.4268503  46.8758631  21.5084147
  49.8571825  36.4593434  16.3138533  49.8915672  36.3751793  17.2667265
  50.2339411  35.6421733  15.9874821  43.2902193  52.6508141  27.1318340
  42.3740196  52.4716091  27.3432612  43.2511616  53.2578373  26.3927603
  42.0308065  44.6380472  35.3177571  41.9435740  43.8854742  35.9027791
  41.3113689  44.5410872  34.6938658  38.5566640  37.7117348  29.1475034
  38.4790802  38.6619496  29.2329645  38.6890697  37.4007297  30.0430346
  23.5548639  40.6893682  42.2102976  22.8933287  41.3577175  42.3889303
  24.3199563  41.1826897  41.9145012  84.1726494  54.4759607  25.2361989
  83.5511398  54.0787983  25.8462930  83.9539242  54.0914965  24.3873286
  15.3003764  31.4745355  51.1865950  15.1426280  31.5954518  52.1229315
  15.0504279  32.3099160  50.7917595  66.0079192  68.3438408  86.7741746
  65.9768795  69.2477059  86.4606533  66.9150757  68.2178700  87.0524386
  44.2473316  51.0825968   9.6864408  43.8541937  51.2522602  10.5425310
  43.5119820  51.1150408   9.0745223  20.9146070  44.8106575  30.6260896
  21.8130946  44.6653128  30.9224439  20.7839465  45.7550192  30.7117844
  14.5148511  93.8045553  23.6544752  15.2539296  93.6162070  24.2328501
  14.9188085  94.0819136  22.8322077  70.8171844  39.2642784  21.0600948
  71.6597319  38.8100386  21.0639834  70.2224922  38.6698365  21.5174890
  76.5386248  42.8222752  23.0829096  75.7966471  42.9955482  23.6622858
  76.2112045  42.1708059  22.4627352   8.5247862  42.5479698   8.2949257
   8.0234879  43.2730675   7.9218721   9.0976131  42.2617722   7.5834537
  16.3852441  53.7945080  16.7391634  16.9710863  54.5264387  16.5460396
  15.8303583  53.7205410  15.9627199  27.8746319  43.1866169  24.0511489
  28.7608814  43.5064507  24.2199755  27.3362708  43.9774990  24.0209961
  17.6923597  48.5144901  42.1753073  18.5395360  48.9185047  42.3631716
  17.4015427  48.9334917  41.3653088  42.5438452  41.2473297  29.4929838
  42.4470091  42.0007181  30.0754452  42.3471785  40.4907131  30.0453329
  75.5462746  92.0619444   6.8096372  75.0293546  92.0615534   7.6152631
  76.3462453  91.5885810   7.0381280  33.8438082  49.6538210  57.5320816
  33.5921311  48.7992191  57.1820211  33.0291653  50.1562023  57.5462246
  46.6571808  39.1891623  55.1939678  47.5816250  39.0406370  55.3929043
  46.5674639  40.1418400  55.1697206  70.7440661  86.0515821  80.0231329
  70.8911871  85.3036320  80.6020621  70.0780152  86.5734589  80.4706291
  18.9958835  12.5829041  52.8856659  19.2606747  11.7727947  52.4499559
  19.7386384  12.8071809  53.4462404  31.7191243  32.7633381  32.6825929
  31.9348836  33.6049032  32.2807884  30.7918882  32.6335931  32.4835205
  23.8204718  33.4002137  23.2334661  23.0853581  33.4474993  22.6222324
  23.5056281  32.8413820  23.9439678  24.5847511  42.9854202  29.8752069
  24.5196271  42.0374060  29.9903679  24.0693378  43.1672001  29.0893722
  44.3715382  39.1511416   2.8716782  44.1497993  38.6201644   2.1067414
  43.7295246  39.8610711   2.8647023  38.4740400  43.8590002  41.1652517
  38.0189848  44.6927977  41.2832928  38.7501192  43.8644648  40.2487469
  56.2373972  40.0954533  22.4752426  56.0132027  41.0004616  22.6918697
  55.3934002  39.6676159  22.3308229  57.7352095  19.8398590  13.9902258
  58.1007051  19.5507538  14.8263264  58.3155918  19.4596100  13.3308327
  29.4839573  65.7941389  59.2343473  29.7475314  65.0342464  58.7153816
  28.5273099  65.7617760  59.2376280  46.3111682 104.2632768  45.7585001
  45.5220599 104.7640013  45.9654188  46.0360522 103.6555014  45.0720978
  23.4073448  15.0802076  52.9548883  23.0153346  15.1688600  53.8236237
  23.1029463  14.2288947  52.6405001  61.6868496  43.9182806  30.4762816
  60.9999371  43.3575010  30.8367085  62.4327183  43.3319283  30.3493977
  42.7470255  30.4985023  19.2928004  43.0756807  31.2724185  19.7502613
  41.7944241  30.5837059  19.3318760  27.7633023   9.0828687  14.6980369
  28.6723208   9.3516177  14.5650351  27.2483158   9.8536921  14.4595993
  33.1940842  43.9048433  32.1073580  33.5582328  44.4078398  31.3789177
  32.2749782  43.7755537  31.8733478  47.3062181  51.8023777  20.0633049
  46.8171406  51.1863613  19.5178187  47.7258062  52.3942900  19.4389474
   8.6159220  82.1129548  83.6818389   7.8713980  82.7121675  83.6283050
   9.1895285  82.5020420  84.3419990  92.7321549  14.1528392  43.3041286
  93.2341608  14.9494958  43.4760571  93.3604952  13.5572207  42.8958893
  38.7700057  29.6677876  20.3694940  38.9134145  29.2361689  19.5272529
  38.8149929  28.9598370  21.0121584  59.5978546  31.8946362  59.0723515
  60.2644300  31.9899797  58.3920479  59.9989939  31.3166499  59.7213888
  51.1433840  41.6368628  28.4245706  50.2424669  41.9527531  28.4937859
  51.1656284  40.8539724  28.9748597  45.1177216  29.3073988  56.9446659
  45.3570557  29.9635053  57.5992441  45.4075575  28.4765029  57.3212862
   1.0691983  59.1557980   3.3273038   1.9788218  59.0115499   3.0665174
   0.5711520  58.5096455   2.8266323  26.9375205  54.8705149  63.2896662
  26.2620330  54.4728804  62.7402687  27.4389601  54.1284561  63.6275148
  24.5316029  71.5749073  12.0024347  23.9605999  72.2390509  11.6162932
  23.9328170  70.8968878  12.3154485  88.5027217  78.1848967  79.9614183
  88.4720944  78.9726126  79.4184664  88.6244964  77.4688589  79.3379656
  51.3675833  91.4186192  28.7618804  51.9846296  91.7496014  29.4145155
  51.8983364  91.2848854  27.9766083  33.3574247  32.2422123  20.9168792
  34.0611339  31.8536139  21.4365125  32.8959465  32.8152490  21.5291667
  48.8118696  32.4670053  46.3249588  48.8743496  32.9254532  45.4870129
  49.5347166  32.8184915  46.8447542  73.4549665  51.5867615  17.9456508
  72.8311205  52.2792816  17.7277899  73.4156609  50.9861517  17.2013676
  46.3924932  26.7338943  26.1520219  45.9573221  27.5201392  26.4816856
  46.4643860  26.8777370  25.2084255  30.5168533  45.0546741   9.5075393
  30.4763246  44.6127844   8.6594111  31.2104249  44.5973539   9.9829847
  58.6650133  28.5344863  29.6614313  59.0170670  28.1009674  30.4388309
  58.1571245  27.8552127  29.2177296  69.8796606  31.3453245  21.9193149
  69.1295433  31.6411924  21.4035416  70.1992893  30.5716276  21.4551353
  25.0237703  73.4535408   7.4733788  25.4052353  74.2444277   7.8544497
  24.7528172  72.9307413   8.2280278  95.2247619  90.9994328  89.8070534
  94.6739291  90.5301678  90.4336370  94.9188851  91.9053900  89.8507619
  97.0272445  89.2006719  83.9642862  97.0802545  88.3505714  84.4010369
  97.3841428  89.8197925  84.6011100  90.4494667  15.8582163  48.3580637
  91.0156918  16.6298878  48.3702517  89.5608711  16.2126374  48.3897686
  52.5811099  77.7353966  59.7458485  53.4796845  77.5083696  59.5065693
  52.5762319  77.7172601  60.7028655  30.6736350  31.3494849  17.2817111
  30.7605886  30.7711053  16.5239871  31.1686683  32.1331573  17.0428991
  44.4266653  35.6905699  21.4194536  44.0593481  36.5725327  21.3607144
  45.3443384  35.8284497  21.6541886  37.6531672  11.1126447  50.2310085
  38.1897831  10.6820297  50.8964729  36.7573905  10.8438575  50.4348993
  22.2551799  53.0705881  54.2441988  22.4819565  53.9878702  54.3971634
  21.5393138  52.8957653  54.8551035  49.7440100   8.3020937  28.5497856
  49.5606327   8.8736951  29.2953587  50.6625891   8.0553818  28.6573648
  34.7163534  41.6713619  33.2196903  34.5341301  42.5113392  32.7984285
  33.8616610  41.3650513  33.5228515  73.3094215  18.3616698  21.7251992
  74.1179752  18.7200141  21.3590598  73.1267881  17.5884724  21.1913037
  65.7075691  30.3635144  10.3373897  65.7690048  31.2804389  10.0696099
  66.3186073  29.9042773   9.7612268  24.7185349  42.8882837  47.7600288
  25.5763960  42.4711418  47.6806831  24.1432977  42.1938324  48.0810833
   4.0234752 104.8147663  35.1962328   4.8004289 104.4219317  35.5940437
   4.3321939 105.1611230  34.3589973  24.4269323  45.6489515  20.2453709
  24.5657659  44.9464703  20.8805680  23.9315939  46.3120985  20.7260990
  33.7634802  31.7265582  53.7441206  34.5039916  32.1013379  54.2210007
  34.1650009  31.2175751  53.0398846  53.8426638  28.9181781  33.4901190
  53.2306767  28.4110022  34.0234876  54.1758060  29.5917535  34.0830278
  45.1612854  47.1022415  32.4886632  45.1474953  46.2877607  32.9913163
  44.5376730  47.6720810  32.9388022  38.6601353  20.4150510  15.4944515
  38.5193872  20.8582592  16.3311028  39.2972493  19.7283638  15.6913757
  50.5307484  70.5207491  25.9468651  50.8962345  71.4014912  25.8635497
  49.6194792  70.6122732  25.6685829  43.2555389  30.5996537   5.1606572
  42.6509047  29.9582982   5.5338985  43.3363676  30.3458643   4.2412606
  29.7343802  54.7436428  10.6044245  29.6609426  55.3681183   9.8827112
  29.9985909  55.2753258  11.3552499  58.3813000  62.8867435  22.9333234
  59.1131020  62.2698164  22.9232645  58.3145285  63.1642580  23.8469744
  62.9502726  29.2493844   9.0867954  62.9018545  30.0903058   9.5414799
  62.0532179  29.0810490   8.7983799  85.4824828  98.3033192  78.3196727
  86.2882804  98.7906611  78.4912113  85.4580735  97.6329147  79.0024558
  69.3948889  98.9339828  37.7269578  68.6184359  98.3879375  37.8501630
  69.7119474  99.1031742  38.6141324  58.5061693  51.5606260  19.7352791
  57.9777527  50.9259939  19.2512810  57.9632998  51.8013620  20.4859924
  34.7314668  50.9653997  35.9799981  35.5292368  51.4746094  36.1231780
  34.3040848  50.9439850  36.8362212  30.2914453  37.2266245  30.9848332
  29.9968004  38.0923915  31.2674284  29.6132183  36.6285372  31.2987328
  44.3853045  41.9023371  44.3288279  45.0022650  41.8154812  45.0554943
  44.6371746  41.2107801  43.7168264  46.5570211  17.2650123  32.3105145
  45.8225632  17.8042245  32.0171690  46.1801958  16.3938367  32.4341702
  20.8895393  94.5945827  44.2842007  20.0199981  94.5979575  43.8840485
  21.0901876  95.5192605  44.4289207  91.8562412  96.7227077  36.7375731
  92.7967644  96.5478516  36.7703748  91.7905903  97.6774883  36.7201018
  82.7718735  38.1578469   4.3793371  82.2479820  38.8537621   4.7761551
  82.2867966  37.3548508   4.5694155  17.9042807  94.3175566  90.0164749
  17.5365820  95.1221954  90.3819667  17.6163378  93.6288750  90.6156726
  34.0387201  33.3504105  37.4525356  33.7784386  32.8735065  36.6644692
  33.9706421  34.2732072  37.2074962  12.2257892  87.9264355  46.2121725
  11.9409076  88.5756016  46.8553400  11.5143196  87.2866154  46.1863708
  55.9889412  45.8293772  22.8065825  55.1032019  46.1759329  22.6989007
  56.5142012  46.5887356  23.0589890  41.7235947  90.3146267  37.4042821
  41.3372517  90.1757240  38.2689643  41.7374802  91.2658215  37.2981501
  32.7223253  74.9080324  26.8197560  32.8299952  75.6191969  26.1881876
  31.7987251  74.9461603  27.0682359  86.2525082  70.4410076   3.2819286
  86.5401077  71.0907745   3.9232689  85.8859539  69.7306681   3.8085097
  85.5111980  50.1367950   7.3732275  86.2926197  49.8368740   6.9088322
  84.9606228  50.5221367   6.6916049  74.5536184  62.0080709  28.4178376
  75.0220728  61.7850399  29.2222238  74.8290157  62.9033470  28.2206726
  82.0016861  73.9442873  27.2446108  81.6841984  74.8404360  27.3557401
  82.9297543  74.0435839  27.0323348  49.8625278  50.4590273  21.8078971
  48.9688253  50.4852009  22.1497107  50.3551388  49.9646616  22.4630070
  81.7788696  69.8897791  15.8262479  82.5176716  69.2962885  15.6914175
  81.4947605  69.7184229  16.7241073  47.3422432  98.1200886   9.1078198
  46.4875221  98.3928013   9.4414663  47.8961849  98.8944149   9.2068428
  51.4650583  43.9563131  20.5428219  51.8600130  43.0907869  20.6482267
  51.2270737  43.9998102  19.6167004 111.1345338 104.0587294  90.6036895
 110.5484532 103.3086264  90.5032399 112.0092677 103.7013781  90.4508188
  41.7727132  44.1237660  88.9916787  41.5999313  43.2276269  88.7030444
  41.7943998  44.0677281  89.9469906  78.3188868  62.7043247  61.6991091
  78.3954334  62.1699286  60.9086752  78.3945942  63.6059999  61.3868809
  41.4297915  21.9686580  21.8595004  42.0721579  22.6756597  21.9207406
  40.9123850  22.0450449  22.6611781  55.8764219  37.6621580  19.5520329
  56.5598202  37.0075202  19.6957326  55.0908327  37.1501064  19.3599701
  89.7950268  83.4453392   8.9994895  90.2481651  83.4678650   9.8423332
  89.9050045  82.5454426   8.6923933  28.8679385  57.2317505  47.6031065
  28.2584381  56.5022278  47.4911451  28.7578988  57.7593470  46.8120575
  40.3069115  51.8623066  25.8626580  40.4357386  52.0369434  26.7949343
  40.7743216  51.0418367  25.7058501  43.9327765  42.4420166  38.2575774
  43.0422497  42.6020718  37.9452062  44.3705940  42.0119667  37.5230026
  73.3934593  57.4197340  10.0862718  72.9434824  58.1171179   9.6093971
  72.6940870  56.9514561  10.5421484  46.0571814  33.8705969  25.4158640
  45.1303530  33.6715126  25.5484819  46.0743570  34.4203687  24.6324801
  79.1885805  51.8127680  36.9094443  78.2857370  51.9750977  37.1828580
  79.1670752  50.9393167  36.5184832  46.9181061  55.4629040  18.9009571
  47.0462704  54.8858166  19.6538019  47.6192808  56.1104631  18.9734435
  63.3044386  73.2626677  32.1811724  63.4731102  73.5280848  31.2771082
  63.0264521  72.3491383  32.1147013  64.2313004  89.7186565  26.0611510
  64.5197821  90.2600956  25.3264046  64.9851656  89.1633129  26.2599349
  91.5329647  39.0247774   0.1595190  91.1893082  38.4415054   0.8362187
  91.1927509  38.6669278  -0.6604972  81.5933037  48.3720398  36.0280347
  81.4125824  48.2026529  35.1034379  82.0021725  47.5661802  36.3437057
  31.8527198  66.0960102  17.3077977  32.2961235  66.0343075  18.1538570
  32.5199103  66.4367819  16.7120123  55.1770210  60.4394913  30.8798385
  54.6688557  59.6554899  31.0880208  55.2343845  60.9148264  31.7086935
  52.3334789  24.4245887  57.1569395  52.8918552  25.1861310  57.3134518
  52.2917557  24.3500733  56.2035561  42.4872446  47.0802736  30.0697494
  42.2258043  47.3380232  30.9537435  43.2263231  47.6520634  29.8622632
  52.7419472  78.9308071  18.4482133  53.3501816  79.6577072  18.5820067
  52.8876257  78.3553076  19.1990840  48.8785505  66.1693573  29.5266438
  49.3432093  66.9923830  29.3751407  49.4390059  65.5016184  29.1313720
  50.2397490  57.4906778  33.7327051  49.9993706  57.8141308  32.8644729
  51.1769390  57.6715612  33.8046813  68.0639029  61.4078617  30.2670765
  67.9209757  62.1325970  30.8758140  67.1840477  61.1446190  29.9972796
  46.6715956  41.0378408  45.7630301  47.2340584  41.4553928  46.4153433
  46.3869524  40.2236700  46.1781645  45.3076553  49.8655033   0.4935913
  45.7960129  49.6927166  -0.3113205  45.1106024  50.8015251   0.4579342
  50.4324150  58.2709074   7.3988515  50.1681805  58.3328247   8.3167726
  50.0544882  59.0483952   6.9878566  59.5237684  39.0402102  30.8626437
  60.0242996  39.5635724  31.4885783  60.0002670  38.2118416  30.8079696
  59.2257404  54.6876526  33.9352846  59.7322750  54.5731020  34.7393560
  58.4537840  54.1350937  34.0577435  63.2202525   7.3059293  90.2863442
  63.3408351   6.3806363  90.4996873  63.0601974   7.7275153  91.1306676
  87.3911618  85.7081139  84.6547351  87.9992722  86.4433729  84.5783911
  86.7830371  85.9710013  85.3456095  78.7625742  92.2931290  15.9102464
  78.0292892  92.5161171  15.3368342  78.9914942  91.3957405  15.6683409
  66.4023304  48.1269073  25.6941485  65.9853077  47.4996710  25.1034760
  67.3402786  48.0136156  25.5403876  11.2483878   0.0340053  76.0705510
  11.8198009   0.3136846  76.7857436  10.9846778   0.8483907  75.6422225
  63.1591225  74.9761248   7.4761820  63.2610607  75.8970785   7.2360176
  63.3482790  74.4960117   6.6699904  68.5929394  11.3428509  20.8172441
  68.5492086  10.9656203  21.6958880  68.3906746  12.2697806  20.9442115
  74.6909857  71.0237837  16.3463724  75.5450678  71.4312029  16.2022114
  74.2280149  71.6345263  16.9198573  60.8302116  56.1572170  21.8695688
  61.7001295  56.5530014  21.9227839  60.3616238  56.5059423  22.6278901
  23.7207341  69.5064640   9.5958805  23.2670069  70.0150204   8.9237660
  23.2996678  69.7639179  10.4160357  64.5239544  47.1147013  -0.1264312
  64.6491194  48.0481052  -0.2976661  64.7651720  47.0054817   0.7934153
   0.8164016  55.3675842  51.2124062   0.7425872  56.0056305  50.5027008
  -0.0442418  55.3746510  51.6312981  87.9009533  68.7073469  22.0936990
  87.1509361  68.9323664  21.5431786  88.5971069  68.4911394  21.4733386
  48.9601421  55.2913475   8.1137013  49.2821598  54.8656750   8.9082670
  49.6463251  55.1370621   7.4644119   1.0463925   2.7665635  62.8188494
   1.7953820   2.8209420  63.4123877   0.6636138   1.9069692  62.9943756
   7.9789915 100.9739220  90.8894738   8.4038916 101.6051066  90.3086989
   7.0984068 101.3251078  91.0216404  57.8873205  64.0077162  31.1065197
  57.3411036  63.5063982  30.5010748  58.7790918  63.8876009  30.7801056
  58.9546061  59.3396378  33.0856776  58.8995552  58.5234213  33.5826588
  58.7979603  60.0259829  33.7342334  74.1324472  18.3213043  13.3764255
  74.7962046  18.2236564  14.0591586  74.6339417  18.4567904  12.5724483
  39.8909092  18.9464355  29.8350000  40.7682419  19.3112743  29.7191787
  39.5616221  19.3627560  30.6315398  38.7625337  23.9844012   9.6620107
  38.6497259  24.6327257   8.9668989  39.5213819  24.2934060  10.1568842
  54.4390011  23.0871391  16.7795396  55.1815128  23.6795664  16.8975937
  54.1883707  23.1970596  15.8622968  21.9664574  31.2369418  53.6871910
  21.7348409  31.9253635  54.3106174  22.2971678  30.5223298  54.2314291
  24.6978855  70.3379869  17.7281761  24.2486763  70.7956362  17.0175421
  25.5106282  70.0219202  17.3334849  86.9032669  58.2714510  34.4650960
  86.1713505  58.4084845  35.0665593  87.6692677  58.5879183  34.9439621
  73.3107948  92.3811722  57.6779127  74.1744852  92.0481491  57.4342489
  72.8262615  91.6057587  57.9610920  22.4594760  71.4696741   4.9099055
  22.5688171  71.5644598   3.9637071  22.4259067  72.3681402   5.2383268
  70.7213163  30.8333063   0.3637184  70.4820204  31.2612557  -0.4583693
  71.4719534  31.3332748   0.6843585  59.6999454  96.2568378  14.5896006
  59.0832472  96.9411373  14.8497128  60.0758648  95.9473419  15.4136920
  52.6613665  63.7486076   7.7700913  53.1628036  62.9645157   7.9936755
  51.7886162  63.4209347   7.5529116  43.8187265  87.1078396  17.9410613
  43.4978104  86.2886429  18.3181143  43.2658577  87.7842999  18.3321679
  59.6244860  82.7826309  32.0772195  59.4135094  81.8541241  31.9792438
  60.2952147  82.8051186  32.7597499  71.2497568  88.8711071  45.9668112
  72.0278168  89.1434193  45.4802895  71.5361738  88.1083107  46.4691401
  75.4270220  66.9641495  56.8329763  75.5763674  67.7059937  56.2468100
  74.7773790  66.4272881  56.3791323 105.5720668   3.3870324   9.8222262
 106.4327292   3.7802895   9.6778959 105.7453971   2.6301488  10.3819680
  62.5783443  82.8256798   9.3389499  62.2615528  83.1558418   8.4981990
  62.4215889  83.5434055   9.9525601  37.1314427  11.3372620  42.0874405
  37.4605938  12.1619901  42.4448013  36.1896607  11.3617429  42.2568369
  76.4024687  60.6225538  39.6230292  77.2478437  60.2731705  39.9050045
  76.5554333  61.5611935  39.5144272  95.6162453  53.6303616  39.9635673
  94.7373486  53.8446188  40.2764225  95.5392456  52.7381706  39.6254826
  89.2494392  68.7666273  37.2918272  88.5319614  68.9865923  37.8860331
  89.5713997  69.6129417  36.9814658  41.1190605  49.1487932  25.3861117
  41.9559336  49.0948296  24.9246311  40.7931709  48.2488441  25.3971553
  77.3593616  57.4062681   2.5202727  77.7491093  58.0821180   1.9656989
  77.7742386  57.5284815   3.3741885  81.8662739  76.0882378  23.8960314
  81.9864750  75.9503698  22.9564691  81.7665386  75.2071571  24.2565656
  91.5930748  79.9930763  46.0054016  92.2944927  80.5778980  46.2921572
  91.2109184  79.6610641  46.8177795  29.2388797  62.2890186  10.9081078
  29.3788743  61.3641930  10.7048070  28.5089326  62.5498676  10.3465343
  79.5780849  78.5306931  19.3036687  78.7072515  78.2683086  19.6020460
  79.6275949  79.4657898  19.5021045  59.5794678  66.7227793  32.2218418
  58.6960077  66.7127752  31.8535638  60.0116968  65.9649086  31.8280816
  85.6238651  33.0496073  26.5148950  86.4736271  33.4787631  26.4151096
  85.0424576  33.7404823  26.8325329  61.9453049  70.3029442  25.2265096
  61.8052578  70.2537489  24.2808890  61.0700893  70.4324150  25.5918407
  92.9931641  69.7898436  30.2502108  92.7051258  68.9135551  30.5059123
  92.2803020  70.1275778  29.7079992  47.9156208  79.2854166  76.0292721
  48.2341194  78.5907507  75.4528761  48.1738758  79.0052605  76.9073677
  84.9632792   8.0426892  61.3253307  84.9142127   7.7057656  60.4307318
  84.9415212   7.2609147  61.8772221  51.7842388  72.9443359  25.3442168
  52.7337885  72.8672600  25.4371881  51.6634893  73.5243082  24.5923615
  79.0305090  58.7425995  17.7474475  78.9154291  58.6119318  16.8062174
  79.9772882  58.8211536  17.8643620  45.4485035 100.9175205  13.6078310
  45.7913685 101.7705727  13.3414054  46.2275696 100.3957653  13.8003218
  19.7840202  98.3574200  49.2405033  19.9848020  97.6273060  48.6549664
  20.1955175  99.1162682  48.8269281  66.2478352  96.8925476  40.6458950
  65.9407187  96.1317730  41.1389732  65.6166124  97.5820827  40.8516550
  59.6435928  65.5038023  35.4742932  59.1041756  65.7551861  36.2240052
  59.7096872  66.3010645  34.9487162  92.3544121  99.6366787  69.8019648
  92.5195694  99.2843151  70.6764889  93.2040501  99.9702835  69.5137644
  60.7482767  58.8254881  48.1613684  60.3856182  58.3441830  48.9050436
  60.2939463  59.6678543  48.1767035  93.8291168  50.9675741  32.5204921
  93.1776047  51.4219570  31.9863486  93.4591389  50.0957537  32.6593423
  69.7524691  66.3114929  20.9970307  70.2636814  65.9287882  20.2839851
  70.1756668  67.1523142  21.1706781  30.4470444  50.1649523  41.5143299
  30.4140067  49.8973370  40.5958939  30.8309507  51.0415745  41.4947081
  75.6606722  73.4859991  41.4585066  76.1297607  73.8625908  42.2030640
  74.7363997  73.6363649  41.6568470  78.0129766  65.4316759  38.0616426
  77.3282719  66.0961390  38.1384325  77.5961447  64.7118425  37.5880218
  47.2592878  51.2957478  29.2302251  47.0907164  50.8968592  30.0838661
  46.4678955  51.7998266  29.0409231  52.8181982  66.2457132  24.3556070
  52.5914860  65.3159571  24.3359327  53.1769085  66.3862848  25.2318478
  93.8631153 100.6420517  43.7728643  93.2987976 100.7689095  43.0101824
  94.6211529 101.2021255  43.6057329 102.9920864  78.2495213  15.5181563
 102.8419113  78.4392452  14.5920444 103.3681583  77.3693132  15.5244052
  71.9147015  90.4759693  24.9661851  72.2949648  89.8519993  24.3478799
  71.3856697  91.0597229  24.4225144  51.2925100  64.1267872  25.5763650
  50.7177925  64.8673582  25.3827429  50.9828663  63.4266758  25.0017381
  54.9479055  89.9124813  30.7051039  54.4675732  90.6883240  30.4160118
  54.4824123  89.1790199  30.3031373  70.0239182  60.8065414  23.9154577
  69.2780495  60.3727579  24.3298841  70.7450914  60.1840830  24.0086651
 104.9947548  75.1778507  67.6455164 104.5612431  74.8783827  66.8463802
 105.8504486  74.7491932  67.6288366 103.6684799  86.8593121  26.3923621
 103.7871265  85.9138966  26.4837241 104.5583725  87.2095299  26.3514543
  41.1527157  97.8602314  24.5430517  40.2908087  97.8459835  24.9591565
  41.0603523  98.4830761  23.8221002  74.1097736  81.8506050  17.7209091
  73.4739590  82.4205780  17.2883511  74.8019886  82.4431229  18.0141652
  53.8699389  75.2460861   9.5096290  54.0080929  74.5192862  10.1170027
  53.0188322  75.6070614   9.7577095  48.8441277  64.1497850  36.3778830
  47.8903580  64.1873217  36.4496088  49.0736341  63.2749176  36.6911960
  53.9295292  74.6602392  27.5951576  53.5108185  74.9028921  28.4210086
  54.3363762  75.4696417  27.2860050  64.2559528  54.2929602  29.1443729
  63.3806515  54.2048216  28.7671256  64.3624735  53.5119390  29.6874142
  44.1590691  81.8484879  21.9128060  43.6641884  81.1387444  22.3221779
  44.6624136  82.2341251  22.6298571  52.9465723  59.3889856   0.1807970
  53.1689072  58.6366701   0.7292670  52.5411129  60.0128889   0.7829434
 103.2042173   7.6439591  77.2186414 103.4723715   7.8434869  78.1155900
 102.2477487   7.6726457  77.2426060  38.1241488  73.4810448  30.5330658
  37.9855442  74.2611694  29.9960113  38.7493587  73.7590551  31.2024355
  92.2274970  78.7288749  89.9142272  92.9818057  78.6101973  89.3370191
  91.9621228  77.8392803  90.1475235  70.6746721  63.4673643  23.7020183
  69.9862528  64.1167164  23.8457155  70.3153658  62.6546431  24.0578437
  67.4158287  68.6921358  20.8587718  68.3169079  69.0148354  20.8464909
  66.8999147  69.4342852  21.1738563  44.5548296  89.5917034  55.3356600
  44.0750933  88.7928677  55.5546236  44.2699194  90.2292442  55.9903383
  68.9200544 101.6765785  32.1353483  69.5358992 101.0334396  31.7841506
  69.1224670 101.7164612  33.0700517  73.9198065  59.2642164  38.5604000
  73.8026524  58.3197689  38.6629915  74.8054028  59.4321012  38.8825226
  52.1570969  69.4547176  31.6978168  51.4435768  69.0808535  32.2148705
  52.6100779  68.6956215  31.3306475  28.9273810  90.1587296  80.2698708
  28.9733243  91.1034489  80.4168987  27.9907131  89.9615383  80.2702904
  45.9107161  55.1438379  27.9888272  45.2334595  55.2138853  27.3160315
  45.6801128  54.3550396  28.4795928  90.9064198  63.8378334  73.1301880
  91.6472912  63.4204340  72.6907349  90.1855659  63.2166481  73.0266047
  94.9102974  48.0315256  22.1665907  94.4148540  47.2330332  21.9844437
  95.1579857  47.9547739  23.0879974  81.6605071  19.2019006  79.3271819
  82.0180181  18.3431979  79.1012434  80.7580040  19.0235635  79.5916001
  86.6190815  72.6513147   8.7140942  87.1904278  72.0769691   9.2239267
  85.7346725  72.4287987   9.0048522  67.8442097  71.8597889  48.5879898
  68.7578440  72.0660925  48.3906555  67.7027464  70.9987068  48.1945992
  56.2041283  61.3908720   7.6876450  56.1703920  62.3217773   7.4673969
  55.7945919  60.9531832   6.9413620  46.2544966  90.5454922  80.3154564
  46.2962770  89.9233532  81.0416985  45.5357313  90.2277660  79.7689533
  48.6015892  77.8836775  56.2742424  47.9101944  77.2250175  56.2081194
  49.3137932  77.5381756  55.7360697  77.4629402  96.2253571  32.6810002
  77.0220804  96.4518070  33.4998989  78.0160046  96.9827271  32.4893451
  67.2027636  63.6424208  50.2552605  67.5948048  63.3409643  51.0748100
  67.1141911  64.5890474  50.3660917  64.6795464  94.3464947  29.4734192
  64.2485905  95.1712418  29.6976900  65.3877211  94.2648506  30.1122093
  56.4462852  78.3934164  18.1180692  56.5111399  77.9970551  17.2492063
  55.9852600  79.2192459  17.9707861  72.4635839  62.5726795  14.7735298
  73.1839085  63.1570530  14.5371485  71.7752457  62.7721643  14.1389990
  70.8512163  94.6333218  46.9006205  71.7360592  94.8620415  46.6160631
  70.2823925  94.9705315  46.2085485  70.1158190  82.3995018  35.3011227
  69.2828178  82.8481293  35.1559520  70.0164366  81.5591717  34.8536873
  73.3818436  45.8699942  38.6376500  72.4731159  45.5699873  38.6586142
  73.8971567  45.0675440  38.5554838  69.5787716  91.8578243  48.7836027
  70.1765537  91.6980267  49.5139074  69.8843813  92.6795006  48.3993101
  63.5391617  95.6626701  36.2324262  63.7980318  95.7092762  37.1527767
  64.1334963  95.0178242  35.8488035  58.7934489  15.3796359  90.4556750
  58.4607215  16.2751885  90.3963708  58.6540599  15.0140019  89.5821101
  57.8465509  61.5779829  39.4529009  58.3803988  60.8459377  39.1441107
  58.0312157  62.2860956  38.8358879  91.7044449  67.9358196  13.1874919
  91.4906979  67.7964258  12.2649348  91.2572765  67.2250986  13.6469936
  48.1246758  65.0008202  20.8257222  47.1679926  65.0300932  20.8142090
  48.3360052  64.3312550  21.4762974  73.2679319  65.1580381  42.5842428
  72.9237938  65.1494503  41.6910887  73.3277607  64.2340040  42.8267622
  49.0548801  68.1540585  27.1995378  49.6846008  68.8690805  27.1077442
  48.2047749  68.5898495  27.2598720  47.2493930  35.5392571  84.5943299
  47.2952457  36.4710923  84.3802921  46.9917770  35.5175992  85.5159584
  43.8562727  95.8870316  11.6294706  43.9273691  96.1024761  10.6995451
  44.3655634  95.0826454  11.7285848  71.8203640  66.8609810  28.5942793
  71.8408871  67.7466583  28.2318091  71.0844564  66.8696642  29.2063212
 101.7711353  55.0083160  51.7555428 100.9585667  54.7288990  51.3337755
 101.4903927  55.6258488  52.4308729  88.1905270  68.8125467   5.3834200
  88.6794472  68.7226725   4.5654309  87.2777271  68.6683416   5.1339424
  54.6645546  82.2719383  33.2397032  54.5755339  81.3228416  33.1529307
  55.5092430  82.3946571  33.6729169  89.3176460  66.1123562  40.3700113
  88.8041878  66.0577917  41.1760044  88.9541435  65.4283237  39.8076963
  24.0034032  91.3513851   8.7899566  23.8607168  92.1669388   9.2703056
  24.1616249  91.6293240   7.8877681  64.7780704  98.8686275  19.3742323
  64.8193026  99.8239517  19.4177556  63.8680887  98.6783028  19.1463244
  55.1359653  88.6856174  74.9960184  54.9793959  89.6194458  74.8556709
  54.4835234  88.2484722  74.4487953  84.3346405  46.8200827  27.5432372
  83.4860325  46.3967752  27.4132013  84.1528797  47.5407553  28.1464195
  41.3014984  90.7059193  40.4952812  41.0472012  91.5638638  40.8351326
  42.1480036  90.8562946  40.0745058  47.1340704  51.1146021  10.3319049
  46.2669754  50.8332348  10.0399983  47.0531797  52.0616865  10.4446983
  82.7332687  73.1508446  22.2795963  82.7346420  74.0874481  22.0821095
  83.3795261  72.7786016  21.6795802  52.1131802  59.5436049  21.9535303
  52.5498390  59.0760088  22.6655102  52.4464178  60.4388094  22.0150781
  53.4164615   5.5833169  76.3309280  53.3045955   6.5256282  76.2053744
  54.0364165   5.5103036  77.0565752  44.2742252  75.4056263  58.8401699
  44.6609020  75.8836365  58.1065321  44.6728563  75.7967091  59.6175861
  70.9361887  75.1081944  20.6015325  70.0922298  75.4855204  20.8497047
  71.3879681  75.8146572  20.1399732  21.5531802  58.7512779  14.3520772
  22.5069737  58.7717676  14.2740202  21.2402940  58.6890078  13.4496045
  65.9401798  96.8798351  48.9121914  65.3127003  97.0329571  49.6186256
  66.1822462  95.9581661  49.0024424  80.5169487  71.5717793  22.0659661
  80.9938145  70.7452106  21.9910455  81.1867523  72.2143650  22.2998261
  50.8068085  93.9195156  13.0520689  51.1664104  93.1764889  12.5674748
  50.2778149  94.3914986  12.4089265  79.0636778  57.0370770  44.8383474
  78.7555075  56.3803720  45.4628468  78.6004448  57.8377151  45.0845671
  86.4854431  46.5299463  33.3772111  87.4367428  46.5755129  33.4730458
  86.1578751  46.4526796  34.2732906  94.5136166  50.8073616  40.0805712
  94.1064358  50.3172684  40.7948828  95.4491711  50.7920265  40.2823925
  69.5230055  91.7270565   4.4314134  68.9105606  91.3868237   3.7791994
  69.3233347  91.2343884   5.2274293  73.2469749  71.1146736  47.5071049
  73.0996752  71.3399220  46.5885162  73.9930058  70.5151939  47.4900532
  60.7139301  74.9475527  53.1828260  61.2540388  74.2128944  53.4740067
  61.3434458  75.6054354  52.8876400  71.8884516 104.6505642  15.4276896
  72.2714615 103.8024712  15.2034831  72.6418972 105.2190113  15.5871201
  55.3498554  66.6559458  23.4078145  55.6776381  66.2929106  22.5850177
  54.4077015  66.4884377  23.3850265  55.6440544  88.3277798  41.7772532
  55.2261543  89.0536308  42.2406340  56.5782976  88.5348320  41.8007040
  68.5104375   5.9800252  38.8282275  68.7217145   6.1679658  37.9137492
  69.3613248   5.9077271  39.2606568  98.8434887  80.1563263   1.2424231
  98.7029934  80.2817726   2.1809092  99.6308422  80.6647873   1.0480418
  90.6585598  48.6388731  49.0798569  91.5647793  48.6471224  49.3879557
  90.4759216  47.7171040  48.8976049  58.5698748  69.5412111  39.9331903
  57.9187155  70.1190519  40.3310966  58.0569267  68.9324236  39.4016862
  37.5530672  58.2584572   1.1799131  38.4586310  58.5675669   1.1546714
  37.3161912  58.1356573   0.2606514   1.0120288  75.5082846  30.0267529
   1.1209575  76.1041260  29.2855787   0.2016918  75.7952929  30.4477143
  83.3303547  68.0019617  12.6797664  83.5172939  67.8747892  11.7496514
  82.7774239  67.2574759  12.9169142  87.6775837  54.4695854  15.0500166
  87.3427963  54.0009737  14.2854583  86.9719791  55.0698471  15.2909362
  64.0159559  74.1645670  39.3494058  64.8919535  73.7970543  39.4668627
  63.9252996  74.2696047  38.4023142  20.0949569  40.9346505  63.7252096
  19.7340532  40.5231877  62.9399208  20.9080739  40.4582997  63.8930443
  53.3344460  88.2742786  46.4247274  52.8922462  87.9405022  45.6441593
  52.7827072  88.9979553  46.7215586  77.4524403  80.5736065  21.2192488
  77.2981787  79.8891211  21.8703365  77.5781584  81.3703918  21.7345691
  94.3101978  41.7812157  21.3725090  93.9827347  40.8940697  21.5207696
  94.7983551  41.9924498  22.1683145  55.8953147  15.8137616  25.3680348
  56.5853922  16.4544305  25.5399776  55.0991540  16.3375291  25.2784157
 109.9877262  83.2875061  51.8035269 109.1522026  83.5273838  52.2042656
 110.1937294  84.0198326  51.2225914  67.3418045  84.3429279  39.0305710
  66.7537022  84.7737503  39.6508574  67.3466873  83.4253025  39.3029308
   9.4679252  73.4165716  32.3750448  10.2330200  72.9542065  32.7172136
   9.5242778  74.2909241  32.7604914  76.8481255  70.5200911  36.5723610
  77.2056627  69.6329308  36.6090131  77.4563885  71.0451365  37.0925331
  59.2149973  57.2737741  34.7189975  59.1434765  57.2386122  35.6728745
  59.2023611  56.3570404  34.4439149  54.6761703  72.1570873  27.2177792
  54.4365215  71.7989254  28.0724835  54.2954159  73.0352736  27.2107887
  81.3550091  86.8909740  56.8579388  81.2925816  86.7083263  55.9204006
  81.0999393  86.0702419  57.2793436  72.0087814  79.7121668  38.9778686
  71.7585993  80.6302071  38.8737345  71.3294458  79.3411827  39.5409894
  64.4573832  62.1535873  36.9086123  63.6013031  62.1697903  37.3365045
  64.4510126  61.3487244  36.3905501  90.2451420  64.7173882  17.1329606
  90.0655937  64.3680286  18.0058551  90.6462002  63.9877176  16.6607726
  76.1976433  63.5620260   6.6659653  76.4466333  64.0234756   5.8651513
  75.2450657  63.4852648   6.6118425  76.7401600  74.3780851  14.0604472
  75.9457111  73.8829803  13.8605523  76.4272690  75.2573681  14.2730343
  39.3428469  50.6577301  16.3459015  39.1379213  49.9702168  15.7122099
  40.2941132  50.6170225  16.4442313  77.2030258  97.9351997   0.5417045
  76.7576027  97.1005058   0.3964058  76.4985323  98.5503292   0.7455110
  50.6091452  79.7799492  16.4885890  51.1253023  79.4445038  17.2215915
  50.2629089  80.6154919  16.8019962  57.2559023  62.9558039  28.6394811
  56.8007517  63.0807257  27.8067350  57.5748491  62.0539570  28.6051798
  55.5043077  72.3269272  20.8717465  56.4504194  72.4600029  20.8134604
  55.4070568  71.5095043  21.3602090  67.6748943  81.8029404  75.3085518
  67.5605631  81.7648029  76.2581348  67.8876734  82.7188587  75.1295185
  77.0865679  82.0457458  30.6667471  77.1924686  82.9966640  30.6945968
  76.3320637  81.8721867  31.2296271  81.3540077  69.9275303   2.8559166
  80.9497166  70.7189417   3.2115126  81.6217041  70.1725721   1.9701825
  10.8785621  47.9482126  50.9830999  11.6818038  48.4462023  51.1348724
  11.1179439  47.0422220  51.1782980  78.2627773  86.7646694  32.1605992
  78.1572914  86.3706017  33.0265164  77.7764463  87.5875759  32.2110915
  88.5050583  81.5722752  61.5442657  88.9898968  81.6967010  62.3601580
  89.1484261  81.2075520  60.9365797  75.3456783  52.9678631  23.7803912
  75.8496857  53.5835314  23.2482624  74.6900892  53.5106850  24.2183185
  87.6618481  62.7447557  63.3551264  87.6725483  62.9469919  62.4195957
  86.8035126  63.0439711  63.6550474  84.2728996  92.1785545  12.1543562
  84.4248962  91.7570019  13.0001831  83.5998154  91.6413307  11.7365146
  68.8789511  93.8144588  35.6540418  68.3335447  93.0409813  35.5108476
  68.2561636  94.5124340  35.8570218 102.8512764  67.8386593  18.1098747
 103.2060719  68.5149860  18.6868811 103.6142063  67.4977684  17.6430011
  87.3213673  45.7599688  27.9035354  86.4797878  46.2104607  27.9745340
  87.9413795  46.4475965  27.6606846  92.0882893  70.2281427  16.4061236
  92.1680832  70.5667734  17.2978592  91.8782139  70.9968853  15.8758998
  53.1883717  46.3979912  27.6306081  53.1918430  45.9817171  28.4925461
  52.3491240  46.8564606  27.5894213  76.1982012  76.4484072  45.0410032
  75.9611797  77.3150587  45.3711081  76.6635942  76.6227531  44.2229319
  72.8145361  72.8931522  35.7483959  71.9333410  73.0277205  35.3996491
  73.0238342  71.9857788  35.5268121  64.7010565  60.2417755  32.0814824
  65.1384068  59.8715973  32.8482437  63.7686110  60.1028728  32.2472787
  74.6336842  51.9367504  47.2832537  74.3271923  52.1813917  46.4100695
  74.0518570  51.2252903  47.5507069  61.8120146  74.0747499  44.7667456
  62.7410698  74.1536856  44.5502901  61.4191246  73.6716509  43.9925480
  13.6282487  61.3075562  85.0478653  13.5337014  60.4743215  84.5863215
  13.1862827  61.9440957  84.4859818  42.5410043  96.2884628  76.0839621
  42.6380556  95.4072678  75.7229785  41.7348688  96.2490379  76.5985719
  83.5060120  79.0803003  80.6886482  83.9139366  78.2260942  80.8306217
  83.7410545  79.5898342  81.4641190  15.0148769  40.2615186  87.8772948
  14.2056318  39.7655602  88.0013186  15.6402297  39.8531075  88.4759316
  73.7046766  45.4934931   9.5346373  74.0834713  46.1254263   8.9235651
  72.7802467  45.7360697   9.5876378  54.1009474  94.3229389  38.1573796
  54.5365191  94.1929817  38.9997697  54.2060041  95.2567005  37.9749537
  73.1785774  61.8293428  39.9137282  73.5753965  61.9229412  40.7797527
  73.6094189  61.0633802  39.5343733  62.1715546  76.1365557  31.6048098
  61.3726091  75.6577063  31.8253183  62.7297735  75.4870796  31.1772633
  79.0378237  74.2639828  57.0405436  79.4398451  74.9312687  57.5967264
  78.5051727  74.7596931  56.4186192  45.5270910  69.6767712  31.0862970
  46.3738823  69.2831898  31.2966943  45.1302481  69.0709114  30.4604554
  92.4078560  57.7534866  30.1911736  93.1886864  57.9018593  29.6577692
  92.7163696  57.2213459  30.9245753  48.3623409  67.0711708  23.3251047
  47.6138496  67.6677752  23.3175826  48.2109547  66.4875937  22.5816321
  92.6524353  74.9577665  24.9278116  92.2215176  74.4657803  24.2288923
  91.9327545  75.3260851  25.4402876   1.5301224  28.3602818  12.1932745
   1.8249985  28.6884984  13.0427146   0.7930037  27.7860936  12.4011278
  67.9245377  77.9535770  34.4087505  67.3291492  77.6446724  35.0916290
  67.3482227  78.2948065  33.7248993  59.2869902  81.5032482  42.1198654
  59.2977571  80.8537102  42.8228712  58.3723497  81.7797661  42.0632505
  52.0282602  65.7255554  17.5331283  52.1338224  65.6337070  18.4800458
  51.2798500  65.1680231  17.3203683  75.6028080  75.8066225  38.2122183
  74.9897385  75.2290821  37.7574396  75.0505066  76.4879322  38.5956407
  70.8777618  74.2152262   9.6762615  70.4876661  74.3896151   8.8197315
  71.0342789  75.0827503  10.0492704  83.1350994  73.7637568   9.7018945
  83.3766174  72.9556465   9.2492861  82.1799374  73.7319231   9.7555619
  75.3671646  86.7601299  55.6352234  75.0202227  86.1322498  56.2689638
  75.3267860  86.3008785  54.7963619  90.8788872  62.3420048  15.9538007
  90.1214886  61.7851925  15.7734287  91.1969852  62.6011944  15.0890064
  63.6524916  66.2105608  23.9819765  63.0515385  66.9554520  23.9669561
  64.4925785  66.5749168  23.7031817  69.0056896  84.7446442  27.9580116
  68.5319519  85.5703831  27.8582096  69.3029976  84.7475433  28.8678646
  68.6546426  14.8672780  24.5902944  67.7273969  14.7968491  24.8171973
  68.8049774  14.1519936  23.9722347  58.4304571 101.0563183  42.3195028
  59.3246031 101.2263680  42.0231628  57.8766632 101.4972401  41.6751957
  83.0156612  97.1619606  67.6160049  83.6583042  97.8626251  67.7269411
  83.5241795  96.3552475  67.6987648 110.7966423  68.2806587  58.2879400
 111.4371300  68.9002895  57.9385662 110.0380516  68.3694744  57.7109861
  79.0378428  77.1085596  34.0619659  78.2338333  76.8476629  34.5111132
  78.7567711  77.3215294  33.1720924  82.8692150  56.1129141  46.2217665
  82.0998669  55.6053066  45.9635448  83.0114460  56.7189074  45.4945993
  86.2119961 102.3640347   8.3660567  87.1681595 102.3955345   8.3344549
  85.9541225 102.0456409   7.5009787  71.1009264  53.9318323  20.6394887
  72.0298481  53.7701607  20.4745650  71.0916901  54.5611620  21.3606620
  72.3585081  60.8712339   6.1752909  71.6306973  61.4785290   6.3083899
  73.1422329  61.4137173   6.2631702  81.3942909  81.1492729  39.4154549
  81.9369793  80.3639603  39.3447018  81.6836929  81.5681648  40.2260160
  55.7492876  91.2775421  10.0483763  56.4652109  91.4332008   9.4323772
  54.9550152  91.4150143   9.5321757  38.9042258  85.8905792  33.5168195
  39.8503590  85.7869816  33.4151864  38.5419989  85.6245041  32.6716995
  72.5396538  60.6528616  36.4751625  72.9607105  60.3503609  37.2797966
  72.6415968  59.9241543  35.8629346 107.0357184  -0.1860992  38.7979770
 106.9394975   0.5227765  39.4339561 107.9813819  -0.3139011  38.7230206
  76.4081621  62.7719307  11.6285574  76.9253969  62.0997143  12.0722032
  76.9576263  63.0528641  10.8968508 104.3179607  43.6257267  60.3190279
 103.9025497  42.8812504  60.7542467 104.9326897  43.2296133  59.7014189
  12.8370181  64.1523790  28.1932592  12.5680534  64.5933962  28.9991093
  12.9357425  64.8589039  27.5550508  88.1623840  78.9784145  47.6033831
  88.3257675  79.3658733  48.4632730  88.5731792  78.1149864  47.6477671
  32.4963852  30.5603990  23.7039733  32.9592606  30.5913648  24.5412421
  32.2112366  29.6503934  23.6214471 106.7406182   2.6050385  34.6772623
 106.9823127   2.2629746  33.8165617 106.5995602   1.8251141  35.2139759
  59.5242739  86.9539928  52.2687149  58.6755371  86.6964531  51.9087839
  59.4842815  87.9091644  52.3165321  86.0475254  68.1097412  13.1922710
  86.4984226  67.3069572  13.4539306  85.3752995  67.8171682  12.5768483
  86.8276310  96.8980885  31.2587762  86.4076614  96.0972214  31.5725636
  87.4952984  97.0920181  31.9166899  89.9583626  90.4339314  11.2325621
  89.4348621  90.4677296  10.4319096  89.4477654  90.9284687  11.8736255
  33.7596984  22.1900292  88.7211949  32.8860469  22.5613614  88.8440013
  34.3544669  22.8614589  89.0553615 103.8235092  87.2480679  40.7875061
 104.5314026  87.3077869  40.1459837 104.2246056  87.5204659  41.6128254
  75.2668810  95.4474831  35.9273624  74.8878956  96.3263798  35.9397411
  75.4318285  95.2447891  36.8481994  90.0607204  88.8129520  26.6697454
  90.7584572  89.4680405  26.6858983  90.3391933  88.1507874  27.3023796
  88.5233402  77.1473122   8.5017294  87.9774570  77.8543139   8.1576401
  88.4395313  77.2210121   9.4524008  82.3889446  58.0379581   7.7785534
  81.7543316  57.3399067   7.9404736  82.3040009  58.6189604   8.5344976
  57.7877712  89.1450119  10.2385533  56.9344664  89.4510365  10.5458963
  57.9006958  88.2912064  10.6562710 106.5243583   4.2632588  54.9710178
 105.7023053   4.0665635  54.5218277 107.1814828   3.7460050  54.5053196
 107.2638035 103.0827332   2.9020217 107.3131561 102.1872997   3.2366914
 107.6944065 103.6130905   3.5724944 107.1433978   8.6615762   9.9056351
 108.0244212   8.3292970  10.0777280 107.1392731   8.8551053   8.9682126
  55.4652596  81.7566204  48.2874727  56.1549854  81.1385727  48.5293961
  55.5536222  81.8550968  47.3394632  68.7733836  72.0427152  84.0665886
  68.9613910  72.5069448  83.2508824  68.2442565  71.2915631  83.7982032
   9.7944538  55.9061098   5.8244532   8.9506809  55.7181168   6.2354797
   9.5685855  56.3366508   4.9999234  89.4680214  69.0256691  41.6503811
  89.8777962  68.1644011  41.5694809  89.2529202  69.1021967  42.5799513
  66.2523270  85.5024052  24.7262692  67.1815348  85.6295586  24.5348573
  66.2188005  85.3707314  25.6737757  32.6568505  14.4212350  13.4589732
  32.1254441  13.9355573  14.0898037  33.3336922  14.8416623  13.9894068
 108.8526254  13.7007531   9.2642552 109.3528943  13.1549653   8.6575556
 108.6740165  13.1280049  10.0101030  64.6805525  87.1240139  37.5050902
  64.2497253  87.3071384  38.3400059  64.0396786  87.3830986  36.8429780
  16.8291374   9.7879704  53.4130955  17.0682141   8.9269360  53.7561798
  17.6083943  10.0828465  52.9418898  88.3538437  97.9918385  29.0120697
  89.0499306  97.3520470  28.8625956  87.9495525  97.7179718  29.8353434
  66.6620255  73.9796066  39.3265986  67.1284294  73.3233547  39.8443151
  66.9587946  73.8315153  38.4286952  55.1981211  94.9580097  16.7380655
  55.6580734  94.2078018  16.3614142  55.8916950  95.5833435  16.9481874
 110.7164192  70.3047466   7.2544205 111.3801384  69.7074556   6.9095129
 111.1699963  71.1433315   7.3397267  24.3000455  65.8230325  80.5214134
  25.0627322  66.3866826  80.3916589  24.0120263  65.6021234  79.6357075
  71.5936041  75.5117369  70.6742907  72.2417831  75.1330376  70.0804234
  70.9080124  75.8484030  70.0973606  61.9528480  65.7633611  76.9317070
  62.3010726  64.8776647  76.8290774  61.6136546  65.7851621  77.8265277
  77.7433062  82.8717804  72.6983070  78.1374693  83.7027454  72.4330378
  77.5296640  82.4341583  71.8742466  90.2563858  94.2252541  57.0678616
  89.3309212  94.4476795  57.1691799  90.6224823  94.3170738  57.9475021
  55.9906387  63.9937496   7.2943163  56.6031837  64.4334221   6.7046481
  55.4528904  64.7005033   7.6514745  48.2993937  84.2706108  49.8502111
  48.8605261  83.7823296  49.2477608  47.9574585  83.6074162  50.4497910
  80.3536701  79.3806267   7.1519655  80.7462692  79.4676876   8.0205935
  81.0954475  79.4232321   6.5484911  55.4529905  94.8612881   7.6368606
  56.2324858  94.6051407   8.1298155  55.6127930  94.5369625   6.7505711
   2.4218360  84.4198704  68.5852146   2.6094142  85.2990341  68.2564068
   2.6752941  83.8372612  67.8692865  72.2260237  88.8340378  74.1911125
  71.3188696  88.8496876  74.4961643  72.1667051  89.0183735  73.2537079
  60.3462934  75.0735760  65.0160742  60.3645277  74.2543077  64.5213985
  60.3000927  75.7564354  64.3468952  73.0238867  85.1622772  22.7450275
  72.7088547  85.8858776  23.2866836  73.4442997  84.5652199  23.3639002
  52.4980307  88.2507801  22.9306674  53.1472588  87.9349232  22.3021984
  52.2928619  87.4856758  23.4680319  72.2748947  90.1263428  34.8560119
  73.0004930  90.5657578  34.4125509  72.3033476  90.4618931  35.7520223
  63.7126923  73.7180233  29.5662355  62.9175854  73.6914492  29.0339446
  64.2633915  74.3757200  29.1415048 110.2248859  99.8610020  32.8354430
 109.7756481  99.4711494  33.5854006 109.7534943 100.6778812  32.6720071
 109.6812062  31.6317662  23.6316586 109.9831157  31.0087880  24.2927027
 109.7516732  31.1558541  22.8041482  82.6292610  82.0137787  36.7200208
  81.9361687  81.8787670  37.3662567  83.1947613  82.6798534  37.1109128
  44.3144985   0.3705605  30.5142736  43.4579369   0.3224763  30.0897431
  44.2664238   1.1536607  31.0626101  59.4144440  81.5521526  23.2897568
  59.1340923  80.9657192  23.9924169  60.0457287  81.0380840  22.7863193
  67.1818304  80.5506325  36.7080307  66.8890858  80.4060078  37.6078176
  67.6522732  79.7495222  36.4775276  85.4289913  86.0939789  43.2170630
  84.6922874  85.5484581  42.9415846  86.0192013  86.0977268  42.4634886
  89.9872112  86.9564247  36.6891479  89.8001480  87.1817875  35.7778573
  90.4510975  86.1206532  36.6388202  63.5580826  84.6093273  14.4507849
  63.8921261  85.4335785  14.0968680  63.4110832  84.7894478  15.3793204
  57.5725889  89.4942760  20.4639864  58.1463099  88.8713074  20.0179172
  58.0999613  89.8284340  21.1895561  27.7040473  95.0742817  10.3243268
  28.0082885  95.7378674   9.7051835  28.5064975  94.6823788  10.6688917
  70.5422588  20.2045699  75.3900794  70.4300304  19.6324559  76.1492351
  70.9908099  19.6594878  74.7436134  67.8762527  44.3104669  83.7183938
  68.4200568  44.2165204  82.9362915  67.4085231  45.1352426  83.5872409
  71.1905861  69.1617060  44.2033243  71.3350916  69.0313482  45.1405287
  71.3715410  68.3071280  43.8119364  82.1424961  69.4643259  21.6409206
  81.8581009  68.5611916  21.5005636  82.7381516  69.4144201  22.3885393
  93.7286091  75.8761311  36.9782186  94.6270370  75.5481339  36.9399405
  93.7970257  76.7078066  37.4471188  37.3451567 102.7768993  35.8829093
  36.8499446 102.0079803  35.6004763  38.0244017 102.4260330  36.4588881
  96.4503479  43.1352186  23.7516546  95.7580757  43.0483675  24.4069743
  97.2635651  43.0610228  24.2510557  75.3835674  41.3498517  88.0618805
  74.4447513  41.1655160  88.0322010  75.5715842  41.4864560  88.9904368
  64.6250725  96.9324684  51.2759304  64.3652916  96.3277912  51.9709969
  65.2911949  97.4890804  51.6792822  65.0558996  62.6672697  26.7966175
  64.7425890  62.3057318  27.6256895  65.3759289  61.9077635  26.3098288
  53.7946177  85.8377457  36.4153147  54.5854378  85.4181862  36.7541552
  53.0972576  85.2032375  36.5806198  70.6866355  20.3246137  63.4247664
  69.8971458  20.8649894  63.4554342  70.6941791  19.8637553  64.2636851
  86.5671635  91.3109875   5.0706363  86.5166759  90.7895756   5.8717686
  87.3570156  90.9974098   4.6301490  82.1984386  85.2361584  64.9629831
  82.8522301  85.0235939  64.2969418  82.6847649  85.2273464  65.7873869
 102.4448490  73.0854511  32.8944707 103.0228519  72.5743151  32.3280048
 102.8680325  73.0613899  33.7527061  82.4454594  68.6015224  33.3000970
  81.9852066  69.4405127  33.3222508  82.2665024  68.2531548  32.4266887
  38.8135476  26.8696805  84.0248690  39.1832156  27.4833175  83.3900223
  38.1845660  26.3534518  83.5207651  71.7019701  86.0190964  16.4809608
  71.1247778  86.5792847  15.9620500  71.6136694  86.3476372  17.3756659
  55.9486961  79.3926334  25.6438351  56.5400887  79.7882366  25.0035381
  56.3412285  79.5991850  26.4920592  54.5221806  71.5789509  32.0833349
  54.0809059  72.0185041  32.8101778  53.9462519  70.8475780  31.8605518
  14.7184845   8.6014375   5.4129231  13.8542267   8.5223016   5.0091410
  14.8212429   7.7953252   5.9187478 108.3633900  36.5669751  62.8914022
 109.3126488  36.5386176  62.7716923 108.0075645  36.2585163  62.0580482
  64.4060183  91.8868923   4.2684096  63.5717392  92.3168945   4.0805045
  64.7558451  91.6563606   3.4077644  89.4345856  89.7537041  40.5336332
  89.2958736  89.4113159  39.6505928  89.5215893  88.9739418  41.0819340
 111.0554843   6.0269364  26.9818926 111.4877419   5.6569489  27.7516270
 110.1817756   5.6359872  26.9867778  26.6830392  38.6295815  74.2154459
  26.3868089  38.4423848  73.3246950  26.5052791  39.5623895  74.3359069
  10.0351421  77.5869036  49.6916628  10.3431980  77.1848965  50.5038977
  10.7328025  78.1942511  49.4454098  92.3218918  75.5804682  14.9534190
  92.7507877  74.7913408  15.2844083  92.5119019  75.5807686  14.0152681
  44.4261122  96.4654064  37.4360561  45.0735378  96.4610672  36.7310357
  44.6555567  97.2279263  37.9672456  80.9984207  91.1554241  52.9875422
  80.6179237  90.7973480  52.1855259  81.6852570  90.5326748  53.2255840
 107.7867222  95.9406662  36.7951226 107.4994278  96.7031860  37.2973776
 108.3519745  96.3025093  36.1126351  78.5298777  81.7856693  68.4251165
  78.1988096  82.5421429  67.9409933  79.4732666  81.7918682  68.2632351
  97.5881004  92.5334072  31.7576957  97.9850864  91.7925358  31.2997293
  98.2905579  93.1806278  31.8201756  83.5293102  98.6549568  48.7793875
  82.7322769  98.9686108  48.3520842  83.4057045  97.7085304  48.8517618
  14.7913734  87.6426220  44.2060900  14.4729225  88.0630493  43.4073019
  14.7785751  88.3377171  44.8640490  92.2012234  94.3469715  67.0735979
  91.7171288  93.5526657  67.2993374  92.8715134  94.0519333  66.4572382
  95.6144142 103.1238174   6.5925294  94.6748734 103.2838631   6.5037501
  95.8350945 103.4671307   7.4583626  81.3561726  76.5225029  16.3589346
  80.9836197  76.4808130  15.4781985  81.5903282  77.4431276  16.4766145
 101.1343670  69.0868759  22.1868205 100.4184532  69.4346809  21.6550946
 101.3411045  69.7916555  22.8006387  56.8589497  58.4291410   9.2781013
  56.4789152  59.1653872   8.7987792  57.7166653  58.2974672   8.8741064
  73.5835838  42.7454233  23.8684320  73.3993244  41.8090010  23.9418840
  73.0825567  43.0288458  23.1036615 103.4961128  73.0761862  13.6564386
 103.8818741  72.4125195  13.0846310 103.6278725  72.7358150  14.5413208
  83.9133930  84.0497112  29.7623944  83.4331131  84.5755482  29.1228199
  84.8003864  84.4093418  29.7504616  61.5884304  94.1971016  17.6526499
  62.2630119  94.1699600  18.3312035  61.2700653  95.0996876  17.6673973
  64.7349977  90.0230408  30.1782227  63.8325977  89.8375607  30.4380345
  65.0999498  90.5143833  30.9141755 104.7966866  22.9069528  32.1175122
 105.5596642  22.4298581  32.4438190 105.1649670  23.6559495  31.6488934
  20.0480548  69.0850163  66.5603065  19.4458763  68.6524057  67.1656656
  20.9189598  68.8700056  66.8942642  90.7503991  12.6353654  54.0550756
  91.5728812  12.1459493  54.0700388  90.7500367  13.1282720  54.8756075
  34.0111157   9.2850789  21.0540462  33.0905529   9.3254861  21.3132238
  34.4948479   9.3503865  21.8774343  54.5303535  90.9926987  23.8582182
  53.5823965  90.8834934  23.9336038  54.7512341  91.6382027  24.5296121
  78.3161259  75.7434177  65.9696388  77.9886770  75.0656986  66.5609932
  78.6898279  76.4070559  66.5494394   1.7954914  76.1406183  40.8035612
   2.3168270  76.7499399  40.2809000   2.3884002  75.8523417  41.4975262
  97.4744987  97.0607662  50.8585739  96.9042206  96.8101692  51.5853643
  98.3208752  96.6677856  51.0717487  72.8953409  65.7339907  34.6667576
  73.6169195  66.1150980  34.1664433  72.1141863  65.9346819  34.1512442
 101.5197945  77.2076225  50.3210545 101.0166359  76.4185810  50.5222273
 101.6893673  77.1503067  49.3807411  98.8629627 102.7362251  17.1133459
  98.7025833 101.7965508  17.0266068  98.7304878 102.9169083  18.0439568
  56.8600269  32.7364179  83.8048348  57.4068637  33.4860917  84.0397898
  56.2209792  32.6742478  84.5147554  69.9455595  76.2232590  33.5323119
  70.4374790  76.9882727  33.8306427  69.0413809  76.5305138  33.4668374
  97.1145821  75.8720827  54.1637993  97.6478291  76.5145159  53.6956501
  96.8305874  75.2577209  53.4869432  20.6457039  20.9118947  24.5951819
  20.3891083  20.2783879  23.9250588  21.1542507  20.4013451  25.2252173
  41.9950104 103.5747051  41.8940783  41.3784027 103.7239647  42.6108360
  42.0896673 102.6230431  41.8538284 108.3102279   2.7618607  62.2194004
 107.7006631   2.0531281  62.0136070 109.1598754   2.4429521  61.9150591
  93.7891011   2.0966348  30.4020476  94.4968514   2.5599297  29.9540782
  93.4243111   2.7432641  31.0062337  81.8929005  77.3722744  37.9497004
  81.9813156  77.1170425  38.8679981  82.7801514  77.3070478  37.5964856
  89.8864746  69.5547533  26.7279291  90.0207329  68.7510586  27.2302008
  89.5261478  69.2576456  25.8923912  11.9885918  17.0114240  41.8173265
  12.5438400  17.5051125  42.4208117  11.3461014  16.5805444  42.3810577
  72.7136135  75.0684690  47.1217012  72.0053625  75.5504370  47.5486898
  72.3017645  74.6640635  46.3581133  52.7502775  83.7793732  47.9080725
  53.1765223  84.6189594  48.0802202  52.8372288  83.6559677  46.9628525
  87.4762254   6.0117635  42.5461674  86.7585187   6.1907586  43.1536913
  87.8861384   6.8646153  42.4017715 109.0268421  65.2784777  32.7174425
 109.0752792  64.5773649  33.3673096 108.2789803  65.8088112  32.9925585
  25.7720370  31.9384881  83.9972452  25.2969070  31.8780633  84.8259989
  26.5258069  32.4949189  84.1933236  86.6300011  53.5792494  19.6964765
  87.0505333  53.0712605  20.3902578  86.7385960  54.4907951  19.9676347
  71.3834906  88.8282776  19.3116748  70.5422449  89.2399502  19.1140282
  72.0328426  89.5028305  19.1128075 110.9372616  57.8138685  35.8626771
 111.1402035  57.1299267  36.5008545 109.9894905  57.7553320  35.7420969
   9.8132035  16.1361798  31.7311811  10.4051872  15.3920945  31.6210794
   8.9453503  15.7413300  31.8157697  57.5804234 100.3415680  46.6937017
  58.0534267 100.0175285  45.9272194  56.6914177 100.5010891  46.3767624
   1.7917725   0.9117993  21.7991424   2.2497269   0.0946053  21.6024017
   1.9031712   1.4443692  21.0116220 110.8299541  94.9482059  29.0663600
 111.6041374  94.8191261  28.5184455 110.3705120  94.1091251  29.0332842
  62.3711205  70.8144665  31.4505124  61.7598104  70.7325649  32.1825123
  63.1861401  70.4315710  31.7751122  46.4583206  87.7766418  66.1605024
  47.0821381  88.2010078  66.7495680  46.3964319  86.8779755  66.4842510
  87.3084450  73.6749792  13.4708238  87.5803280  73.8090420  14.3787527
  86.7581272  72.8922892  13.4986794  70.2798271  68.8264370  21.3790083
  70.6277037  69.6081734  21.8080735  70.5839634  68.8945627  20.4739714
  86.3223653   6.1299237  13.9129221  86.7521386   5.2748879  13.9342511
  85.7876258   6.1094769  13.1192791  97.8676891  45.2785969   6.6892678
  98.1555843  44.3949938   6.9185901  97.7622986  45.7221556   7.5309217
  82.3570251  80.8892441  87.3342609  82.0825386  81.5597820  87.9597664
  83.1706429  80.5405807  87.6985264  74.8183203 101.4391327   1.0279746
  74.9553728 101.0807323   1.9049016  74.1148520 100.9054947   0.6583849
  38.7323070  86.4696026  39.1157770  37.8139305  86.4118195  38.8521981
  39.1741228  85.8005905  38.5928464  59.7939730  79.5727921  51.5403843
  59.3932629  80.4292011  51.3912678  60.5620432  79.7585201  52.0805693
  80.6723309  96.2916470  41.7505741  81.5905380  96.2733364  42.0203781
  80.6190300  97.0199013  41.1316776  29.8587033  19.3060693  41.6086769
  29.3246933  20.0811490  41.7827892  30.5691620  19.3561181  42.2481871
   0.3951923  88.8799858  37.4633646  -0.4925831  88.5706997  37.6434517
   0.3993026  89.7871971  37.7686334  79.5178461  69.6875477  58.3665562
  79.8601007  69.9887562  57.5249100  78.5712194  69.8120832  58.2985783
  87.6071644  97.9002285  16.8494296  86.8330479  97.3892117  17.0857441
  87.2832489  98.5520649  16.2277973  94.6317482  51.1238241  12.7724254
  95.1184559  51.3170099  13.5736907  94.7734833  51.8894053  12.2156239
  13.0138584   5.3047856  12.5201666  13.6189743   5.5983075  11.8390584
  13.0660340   4.3494424  12.4914157  55.7447577  69.7210312  49.7930670
  55.4374981  69.9604511  50.6674290  55.0743818  70.0631142  49.2016172
  92.4053669  97.3547459  47.9924774  91.9823360  96.7937374  48.6425209
  92.4054337  98.2250595  48.3909416 105.3542995  77.6852655  42.2927856
 105.8985043  78.2252216  42.8659534 105.0988579  78.2729387  41.5817165
  86.2316990  91.5395546  48.7472773  85.9488297  92.4491310  48.8414907
  85.9963417  91.3073540  47.8489876  43.4887687  91.8168831  57.3680162
  43.4803287  92.5325871  56.7324591  44.1041747  92.1031761  58.0429602
  94.3479061 103.7742996  41.3956833  94.9113941 104.5452213  41.4620686
  94.6603775 103.1890965  42.0857000  83.0264568  85.9580517  24.9112535
  82.3711491  86.5594578  24.5575356  83.5701466  86.5035629  25.4796314
  60.6183144   5.3055486  23.2953644  60.6897064   4.8314103  24.1238117
  60.0710865   6.0638341  23.4997702  75.8934975  95.2280807  46.8969488
  75.3924990  94.6249962  47.4460602  76.6777468  94.7358227  46.6543245
  52.7401252  50.1088830  84.3238774  51.8021484  49.9180051  84.3215147
  52.8430362  50.8121892  83.6827884  79.3407488  96.0483170  49.7538710
  80.2661514  96.2557697  49.6241522  79.2971230  95.0946140  49.6848059
  74.4739294  84.6167660  57.2935581  74.6721220  84.9997520  58.1481171
  74.6240139  83.6787128  57.4108839   6.1080160 102.1676981  85.8986259
   6.6376009 102.2860348  86.6871441   6.0307970 101.2185061  85.8021859
  17.1922394   0.9638699  74.6713114  16.5851589   0.5017384  74.0932751
  18.0575463   0.7814702  74.3049717  52.3088741  68.6030531  27.1207404
  51.9107771  69.3482876  26.6708779  53.1570864  68.4896517  26.6918969
  71.4114094  69.5754910  41.3945723  70.8779144  69.9850130  40.7134628
  71.0916042  69.9580145  42.2116566  86.4352608  80.3073120   3.1939712
  85.7074451  79.6862411   3.2221550  86.5365410  80.5156136   2.2652179
  91.6638756  80.7224846  13.3730578  92.0414066  79.8619223  13.1910241
  91.7763615  81.2107563  12.5574839  85.0322819  99.7886276  59.6878910
  85.8309841 100.2076817  59.3674231  84.3408298 100.1222134  59.1161823
  90.5212693  12.4198445  39.7433734  89.9043326  12.7158555  39.0740442
  90.9071259  11.6236409  39.3781209 104.1208649  98.5179615  48.3186722
 104.5509243  99.3529129  48.1338882 103.3450794  98.7553883  48.8266277
  84.3453121  66.8894148  30.4742551  84.6561337  66.6899204  29.5911789
  84.9930000  67.5015593  30.8235550  43.7580729  92.0956612  39.8363447
  44.5134878  92.3895931  40.3454447  43.7365818  92.6815128  39.0796685
  68.6894846  80.5877113   6.0804945  68.9185286  81.4583302   6.4057702
  69.3291140  80.0038052   6.4881229  75.4951859  76.9977713  12.2617877
  76.2752295  76.6337633  11.8431449  75.8060360  77.7901697  12.6996303
  85.2342129  68.9528084  21.3092995  85.4381943  68.3407068  20.6022239
  84.7910595  68.4184265  21.9683003  49.3400288  96.8012428  50.9694195
  50.2879429  96.9341373  50.9631920  49.0594864  97.1174335  51.8282270
  47.7986236  21.2013169  61.3254026  47.3008437  21.2848588  62.1387104
  47.1693511  21.4148112  60.6364421  99.1995004  24.6683379  74.3158225
  99.9374703  24.1532775  74.6419278  99.1448787  25.4137870  74.9137846
  92.5017548  54.1308308  30.2041245  92.3587227  53.2648230  30.5859709
  92.0067215  54.1161489  29.3849993  78.2064629 103.2944679  27.5426459
  78.7410879 103.2017708  28.3311987  78.4494066 102.5449562  26.9990921
  89.7319126  80.3435993  25.0897837  89.2347145  80.5484581  25.8816504
  90.6272984  80.2047443  25.3983879  56.7546225  89.8516083  49.5836687
  57.0596647  90.5706215  50.1370192  55.8394098  90.0628853  49.3993473
  60.2628851  62.4626923  12.1406281  60.9742546  62.2459459  12.7432919
  59.9394608  61.6145229  11.8369305  77.4929047  99.6149158  27.5745964
  78.0214548 100.1678658  26.9991684  76.6758919  99.4812584  27.0941210
  69.6809340  82.2819233  31.8661475  69.2228794  83.0228519  32.2629380
  69.4623184  81.5372849  32.4264646  59.9597168  86.9007874  67.8085566
  59.4090033  87.5542450  68.2397699  60.8398390  87.2763920  67.8317451
  48.6141634  88.3508205  22.7737713  48.8976431  88.1445789  21.8830776
  47.6584816  88.3124733  22.7358866  77.9502964  82.7528667  22.9139495
  78.4433842  83.5071754  22.5912833  77.8958750  82.8891182  23.8598371
  30.6586885  83.8428974  41.0845041  30.4859686  84.7492027  40.8295107
  30.4347587  83.8089275  42.0145226  12.8493878  35.8115777  27.7033854
  12.8883930  36.5529832  27.0992112  12.3871609  35.1295766  27.2160959
  45.9194846  23.1222507  77.3326019  46.4017291  23.7069055  76.7479268
  46.1823745  23.3929797  78.2122759 108.2507376   2.4234589  45.2194452
 108.5363345   2.6554307  44.3357849 108.1624369   1.4705285  45.2001905
   9.3232723  13.6519536  14.9714530  10.1970288  13.9970597  14.7879159
   9.3990322  12.7111348  14.8122346  53.2002926  94.2532730  31.9778609
  52.4189186  94.7500324  32.2205877  53.5731125  94.7380066  31.2414670
  18.8896462  39.7195348  14.1101682  19.8447796  39.7141942  14.1726959
  18.6117359  40.3796491  14.7451890  94.7038269  61.5829754   2.0569174
  94.7739029  60.7813787   1.5384927  95.3915501  62.1523190   1.7117764
  29.3132539  20.1433011  63.7621955  30.0606675  20.6801148  63.4986905
  29.6653600  19.2552062  63.8217119  76.1078310  85.7500553  17.4817181
  75.6037617  86.3688564  16.9532967  75.5967426  85.6489468  18.2847106
  21.5337559   9.7022542  35.5138540  21.7410752   8.9109525  36.0109305
  20.7311913  10.0343999  35.9161019  80.4616161  24.9570533  85.7244143
  80.4637618  24.1248389  86.1973328  80.8204074  25.5880471  86.3483900
  71.7654037  95.2603531  21.3296819  71.5828228  95.2176189  22.2683358
  71.9640017  96.1823177  21.1660504 100.0428581 101.3191509  35.2102375
 100.4359341 100.8501530  35.9462810  99.1027260 101.1644650  35.3022623
  67.1933317  91.0969067  38.9817882  67.6066351  91.0581779  38.1192875
  67.8897095  90.8546066  39.5921803  69.1346455  77.1880150  11.8050694
  68.9631224  76.4173698  12.3462903  68.7328959  77.9121113  12.2851908
  69.2596865 102.6990509  48.3911991  69.1318798 103.6471367  48.4231758
  69.0071726 102.3938084  49.2625761  44.8173996  10.4450044  33.8320518
  44.4501301   9.5610627  33.8321757  44.0735909  11.0134324  34.0316939
  80.7629585  69.2040968  46.1523294  80.6531811  69.8278522  45.4346180
  79.9096298  68.7777710  46.2317657  51.9128466  75.0633907  39.3133497
  51.0082340  75.1735210  39.6062303  52.0969105  74.1338444  39.4486141
  10.0387565  86.3864708  46.5094995   9.3778793  86.3394356  45.8186626
   9.5838252  86.0877419  47.2969151  35.0907636  91.8396950  47.1555233
  35.2478075  90.9300613  47.4087524  34.7663879  91.7854881  46.2565947
  35.5794426  20.2518662  30.2027774  35.4290005  20.8041390  29.4355798
  35.8484646  19.4074830  29.8410130  47.0560547  25.8012971  57.9596090
  46.4098831  26.2914189  58.4680176  47.6471421  25.4321488  58.6157894
  74.1211891  77.9220343  56.5721273  73.5683680  78.6154842  56.9323254
  74.4793463  77.4777699  57.3406219  10.0543972   2.6720342  37.2531724
   9.8327347   1.7993077  36.9284344  11.0105988   2.6756486  37.2967219
  84.1708469  35.3101134  40.0143623  84.6929359  34.6971774  39.4967127
  83.4183311  34.7960043  40.3070164  22.2303096  98.9473343  24.8437905
  22.4937431  99.8662853  24.7951579  22.7844039  98.5049725  24.2007279
   6.8995086  97.0695686  29.5709634   7.4153415  96.4005661  29.1208744
   6.3050739  97.4053097  28.9000249 100.2094555  92.3621655  67.8675508
  99.9027729  93.0291557  68.4817982 100.2065945  91.5502548  68.3745193
   8.3297344   6.7673310   6.9762999   9.2627522   6.6855630   7.1738422
   7.9315087   5.9944638   7.3767006  82.5998974 100.3962898  31.1447215
  81.8280792 100.0689316  30.6828141  82.6919556  99.8147297  31.8993998
  18.1382175  56.7698785  85.5226914  19.0035005  57.0999642  85.7646809
  17.5405641  57.4870893  85.7340071  17.8829476  28.2300195  66.2414408
  17.9439350  29.0423211  65.7387638  18.5062023  28.3448991  66.9587851
  77.4587202  83.2714081  25.7218885  76.5811872  83.4978676  25.4138613
  77.3130703  82.8396511  26.5636778 105.8550072  79.0949202  14.4900584
 105.7707119  78.3048058  13.9563513 105.2244568  78.9729309  15.1998138
  12.4431320   4.6276482  56.7989969  11.9872185   5.4680642  56.8446398
  11.8223950   3.9981851  57.1660042 105.4259968  88.3888626  20.5112553
 105.4441738  87.4653339  20.7622290 104.7314072  88.4451103  19.8550427
 105.9002261   0.4708394  36.3740778 105.9366755   1.0645493  37.1240211
 105.7474713  -0.3921405  36.7589951   1.1330601   8.8227471  29.0735030
   0.5427405   8.4015855  29.6983004   1.9232460   8.2827577  29.0891457
  13.8302227  26.2231358  61.7956114  14.6208855  26.5312203  62.2385216
  13.4793278  27.0015344  61.3629389  17.3263165  12.6744851  26.4716744
  17.9450032  13.3991918  26.5625596  17.4317261  12.3816594  25.5664825
  10.5559822   5.8253678  40.4334116   9.7020241   5.6336221  40.8209896
  11.1805722   5.3544530  40.9850979  54.9794054  98.8816547  24.9858236
  54.7844219  99.7835445  25.2404022  55.9321356  98.8586903  24.8963499
  87.1110587   4.6058949  58.8879156  86.3435082   4.2310342  59.3198633
  87.7723651   4.6585378  59.5779419  66.8278265  98.4762573  55.3795958
  66.4460182  97.8475380  55.9921026  67.0387077  99.2383480  55.9190178
  95.5874729  85.5600739  21.4635396  95.8168793  86.2671566  20.8605218
  94.8114109  85.1562977  21.0750413   1.3809391   1.0379132  10.3755188
   2.2780558   1.2770852  10.1427031   1.0542103   0.5617913   9.6121162
  16.6534611   0.7196244  37.3072290  16.0994717   0.4642495  38.0448651
  16.9452664   1.6055306  37.5222874 102.4827246  30.4156693  66.5125656
 102.6393370  29.6620473  65.9435749 103.3433347  30.6243810  66.8759203
   3.4471694  92.4258804  22.5119853   3.0710021  93.2320690  22.8652501
   4.2167274  92.2617531  23.0570197  62.7255774  80.9360504  64.1511774
  62.2660923  81.7536068  63.9595461  62.7003670  80.4484749  63.3278513
  86.8861675  82.1713448  55.2306414  86.1093807  82.4133873  54.7264242
  87.3879528  82.9833412  55.3020811  99.2223454  92.6754189  55.3718185
  99.8201847  92.5366879  54.6372652  98.9540863  91.7941952  55.6320286
   9.3860909  18.0998906  29.4978189   8.5567185  17.9506215  29.0438461
   9.2023274  17.8795537  30.4110074  70.2454472  94.7480011  55.7658482
  69.8575735  95.6066895  55.5972242  70.8851051  94.9062824  56.4601278
  42.4179741   5.7681188  46.3307858  41.9156357   5.3212365  45.6494713
  43.3116051   5.4429253  46.2217093  90.4257202  82.9001141  84.7848415
  89.5436668  83.0040169  84.4278717  90.4113770  82.0443630  85.2134609
  99.4717598  64.3038368  23.4513879 100.1534176  64.0249395  24.0627718
  98.6571884  64.2224026  23.9474487  74.0735817  87.4648190  66.6246510
  74.0016747  86.5374374  66.8505383  73.2155800  87.8308487  66.8393421
  16.1593434  10.0547799  49.6296167  16.1657234   9.1045960  49.5141172
  15.9952637  10.1813611  50.5641174  85.8881283  67.2581577  39.1834950
  86.2561798  68.0378819  39.5991898  85.4577923  67.5878429  38.3946037
   4.9879066  99.8749065   6.0210812   5.1599971  99.5444489   6.9027913
   4.0558902 100.0929832   6.0247052  13.5307499   4.4389638  23.7182093
  13.6629387   4.6268758  24.6474290  12.9457852   5.1330193  23.4143448
  60.0996876  73.1503677  25.8437991  59.1930056  72.8462505  25.8846617
  60.4111385  73.0970764  26.7473435 103.3094745  23.8824376  34.9516892
 103.8088994  23.0742654  35.0686169 103.3131461  24.0315827  34.0061879
  93.1826305  68.5883713  34.9982595  93.4570312  69.2266703  35.6566739
  92.5045872  68.0716515  35.4335713  71.6724920  84.5845127  26.1427259
  71.1727619  84.4354057  26.9453883  71.1133909  84.2419529  25.4453754
  78.0192852 101.7543697   6.0639668  77.7661371 102.6584435   6.2504923
  78.1730127 101.3661194   6.9252837  96.8846226 103.0430317  32.1808577
  95.9496689 103.2282829  32.2689772  97.3101807 103.8901043  32.3135424
  95.2886581  87.4662971  23.7275696  95.5877686  86.7303276  23.1936097
  95.1752472  87.0964813  24.6031284  92.4330902  83.7217999  40.9337854
  91.5766811  83.3250141  40.7745600  92.5430393  83.6810684  41.8837738
  97.9003959   6.5081033  46.0232115  97.4836259   7.3313340  46.2778091
  97.7629905   6.4525136  45.0775576 101.8846703  81.5264606  21.8641877
 101.4479446  80.6859112  22.0019603 101.2206173  82.0760155  21.4479685
   0.9616844  74.4108152  62.7852964   0.4715816  73.8664007  62.1691418
   0.8940879  75.2964926  62.4285936  82.1375847  70.8467722  27.2757030
  82.9959488  70.5278111  27.5544620  82.2939873  71.2335253  26.4141965
  62.0791578 101.7149258  20.0168514  62.1528006 100.8180141  19.6907115
  61.1497641 101.9262981  19.9286485   3.0470649  84.2361355  75.5847073
   2.6759044  84.1925335  74.7034740   3.9880554  84.3400288  75.4433918
  91.5719986  70.5203485   9.4914687  91.2617779  70.4486084   8.5887790
  91.6140652  71.4623451   9.6561217  96.2084579  85.5289936  47.3089218
  96.0607052  85.7608318  48.2257938  95.7120228  86.1808300  46.8140554
 105.1477242 103.5452747  22.7585077 104.2039394 103.3891773  22.7922249
 105.2916336 104.2742252  23.3619547  53.9752289  18.7211427  22.0999551
  53.9495465  17.7775391  22.2586298  54.8311230  18.8734445  21.6993451
   8.1630226  11.8832215  53.8933706   8.3743950  11.2627992  53.1957817
   8.5686012  11.5106496  54.6762657  47.6656246  79.1959429  60.1444626
  47.1709156  79.4943285  60.9076548  47.1121931  79.4220495  59.3969202
  96.3388538  83.6974812  18.0404103  96.7051792  83.3977985  17.2084081
  96.9667816  83.4010029  18.6992252  10.0638095  90.0274086  33.2275820
  10.5989162  90.7613182  32.9254627  10.2038375  90.0025940  34.1741586
  14.5007507  87.4498844  53.9269114  15.2507106  87.3666954  54.5158625
  14.8640720  87.3009682  53.0539560   2.3308464  11.0806474  51.7212200
   3.2753512  11.2305077  51.6801548   2.0305058  11.1967000  50.8198023
  35.8672138   2.8230199  40.7873344  35.0626656   2.9236611  41.2960577
  35.5813881   2.8713998  39.8750830  96.5588856  94.0080833  34.0372992
  95.8102131  93.5976982  34.4700766  96.8063641  93.3900070  33.3495760
  23.8289162   0.7200917  32.6181674  24.0404984   1.4129075  31.9924927
  24.6168228   0.6331071  33.1547093  26.8968388  52.9143914  29.4472766
  26.4012905  52.1544656  29.1420269  27.8125759  52.6414498  29.3912125
  37.8995490  75.1211739  18.9769661  37.7060771  74.9479914  18.0556583
  38.7081313  74.6378851  19.1468537  74.1994381  92.1734428  42.0236397
  75.0281525  91.7417717  41.8159819  73.5734415  91.8017101  41.4022160
  37.1095557  29.6236630  88.9340941  36.7444797  30.1591226  88.2296590
  37.8589530  29.1815587  88.5351156  82.4160004  77.1317720  46.0387516
  81.7856312  76.9743013  46.7416525  82.2875595  78.0506134  45.8032417
   6.4258286  12.0915708  21.0372496   6.0606285  11.8667802  20.1814842
   6.6615483  13.0162057  20.9616828  52.2119232   5.8967122  54.8351336
  52.1323010   6.3725861  54.0084314  51.5021321   6.2395677  55.3781700
  36.4424511  15.9383401  24.6467757  36.1574837  15.2485093  25.2460766
  36.0159012  15.7257184  23.8166666  17.8388783   8.0711659  28.6475420
  17.5964161   7.3064622  28.1253672  17.0031353   8.4644517  28.8987088
  23.3501145  24.0835961  48.3804178  23.1320854  24.4565782  49.2345762
  24.2902752  24.2362031  48.2853556  14.8957344  13.6162671  69.9736404
  14.4190499  14.4340238  69.8312473  14.2113682  12.9559335  70.0824690
  87.0088100  83.9440250  48.2926416  87.2561646  83.9252377  47.3681450
  87.6109505  84.5737934  48.6889362  79.9718237 104.1795349  62.4891710
  79.4696903 103.9591217  63.2737207  80.4057884 103.3620358  62.2450304
  67.1735287  80.9974098  24.3111658  67.8252363  81.5890598  24.6872807
  67.5447416  80.1235771  24.4329977  56.3119693  45.2989312  87.8817010
  55.9755511  45.9519692  88.4953681  56.9547839  45.7739278  87.3550198
  84.8594666  83.0829811  26.9072032  83.9514446  83.3769035  26.9802237
  85.3581715  83.8838196  26.7453718  78.0613804  86.7977142  56.4403915
  78.3393621  86.6797543  57.3487139  77.1118546  86.9067669  56.4927435
  76.5830517  81.5899658  54.1858673  76.9543314  82.4247265  53.9002800
  77.3099136  80.9703732  54.1225481   9.4699475   3.7712869  12.3351502
   8.6086842   3.6856469  12.7439666   9.8277947   4.5815572  12.6979840
  91.8618679  75.0138378   1.2125977  91.1853886  74.7288561   1.8269180
  91.7213821  74.4743967   0.4344586  91.8890476  62.3505402  32.7391911
  91.5378189  61.4618015  32.6843715  91.4763641  62.7235508  33.5181546
  91.5299129  84.8215771  36.5948558  92.2509003  84.5137501  37.1440744
  91.1578178  84.0238571  36.2187910  43.8814254  14.5384046  83.0385539
  44.1294856  14.7564288  83.9369765  43.0311771  14.1068812  83.1228504
  16.9624993  10.9688767  56.2866449  16.6949078  10.0806054  56.5224457
  17.8999993  10.8969506  56.1073351  13.7662026  39.8605260  23.1691360
  14.5444580  39.3631276  23.4204197  13.7698265  40.6208714  23.7506008
  21.0408207  13.4297189  28.6943674  20.3286453  13.2749280  28.0738211
  21.6248699  12.6799401  28.5805535   8.2732006  10.2951249  18.7112880
   9.1816803  10.0813970  18.4986472   8.3352467  11.0526284  19.2931569
 109.9074654   3.0165681  23.2399011 109.8569445   2.0949277  23.4933949
 108.9982085   3.3156976  23.2418180  81.4004707  72.9233599  57.1399546
  80.6161976  73.4721136  57.1442413  81.9036102  73.2305527  56.3858223
  60.3923321  91.7125797  27.6707172  60.2827930  90.8079529  27.3776388
  61.3207388  91.7814827  27.8933001  40.0715443  18.2662686  25.5732346
  40.7191178  18.9476689  25.3927374  39.4068333  18.3816632  24.8942184
  25.0600620  16.1787042  10.4871619  24.6973034  17.0277985  10.7395232
  24.2954346  15.6114396  10.3882134  91.6193204   6.6477307  31.2056565
  90.7981591   6.8294152  30.7485843  91.4564423   5.8292779  31.6745329
  59.2597671  39.8404618  88.9379277  58.4081550  39.9524232  89.3603704
  59.1768546  40.3047868  88.1050078 104.9005418  14.6689137  37.4921131
 105.8308081  14.5278462  37.3162293 104.6190123  13.8736733  37.9444003
 108.2597446  94.6982193  69.6124697 107.5312328  94.1502190  69.3205881
 108.3074760  94.5500755  70.5569315  39.6262928  10.1026162   0.1279658
  39.6964070  10.3781136   1.0419766  40.0287815  10.8151730  -0.3685175
   3.4859034  23.5044583  30.7141185   2.7848288  23.9438542  30.2328134
   3.2515284  22.5768479  30.6850028  87.5386429  93.4755039  51.6063643
  88.2892704  92.9297256  51.8407059  87.6987267  93.7249279  50.6962013
  75.2803183  87.7877522  31.9534659  74.8186064  87.6050568  32.7718019
  75.0456524  87.0594788  31.3783264   3.0450913   4.8317727  88.7916088
   2.5496289   5.6307610  88.9715004   2.7219816   4.5360955  87.9404926
  13.1966873  21.7893800  71.1881399  12.4609371  21.2654408  70.8713055
  12.9352375  22.6949510  71.0213614  26.2603469  59.6311971  76.7437342
  25.3453584  59.7673627  76.9896821  26.6428943  59.1699334  77.4901406
  72.7055025  69.0674019  13.8664687  73.0532789  68.1758451  13.8865733
  73.4434891  69.6183062  14.1274464 103.4206676  68.6719036  20.5799246
 103.7512684  67.8663111  20.9773612 102.6366043  68.8844872  21.0861731
  11.9051067  62.2435188  33.9044213  12.4886123  63.0010462  33.8608074
  11.2517921  62.4049187  33.2237196  78.8147445  47.1534749  87.3395709
  78.6996169  46.9513722  88.2680804  78.3403678  47.9751225  87.2126875
  10.6754581 102.5921535  15.6669354  11.0287181 102.8991032  14.8319387
  11.2158576 103.0236721  16.3287520  94.5745373  66.2764788  13.6419201
  94.8404026  66.2860298  14.5614064  95.2089882  66.8432808  13.2032442
  42.9946991  20.7016953  44.7525978  43.1124302  19.8282727  44.3791008
  42.3923775  21.1400327  44.1515112   6.2107269  64.0558338  52.6152897
   6.9294731  63.4236813  52.6109648   6.6205493  64.8827219  52.8693247
  83.9967537  61.0765743   5.7149464  83.9965534  60.1232910   5.6284231
  83.7660313  61.2340212   6.6304827 101.8500333   9.0453252  38.9092708
 101.6193442   9.9643525  39.0448761 101.3309626   8.7774571  38.1509542
  86.8130684  95.9698963  66.3094091  87.3443699  96.1696053  67.0801687
  87.1655655  95.1417828  65.9835339  77.3797035 103.5402775  48.2229757
  78.2668400 103.8504982  48.0413628  76.8181658 104.0830803  47.6695633
  96.5740013  98.7778473  65.0830173  95.8886623  99.3520927  64.7412729
  96.6994953  98.1208801  64.3982744 111.1304765   6.4035138  30.2997589
 110.4202609   5.9587201  29.8371816 111.1546330   5.9853085  31.1604261
  82.4805737  88.9545918  15.5450332  81.5650940  88.9654732  15.8243346
  82.7393913  88.0352211  15.6083751 104.2178535  96.0726166  23.3491421
 103.5508347  95.7910633  23.9752746 104.1372013  97.0261288  23.3258462
  10.0414463   6.5423497  46.2564039  10.1632019   6.1893281  47.1377563
  10.9142014   6.5139588  45.8643389  71.7531919  86.9679832  47.9169178
  71.1105061  86.7737579  48.5991621  72.0788336  86.1104107  47.6434994
  78.6682221   4.3343362  30.2849054  78.3665272   3.6464509  30.8782315
  78.5367485   5.1468095  30.7736015  75.7597213  15.6095609  23.9277768
  75.7659440  15.4950437  22.9774737  76.5278916  15.1264199  24.2322803
  56.2567897  38.7724324  72.3813180  56.4304919  38.0219766  72.9495469
  57.1245284  39.1045972  72.1512715  46.6227336  12.5416442  51.1713484
  46.6468043  13.4897681  51.0420731  46.9725890  12.1799346  50.3571013
  86.7067909  86.2458134  23.6633301  86.3895416  85.4096603  23.3221126
  86.8306637  86.0908699  24.5997477  22.4451348   2.5937756  34.4248652
  22.5529476   3.1948003  33.6877298  22.9617592   1.8246850  34.1843605
 104.7512917   1.4924535  25.5484247 104.2520480   1.3598737  26.3542843
 104.8073010   0.6214818  25.1553464  57.1092224  83.2709408  33.6610007
  57.9396772  82.9785633  33.2853794  57.3304081  84.0710735  34.1375470
  91.1276340 102.6534462  32.5234795  91.0840321 102.3136997  31.6296625
  91.4028549 103.5643959  32.4202943  65.7617617  97.3433399  16.8916571
  64.9583721  97.3869038  16.3731003  65.6309462  97.9844475  17.5902975
  97.9287815 100.6161594  61.2341070  98.1510067  99.6851158  61.2348938
  98.7299347 101.0533714  60.9455967  60.8650414  96.9990752  17.2634864
  60.2704743  97.4612859  17.8543174  61.4644626  97.6759258  16.9491637
   6.5927303  14.9631655  31.7563581   5.8007038  14.4782197  31.9882059
   6.6520679  15.6543303  32.4159050  12.1441837  83.1579033  29.4973278
  11.2337871  83.1782523  29.7922778  12.1665139  83.7529651  28.7479067
  45.7038401  70.3662411  12.9153463  45.0890605  69.6786729  13.1713315
  45.7928024  70.9112267  13.6972066  65.2483416  36.4040613   1.7153117
  65.0846910  35.4722500   1.5697896  65.0218201  36.8198037   0.8833986
  96.7553715  88.7733427  40.7076359  96.6204361  88.8651291  41.6508245
  97.1793870  89.5905522  40.4456997  67.0533085  16.9654334  22.1457458
  66.6630030  17.4297440  21.4052653  67.9799271  16.8881750  21.9184923
   4.9245936  22.3601961  24.0058398   4.1460371  21.8419480  24.2095542
   5.6316727  21.9289923  24.4857717  48.2702208   2.4321549  55.4950380
  49.1097975   2.8634644  55.6541586  48.1368589   2.5087604  54.5502710
  13.7710857  13.1445169  16.5754354  14.3597078  13.1107116  15.8213711
  13.4320378  12.2528982  16.6547799  13.3131969  36.4277744   4.1189057
  12.7577555  36.0641360   3.4293523  12.6995480  36.7073607   4.7982419
  51.1597919  21.3143492   0.3453325  51.0603094  21.0677838   1.2648648
  51.5481567  20.5436134  -0.0686394   8.2590575  81.5300170  10.6449020
   8.9172931  81.6549388  11.3285363   8.0671115  82.4143020  10.3327715
  45.3056479  25.0576901  50.7074022  44.5756340  25.6496859  50.8886528
  45.4568911  25.1450729  49.7662735  52.5146961  37.7638793   9.1404313
  51.9206953  37.8443646   9.8866993  52.1658802  37.0298195   8.6347473
  28.1849098   8.7174004  23.5932732  27.8733826   9.1703254  22.8096652
  27.3868513   8.4737545  24.0622854  23.4123278  27.9829860  21.8452811
  22.7067757  28.5660005  21.5650630  24.2123270  28.4881139  21.7001009
  80.2817917   1.0126018  56.1600876  81.1668396   0.7703578  56.4325762
  80.0414848   0.3511842  55.5112314  24.3948889  20.2994466   6.3582218
  24.0994740  19.3943226   6.2596714  24.6105194  20.3812099   7.2872269
  63.8890171  20.6907320  26.1289668  62.9753828  20.8825445  25.9175181
  64.2667580  21.5413260  26.3526511  26.9515181  39.4118977  39.4859028
  26.3973475  38.9628100  40.1242208  26.4815903  39.3236566  38.6566782
  37.8658464  86.6043007  89.8035989  37.4864081  85.8784020  89.3082916
  38.0679204  86.2295401  90.6608928  46.5424395  12.0746481   7.2911596
  46.2169361  12.8203809   7.7953041  46.9692707  12.4680591   6.5300566
  28.2796669  23.7809491  46.7058563  28.1366253  24.4002247  45.9901285
  28.7639928  23.0592155  46.3049078  21.7667146  87.7382508  13.7768388
  22.0819612  86.8465606  13.9242911  22.1052690  88.2379047  14.5197761
  39.4241929  27.0262599   0.7241989  38.6443090  27.1290255   0.1788047
  39.5570755  27.8889370   1.1170901  51.3903475  12.6045275  29.6590614
  51.0655403  13.3857036  30.1068258  51.8493366  12.9426348  28.8901377
  55.5326176  52.7497530  25.9961748  56.2717295  52.9454517  26.5720606
  55.8485889  52.9662848  25.1189590  25.4954333  93.6534790   9.8418134
  26.1381812  94.3024531  10.1280618  24.8780484  94.1490058   9.3037421
  43.3121347  17.8675044  50.9586763  43.0662441  18.6426222  50.4537392
  42.7465630  17.1727180  50.6215763   9.2126685  38.4043622  25.5076551
   8.9297938  37.9635501  26.3088393   8.4253657  38.4426355  24.9645877
  63.1999969  57.3681068  22.0435524  63.3425665  58.3138752  22.0813751
  63.5544729  57.0392275  22.8696370  97.1874188  87.7495324  87.7992809
  97.7961730  88.3707249  88.1989936  97.7424525  87.1778714  87.2688339
  47.7918863  42.7574492  48.5945368  48.6717653  42.5545073  48.9121151
  47.2115421  42.4805880  49.3036079  29.9005485  29.5055437  30.1056790
  30.8314276  29.6099448  29.9087071  29.8377323  28.6427665  30.5154395
   0.3232260  87.9576138  56.2080193  -0.3542714  87.9173342  56.8830061
   1.1095376  88.2410351  56.6745186  18.9499326   0.4805013  89.1848818
  18.2236285   0.6361505  88.5811508  18.5993142  -0.1363257  89.8273956
  28.2810116  15.0156939  17.7743161  27.7271533  15.2888370  18.5056615
  28.8275146  15.7794940  17.5894475  55.9819031  28.1470704  23.9177203
  55.3261566  28.8369465  24.0192103  56.8209362  28.6054182  23.9643431
  41.1919594  19.1172361  12.0350015  41.1189747  19.3015885  12.9714417
  41.1885214  19.9798346  11.6200972  10.7764859  92.7207819  33.0904198
  11.7259975  92.6721529  32.9795241  10.6544538  92.9534319  34.0108609
  14.2993636  93.6173431   4.3560678  13.7494655  94.2766908   3.9328620
  13.7327571  92.8503314   4.4390285  66.0660791  41.8840075  14.7976792
  65.3250313  42.4282026  14.5313454  66.7973471  42.1982956  14.2659771
  53.3686633 102.4456785   9.6545535  53.2340141 103.3907503   9.7248393
  53.9342113 102.3405698   8.8894784  71.3107633  78.2369840  72.2752551
  70.6739305  77.5832712  71.9865802  71.8690299  77.7694809  72.8965512
   2.2467132  93.0401722  26.6693926   2.7666040  92.8071133  27.4385667
   2.4846931  92.3860923  26.0122943  18.8838077   9.7335571  12.2553611
  19.4392455  10.3757107  11.8133664  18.0121183   9.8768055  11.8867588
  41.4335537  14.6291888  18.5700095  41.8522453  14.0560043  17.9278350
  41.9648552  15.4253662  18.5627770  45.9683847   7.2828609   9.9778134
  45.5384970   6.4276278   9.9760014  46.9034290   7.0809948   9.9434710
  60.3813934  24.0392780  24.0496898  60.8105755  24.8941302  24.0852666
  59.7373247  24.0649962  24.7573233  43.1494904  41.9440317   2.0308867
  43.8713455  42.3542547   2.5071961  42.4015331  42.0123243   2.6242876
  77.6021718  81.8675124  80.4925159  78.3386706  82.1955645  81.0084466
  77.1338986  81.2828099  81.0883990  43.5582256  22.3072004   8.8439244
  43.1130838  21.5589595   8.4461600  43.6616850  22.9330945   8.1271368
  74.8195361  90.7584440  87.7858761  75.4557752  91.0809695  87.1475903
  73.9698743  90.8930003  87.3661137  99.8738383  30.3204429  58.9029840
  99.3924521  29.5046341  59.0406612 100.5445622  30.3209364  59.5858911
  66.8756484  84.9294364  89.1341131  66.6417407  85.8139264  88.8526969
  67.6672601  85.0466811  89.6593136  69.1436218  72.9683983  89.6515145
  69.6606134  73.7721359  89.5971595  68.4393357  73.0931556  89.0153939
  49.5420837  20.4837441  23.4057999  49.4645786  21.3704395  23.0536675
  50.4780579  20.2886701  23.3596396  68.2424974  42.3216534   5.8966810
  68.5422373  43.0950642   6.3744038  68.1083727  42.6306295   5.0007039
  23.8388419  24.2999125  30.6256652  24.1609454  23.5949731  30.0639343
  24.3972158  25.0482512  30.4148555  68.0727196  11.5974700  24.5796490
  68.9224243  11.8063474  24.9677205  68.2137346  10.7654023  24.1279745
  84.7047043  13.7397575  27.1069717  84.6621132  12.7835166  27.1114421
  84.9994850  13.9704967  27.9879355  41.7761517  35.6754708  24.2407751
  42.0260906  36.0486674  23.3955002  41.1035013  35.0287032  24.0275526
  70.1828789  47.4584493  72.6523713  70.3002023  48.3165872  73.0598847
  71.0642885  47.0866525  72.6189545  46.1541033  19.1938388   6.0669190
  46.8042231  19.8957479   6.0369140  45.7387972  19.2150211   5.2047676
  46.5046453  16.1190915  50.3115177  47.2442722  15.9160244  50.8841896
  45.9538269  16.7052293  50.8304310  77.2170496  42.1108294   5.9168994
  77.3087025  41.7364025   6.7930478  78.0695677  42.5062752   5.7350487
 101.4089795  40.7943344  58.6471653 101.2437733  41.2044048  59.4961548
 100.5589064  40.8035564  58.2072544 107.9680060  67.6561951  74.9966720
 107.4555825  67.0244026  74.4922010 107.5793361  68.5045504  74.7834626
 102.5175623  73.5367957  41.6235113 103.3770493  73.9365426  41.7566109
 102.5029281  72.7938477  42.2268724  28.3046746  31.2752676  40.0142622
  29.1076922  31.7829728  40.1310110  27.6631856  31.9111657  39.6974754
  59.6132994  12.4755251  41.9994307  59.1135788  12.2010505  42.7683115
  59.4412422  13.4141493  41.9245005  21.6774931  43.6235088  77.2037069
  22.0278349  43.6946570  78.0916420  21.4472952  42.6990956  77.1104077
  22.6895285   3.9535737  26.0046649  22.8006172   3.9697200  25.0540709
  22.0187950   3.2876897  26.1561465  77.2759055  54.3433290  66.0983113
  76.7210316  53.9207004  66.7538503  76.8853878  54.0976436  65.2596406
  22.1860118  92.1635429  34.5526552  23.0810876  92.3406378  34.8419785
  21.7030235  92.9620150  34.7657228  92.3947219 102.1027405  12.9567158
  92.4722902 103.0057346  13.2646382  92.1951846 101.5972850  13.7447071
  56.0326672  18.8510358  37.5363946  56.9578028  18.6631072  37.3781371
  56.0273266  19.7345281  37.9046917  28.5510516  27.5018525  46.5820837
  27.8631330  26.8819094  46.8242979  28.4467030  27.6184988  45.6377649
  43.8420630  36.3926888   3.8617411  42.9348803  36.6807055   3.7602875
  44.3287325  37.1954465   4.0487310  34.2787814   2.6211911   1.7788531
  33.9028716   2.9090381   2.6107594  34.9416876   3.2807827   1.5745886
  13.1472218   4.7581241  26.2531495  13.7191570   5.4577458  25.9374738
  12.4552679   5.2128142  26.7334509 110.4729632  88.3618442  28.4208250
 110.7034615  87.4878815  28.1057191 111.3108114  88.7600974  28.6566973
   3.7484064  68.3931517  90.2706274   3.3083573  67.5998425  89.9652614
   3.4377470  68.5088181  91.1685930  42.2909594  42.4496698  32.7395272
  42.3470068  43.0767250  32.0184922  43.1981802  42.1930313  32.9048157
 100.4644345  48.7406659  71.4889852  99.6163749  48.4673434  71.1392430
 100.9367370  47.9217684  71.6392235  69.7032737  81.6270196  85.2143488
  69.4569467  81.7254912  84.2946426  69.0688418  82.1624243  85.6908700
  28.6018705  21.8018079  -0.3764999  27.9475784  21.5935040   0.2903895
  29.3095446  22.2278857   0.1071177  84.2687701  42.0093965  73.2284883
  84.3177747  42.9417896  73.4393755  84.2588519  41.5715301  74.0796093
   1.8089767  96.6634974  39.1325188   1.6332121  97.5212148  38.7456608
   2.3878832  96.2315420  38.5044146  19.1797817  10.9351838  27.7191472
  18.6268771  11.6485858  27.4004221  18.6172390  10.4461145  28.3196378
  29.1529608  32.4684763  30.7651377  29.5867991  31.6313553  30.9301972
  28.3480811  32.4270391  31.2815547  88.1151000 104.0249511   2.7547124
  87.3438946 104.5890036   2.6971024  88.1341234 103.5591242   1.9187248
  62.3752499   3.6214754  33.9370203  62.5123453   3.4759003  34.8730993
  62.2083092   2.7488345  33.5808444   8.2476556  24.5981717  33.9997578
   8.6402947  25.1256871  34.6953106   8.0982327  25.2171373  33.2850671
   0.8949146  27.1214461  25.4459667   0.2311276  27.8105116  25.4175735
   1.4108242  27.3179364  26.2279248  94.0667056  65.6156015  80.6024698
  93.4769248  65.8919799  81.3038996  94.8295449  65.2589535  81.0575644
  87.4986171  97.5488531  83.1781009  87.9860639  98.2307970  82.7159569
  87.4962472  96.8056023  82.5749353   5.5406947  83.6650005  45.4032707
   5.3847785  82.9814378  44.7516060   5.1756950  84.4579831  45.0106049
  64.0607738  12.2677290  51.3010740  63.6215591  12.9077625  51.8611479
  63.4076166  12.0404041  50.6393051  63.2815409  35.2878499  27.3541498
  62.5664091  35.8171511  27.7072215  63.2654333  35.4608488  26.4128494
  14.5315738   3.3646365  88.5913429  13.6760183   2.9370996  88.5530089
  14.3431468   4.2912646  88.4427289  81.3518237  74.9761808  83.7660936
  82.1525334  74.4951927  83.9752499  81.4932918  75.8483827  84.1341737
  25.3762555  21.3824344  20.8270383  24.4354606  21.5499425  20.7715726
  25.7636356  21.9766378  20.1843190  35.5903625  30.5285549  36.7068291
  36.0432386  31.2847638  36.3336205  35.3577304  30.8025384  37.5939870
  38.1765127  18.4859824   3.2152829  37.2421813  18.5627401   3.0219892
  38.6086464  18.6470687   2.3765075   5.6110144   1.5196735   9.6832258
   5.9498990   0.7168677  10.0793219   5.8755207   1.4638561   8.7649924
  49.1122961  15.8795273  11.3934779  49.4715786  16.7462873  11.2040758
  48.2687092  15.8659065  10.9413648  42.6415777  30.1345587  33.8057327
  42.8040266  30.0183129  34.7418571  41.8519258  29.6214890  33.6341453
  30.3411698  38.2753801   4.9120536  30.6305552  37.3662996   4.9898991
  29.6404791  38.3598924   5.5586773  21.2425923  29.9763203  13.1753123
  20.4402065  30.0881195  13.6851251  21.8090081  30.6935883  13.4597993
  75.5170870  60.5746174  21.4891911  74.8434448  60.2094793  20.9155083
  76.3298273  60.4849195  20.9915566  80.1510571  79.1274178  87.6221696
  79.7453546  79.3048465  88.4707904  80.9913205  79.5844686  87.6581592
  42.3343515  33.5526180  35.7143974  41.9316912  33.5994434  34.8472738
  43.1342268  33.0443454  35.5799079  86.2748623   2.3547649  21.0341430
  86.0663223   2.7244517  20.1761961  86.5833187   1.4686775  20.8445740
  17.9040515  18.1429112  44.8123169  17.2558010  18.0400872  44.1155910
  17.8816807  19.0760362  45.0244713  10.7911153  89.2441372  16.5909672
  11.5509648  89.6330014  17.0241499  11.1608787  88.7376133  15.8678198
  31.0141039  23.7301850  21.6283178  30.0611210  23.7628961  21.7119193
  31.2280560  24.4552517  21.0411763  21.6093135  27.8711915  34.3940663
  22.2358561  28.3025980  33.8130617  22.0524263  27.0692015  34.6710062
  37.9901624   6.7609781  15.8340538  37.6956320   7.0263511  16.7052948
  38.1672168   7.5847423  15.3798544 108.3774904 104.4522034  24.4430614
 109.3177108 104.5655365  24.5822549 108.1955746 104.9313839  23.6346507
  39.4319153  17.0407891  38.3061290  39.6262264  16.5825140  39.1237235
  38.5516572  16.7476749  38.0706286  54.0927649   3.2344416  17.3234117
  54.3934822   4.0999678  17.6002991  54.7915983   2.6396707  17.5956523
  21.0731220  29.8709893  31.5616679  21.1629534  30.7936883  31.7999721
  20.4299974  29.5252776  32.1806240  19.7046304  48.8552904   4.2183831
  20.4136777  48.5770702   3.6386612  19.8786509  49.7822380   4.3818319
  48.2363892   7.8704560  70.3458118  48.2736969   7.8615326  69.3893814
  47.9739618   6.9811696  70.5835772  49.1434288  37.7792215  24.8536539
  48.5074806  37.7350211  24.1396213  48.9526701  37.0112157  25.3921747
  50.9424829  34.9402618   4.9433130  51.0982990  34.4746161   4.1216522
  50.5353308  34.2887926   5.5143189   6.2869163  92.8697494  20.4850674
   6.8159385  92.8183929  19.6889961   6.4606900  92.0466009  20.9416413
  30.8099122  95.9759859  58.9878035  30.9514518  95.3121177  59.6626949
  29.8792548  95.9065631  58.7749958  85.9220783  94.8868278  32.6933599
  86.0064868  93.9590958  32.4733162  85.3163317  94.9030856  33.4343338
 109.6874527  98.9052383  39.2506576 109.0163044  98.2558713  39.4606924
 110.2919272  98.8733784  39.9921632  39.8472476  34.4844890  65.8488894
  40.3314781  33.6813521  66.0405207  40.4566145  35.1895285  66.0675859
  57.3137569  26.7190170  28.2452631  57.1460962  26.1168194  28.9701629
  56.5404463  26.6422820  27.6863933  73.3389782  65.5373418  85.7451937
  73.1204819  66.3256800  86.2421987  72.9662966  64.8200357  86.2578437
  31.3689852  46.9755745   0.8213334  30.5925417  46.7539883   0.3072653
  31.1333227  46.7489052   1.7209536  51.0539055  41.5484285  25.6786537
  50.2769566  42.0815229  25.5101490  51.1726618  41.5913677  26.6274881
  17.2455633  25.9160471   1.4158717  16.3455224  25.6195283   1.2808381
  17.4681580  25.6127453   2.2960368 108.3233432  96.8121008  25.1086187
 108.9464620  97.5175992  25.2824736 107.9633311  96.5933034  25.9681249
  50.7631159   3.3486888  51.3827276  50.7319355   4.2567235  51.0815096
  51.4511824   3.3405605  52.0481062  21.3269281  33.4530067  55.2253485
  21.4290071  33.1957293  56.1416531  20.3829479  33.4185100  55.0706196
  23.1140065  23.9438128  21.6921806  24.0259457  23.9260268  21.9824982
  22.8031921  23.0481195  21.8239427  98.5118369  99.6848646  15.1402652
  99.0864042 100.4484436  15.0850356  97.9480556  99.8632899  15.8929574
  89.4673919  88.1559312  82.4170253  89.6644305  87.2824013  82.0788608
  89.0819835  87.9978263  83.2788233  91.8132781  86.5354383  83.4274242
  91.8963670  87.4756419  83.5866270  91.2046098  86.2313830  84.1007016
  76.5272168  84.1300241   3.9693102  76.6980321  83.2687059   3.5882774
  76.2491128  84.6687332   3.2285789  87.3410988  20.1443624  10.2720284
  86.8265438  19.3952334  10.5724800  87.1866894  20.8208871  10.9313500
  12.9275286   2.1186842  42.3640394  13.3894944   1.4529119  41.8545628
  13.0198669   1.8318591  43.2725763  17.0698225  21.9344449   9.2269957
  16.2762046  21.8288636   9.7516418  16.9709587  22.7918077   8.8130033
  44.8758698  19.0207076  31.1583805  43.9226913  18.9567697  31.0983896
  45.0545835  19.9608636  31.1384082 102.9324055  12.7364314  48.5853243
 103.5659599  13.0136156  49.2471457 103.4118938  12.1112585  48.0417442
 103.2805542 105.0930748  27.7226639 103.8428596 104.3217921  27.6507711
 102.7051095 104.9017594  28.4632659  43.0578947  31.8129277  89.5555878
  42.8739262  32.1879053  90.4168510  42.2168636  31.4622760  89.2624187
  96.0211324  53.0662093  81.1369995  96.1761903  54.0070648  81.0534552
  95.6769608  52.8034567  80.2833370  72.8723310  59.0226447  84.9496309
  73.7537097  58.6532360  85.0038800  73.0096005  59.9315750  84.6827332
  65.2578063  98.7499395   8.2398272  64.6392532  98.0544493   8.4632438
  65.2227016  99.3500802   8.9846963  20.0917006  37.9114366  49.3095112
  19.8360288  38.3613658  48.5042620  20.8237553  37.3522854  49.0493631
  68.8146591   5.1030445  13.0077291  69.6557808   4.8135564  12.6542532
  68.4439516   4.3202773  13.4152615  45.8431721  58.5783386  24.1992950
  45.2617216  58.4976387  24.9553585  46.3411474  57.7609062  24.1917849
  61.0102320  13.8335919  25.9509063  60.9850836  13.1134307  25.3208518
  61.4978409  14.5256734  25.5042601   6.6760435  91.0700118  84.3036351
   6.8898859  91.7648851  84.9262521   6.6008273  91.5181100  83.4611491
  58.0102514  78.4084951  86.2866390  57.6017331  77.5438392  86.3280297
  57.7029728  78.8565456  87.0747141  16.7782731  86.4184073  28.8008237
  16.7361732  85.4950050  29.0493941  15.8681531  86.7140976  28.8228083
  89.2098807  97.9167568  87.7117760  88.8893413  98.2883560  86.8899498
  90.1315307  98.1727802  87.7470324  88.7532996  59.5165395  73.2418541
  89.5405005  59.2275166  72.7803210  88.5421418  58.7928116  73.8316516
  48.5666990  46.6444302  22.2769952  48.8368464  45.7290459  22.2040009
  49.3725491  47.1433735  22.1432185  98.8913345  42.8277159   7.2667366
  98.0683708  42.4956274   7.6254582  99.0530682  42.2842550   6.4955527
  47.4489355   0.3672629  28.4072161  46.7285490   0.5745278  27.8119755
  47.1863461   0.7511242  29.2438340  60.5421448  64.9568558  21.4105821
  61.4285374  65.2573013  21.6112661  60.5936098  64.0028381  21.4691448
  22.2822752  68.8718104  86.4905084  22.3610773  67.9186320  86.5289063
  22.6569548  69.1765976  87.3169196   0.5401154  10.0343629  86.9387737
  -0.0787954  10.6232043  87.3705712   0.9889789   9.5895835  87.6577473
  90.6105041 101.8265164  68.9590625  91.1850642 101.2745440  69.4895676
  90.2017688 102.4210178  69.5881394  41.3015985  44.0923691  48.9969635
  40.9310675  43.5295391  48.3171368  42.2458363  43.9456797  48.9410019
  56.8922949  38.2723188  31.6778255  57.7429438  38.6399484  31.4380813
  56.2545156  38.8695788  31.2870026  24.3153977  47.8191328  30.6961918
  25.1326108  48.0904722  31.1142468  24.5749545  47.1238184  30.0917101
  91.3808106  80.8945953  61.1627606  91.8726062  81.6061031  60.7527307
  91.2483834  81.1841213  62.0654610  72.3226643  72.8952074  13.5458958
  72.2246552  73.8263416  13.7449265  72.0121622  72.8089619  12.6445735
  42.4674082  36.4080787  52.7048588  42.3741865  36.4935088  51.7560482
  43.3848286  36.1678553  52.8347254  49.0207291   8.8303488  33.8672328
  49.1234589   8.5391432  34.7732568  48.4928179   9.6263504  33.9298940
  54.3828154  60.6419230  13.9382124  53.4750223  60.7544374  13.6562836
  54.6245813  61.4896441  14.3112493  43.5771751  15.7297099  12.2921109
  43.5068607  15.0322425  12.9438972  42.6863050  15.8366883  11.9587386
  76.9005823  37.0066142   0.5701506  76.5937185  37.7900505   1.0265441
  76.9442320  37.2670555  -0.3499018 105.4111670  76.7727816  81.4140270
 105.4541396  76.6742479  82.3651717 106.1563634  77.3331105  81.1973671
  45.1709509  28.3196998  45.3861523  45.6533384  29.0145135  44.9380827
  45.7581377  28.0331898  46.0856915  40.9859180  49.4426727   9.8407131
  41.3057375  50.2452469  10.2528143  41.4786196  49.3808699   9.0223867
  32.4055333   1.3616868  81.5948466  33.1127114   0.7437392  81.4097122
  32.7828880   2.2209617  81.4064786  22.7491660 102.2271195   3.0709147
  23.4375615 102.8847224   2.9713982  22.1603675 102.3831141   2.3325285
  55.1415157   2.1208642   1.7910382  54.4533730   2.1397419   1.1259554
  54.9824429   1.3119096   2.2773722  78.5754347  29.8319983  16.8680823
  78.5534811  30.4091167  16.1047459  78.1686687  29.0198517  16.5661001
  51.3374949  16.2031078   1.6297521  51.1220551  15.3573704   1.2366325
  51.3875389  16.8061733   0.8881053  68.4150457  30.3663540  14.6161425
  67.5437164  30.7624769  14.6063328  68.3408737  29.6100211  14.0341723
  42.3284101  22.1617937  18.3614099  42.6363611  21.7970109  19.1910660
  42.2977304  21.4122319  17.7668965  78.1455278  16.1854076  13.3220172
  79.0812349  16.3470113  13.4427392  77.7790737  16.2287891  14.2052269
  87.3785400  16.6987121  34.4497061  87.9004383  16.4032638  35.1957369
  86.6277027  17.1429491  34.8435879  40.0253201  31.1565638  44.2376947
  39.4785428  30.3909183  44.0614843  39.7681093  31.4375925  45.1158142
  84.3311977  29.9766207  14.1988051  84.7914696  30.2998829  13.4242845
  84.0975094  30.7668710  14.6857631   5.2218809  97.2772419  89.1455718
   5.9573069  97.7068293  89.5824180   5.2300635  96.3828575  89.4865062
  57.9205465  41.8949556  19.7928309  58.0807495  41.2557364  20.4870653
  56.9712877  42.0179987  19.7949445  30.7099843  37.4951744  14.8816812
  31.1911392  36.7661428  14.4902325  30.5984759  38.1205320  14.1656303
  40.0664997  66.6172314  17.1128905  39.9449039  65.6681967  17.1408057
  39.5811319  66.8981791  16.3371837  79.6783257  79.0084219  16.6034830
  79.6032000  78.9074993  17.5523782  80.1354980  79.8412323  16.4866471
  67.2920132  29.3989706  30.4411721  68.0946159  29.7373939  30.8380747
  66.5863132  29.8023915  30.9466124  44.5746851  13.6237860  64.2534351
  44.7245646  14.5031798  63.9064026  45.2883768  13.4873366  64.8765373
  54.8320436  33.2571793  26.2911868  54.9641514  33.5534453  25.3906274
  54.2456055  32.5047922  26.2122154  23.1055379  28.5713601  26.0848904
  23.1316018  28.9970517  25.2279544  22.6504850  27.7440596  25.9276152
  61.4169836  45.5486202   5.8577240  62.1127081  45.6226778   6.5109611
  61.3451529  44.6090078   5.6897938  36.1613250  45.2907848  32.6120377
  36.8848777  45.8234596  32.2819471  35.4545784  45.9171629  32.7682066
  63.0951262  10.0061440  31.1943412  62.2858095   9.9367565  30.6879592
  62.9683161  10.7796240  31.7437744   1.9953871  45.4792118  74.3447638
   2.4855898  45.3988266  75.1629734   2.6492938  45.3420496  73.6593246
  19.2831369   3.3975955  63.7023667  19.2104049   4.0626689  63.0178121
  18.6675687   3.6812564  64.3782691  74.2672110  25.4342771  10.8630729
  74.3090153  24.8716140  11.6363096  74.9063301  25.0577998  10.2580726
  29.2084932  37.8346062  45.1568413  29.4513679  37.5099254  44.2897606
  28.3906698  37.3814344  45.3618622  71.2335873   4.4124508  11.0876298
  70.6042624   4.8474613  10.5123496  72.0373344   4.3637714  10.5700862
  55.4151678  67.6101685   7.7196699  56.3491678  67.7549839   7.5683099
  55.3818798  67.0588255   8.5014266  34.2409921  37.7946305  28.9202428
  34.2767167  37.0583224  29.5308185  34.8027992  37.5294113  28.1920505
  76.3696193  76.7978227  71.4252273  76.0645365  77.7023136  71.3541499
  75.6235193  76.2702930  71.1401311  90.9564209  17.5550795  23.7868142
  90.7910538  18.0247056  24.6043324  90.1996613  16.9778895  23.6848712
  59.6777773  13.8934255  16.6914082  60.1373863  14.6048868  16.2455249
  59.2507315  14.3145800  17.4373925  12.2696200  87.6889741  71.9211129
  12.1566191  86.9338858  72.4984387  12.8258982  87.3670137  71.2117926
  34.1409230  67.2615671  15.5390418  34.3669033  66.6801929  14.8129761
  34.6841192  66.9584560  16.2665677  30.5271983  32.1500254  22.3475075
  30.2316427  32.9013729  22.8616643  31.0663271  31.6420865  22.9537821
  51.9242287  15.2158916   6.4722908  52.3117208  16.0797739   6.6129625
  52.1011829  14.7390878   7.2832024  52.2789621  52.6674747  10.8776176
  52.4452925  53.4464645  10.3468227  52.2322559  52.9951334  11.7757750
  91.8542957  58.2559395   1.0465655  91.5487766  58.5880995   1.8906984
  91.1039066  57.7800655   0.6906359  78.5499859  21.9363260   0.8884051
  78.7681532  22.7776766   0.4874526  79.2054462  21.3297248   0.5439607
 111.0171317  76.5010249  88.0157832 110.9464692  77.4063456  88.3184949
 110.4049252  76.0152161  88.5684376  85.2456473  91.3378083  89.3508873
  85.4002379  92.1993601  89.7382653  85.4169845  90.7209956  90.0625161
  70.5174637  20.0617695  31.8339205  71.2592840  20.5788183  32.1479225
  69.8175240  20.7016015  31.7038131  59.3073368  53.7327051  14.0232587
  59.5555305  54.2357111  14.7988975  59.0744400  54.3950605  13.3726633
  62.2563791  11.2738025  43.8075876  61.4191580  10.8947885  44.0752554
  62.1196842  12.2195852  43.8627386  42.7155828  21.3446379  36.4221883
  43.2206964  21.8070102  35.7533789  41.8483877  21.2327981  36.0327125
  95.8565425  83.1218135  77.9967741  95.2457951  83.3291924  78.7040344
  96.1081408  83.9736998  77.6401011 100.9189176  61.3688016  89.5774030
 100.8782624  61.1268866  90.5026360 100.3359603  62.1242052  89.5015126
  80.9138012  31.7149782  13.3078992  81.7834568  32.0195103  13.5671079
  81.0659218  30.8481789  12.9314041  51.3545561  50.3311062   1.8689948
  50.7660198  49.9939537   1.1935823  50.7710028  50.6598806   2.5528100
  50.4231358  49.2309618  12.7393186  50.5080032  49.4059563  13.6765516
  50.1871395  48.3046722  12.6890278  70.9322405  56.3940477  13.3667660
  71.8738747  56.4658308  13.5229862  70.6714201  57.2661161  13.0706227
  85.6410408  42.1276045  28.4030652  85.9017944  42.6724625  27.6605201
  85.1267147  42.7119970  28.9600134  43.5248947  31.2057686  27.3711133
  42.6450729  31.5826654  27.3613739  43.9734459  31.6629577  28.0824590
 100.2674483  71.3254726  76.7609612  99.5209025  71.9229102  76.7165998
 100.4511928  71.1035573  75.8481506  60.6241798  53.7853718   6.5083182
  59.9084997  54.4154406   6.4243877  60.2202129  53.0161524   6.9100016
  61.1378908  27.6743698   2.7494550  60.8734226  27.3319197   1.8956316
  61.8465042  27.0955420   3.0306304  32.2781154  57.2621166  85.9571824
  32.7883824  56.4665272  85.8058659  32.9292427  57.9231900  86.1922285
  86.2445973  88.5116469  73.3885673  85.8581160  89.1327035  74.0059439
  86.9199037  89.0149176  72.9336933  55.1154518  42.9326820  15.2114141
  55.6845093  43.6700344  14.9906802  55.6924438  42.3080063  15.6508350
  53.5617638  20.3435993  12.8466451  53.6281013  19.6118987  12.2330940
  53.0174589  20.9875321  12.3935246  84.4538784  47.3520088  38.4065628
  83.7976933  47.6898193  39.0161014  84.9827003  46.7518806  38.9323282
 110.1263598 104.5436905  48.5499859 109.3466548 105.0947549  48.6179399
 110.6445125 104.9467013  47.8533316  79.8750305  41.7518473  34.6944571
  79.5995474  41.0508728  35.2852011  80.3522873  41.3031530  33.9965129
  41.0745711  14.0468045  86.9209076  41.8330712  14.5613786  87.1968043
  40.3673692  14.6868297  86.8404821  80.4388618  23.8447881  27.0804811
  80.1772213  24.6724129  26.6769838  81.0378361  23.4485960  26.4476299
  18.3429980  40.0976610  42.5345421  18.9618099  40.3433084  41.8468189
  17.5028908  40.0165796  42.0830154  46.9708061  45.6772184  15.3711557
  46.9084120  45.9349442  16.2908936  46.6069269  46.4198208  14.8891151
  45.8547354  16.0738027  15.1744294  46.4714336  15.7459211  14.5198989
  45.2874327  15.3266215  15.3644812   8.4671540  96.4883528  23.3359838
   8.0234332  97.2533134  23.7022853   7.7646585  95.9675172  22.9468036
  27.9204130  54.4647264  42.1811581  28.5603952  54.0576887  42.7650881
  27.0745373  54.1384220  42.4881601  78.5619020  46.2055588  23.7254500
  78.0691481  45.8617306  22.9803276  78.0140591  46.0100603  24.4856334
  37.2510743   6.0894233  39.2313123  37.8359103   6.5012056  39.8674202
  37.3071432   6.6492707  38.4569359  51.3894606  47.1598816   5.3526068
  51.1029005  46.7664528   6.1768222  51.5558672  48.0770683   5.5701113
  47.4744558  35.6179285  20.2583957  47.1399450  34.7742224  19.9542654
  47.8514576  35.4303265  21.1179924  31.5501237  47.2857332  35.5943441
  30.7220721  46.8560314  35.8086276  32.0167804  47.3360157  36.4285707
 104.4292497  84.9856674  89.3159831 104.7529315  84.6476757  90.1509829
 104.4320582  84.2264688  88.7330236  59.2302321 101.8380701  76.6423360
  59.5970606 101.9225371  77.5224117  59.9901437 101.8754971  76.0615019
  64.1278267  23.7882447  17.2299266  64.7028303  23.9449739  17.9789519
  63.4713793  24.4829059  17.2824252  45.9570456  27.1612549   4.2942026
  45.0736475  27.2528529   3.9372003  45.8685207  27.4004102   5.2168071
  62.8682899  33.4459257  16.7511368  63.3856630  32.6695824  16.9652665
  63.4550858  33.9863920  16.2221754  33.5697646 102.3812679  13.1057858
  33.0292792 102.9545808  12.5622618  33.1210895 102.3597336  13.9510429
  94.5240211  43.9272976  32.0816779  94.0135002  43.5591364  32.8028297
  95.3797436  43.5044575  32.1536899  67.3190117  58.7796736   2.8785652
  66.6647768  59.0074253   2.2180088  68.0392504  58.3944559   2.3794703
  40.7173729  16.9528532  35.7545328  40.2565479  17.0629478  36.5862489
  41.4047384  17.6187861  35.7715821  46.9515800  60.8840466  26.4824557
  46.8563032  60.1045227  27.0297146  47.3989534  60.5714178  25.6961036
  68.5495234  18.2437718  46.8730164  69.0811491  19.0236795  47.0322418
  69.1325998  17.5115061  47.0731258  33.3558226   9.8626697  12.7853012
  33.1280613   9.0402663  13.2189012  34.1811395  10.1271284  13.1916797
  67.6365089  45.8130598  21.6998363  67.4094391  45.1283550  21.0706711
  68.5800266  45.7163954  21.8289018  48.8522911  46.2444878  25.4246330
  48.5566998  46.6851044  24.6279454  49.5951176  46.7675304  25.7260680
  55.3563452  35.9090877  31.8646312  55.0403547  36.1806607  31.0028720
  56.0117388  36.5666771  32.0975804  54.9190950  42.1750593  19.8244441
  54.9105692  41.3508654  19.3377566  54.0217257  42.2748375  20.1422524
  36.9741869  52.4728775  36.8812156  36.7130470  53.2162189  37.4247956
  37.3951650  51.8666410  37.4907160  48.3548403  40.4271984  26.1155367
  49.0579033  40.1462936  25.5298495  47.5800133  39.9621749  25.7998991
  29.7268748  55.8017445   8.2196808  29.6742225  56.5251637   7.5950837
  30.6644869  55.6861305   8.3737904  65.9682417   9.5358503   4.9956530
  66.4939117   9.1004568   4.3245837  65.9243822   8.9037001   5.7130754
  55.2368533  93.5705244  60.0919298  54.5266913  93.1519854  60.5784777
  55.0947641  94.5083963  60.2201108  42.4483299  58.6502409  10.1094699
  41.7674875  59.2449427   9.7947985  43.2063532  58.8400507   9.5566589
  19.0501638  92.9137746  19.9804699  18.6538549  92.5887183  20.7888699
  18.4151740  92.6961664  19.2980742  48.2401037  53.4944105   4.8140669
  48.1656599  53.3290005   5.7539225  47.9270554  52.6884031   4.4034833
  38.1370497  45.5780745  23.4378886  37.5072527  44.8794031  23.6152267
  38.9231086  45.3198004  23.9191794  95.2949619  67.8734255  10.1843894
  95.2228260  68.5955000   9.5601857  95.4539013  68.2997847  11.0265219
  34.0715575  48.5887241  20.1547241  33.1190443  48.5735703  20.0613403
  34.3303561  49.4511843  19.8300374   0.8567324  83.4698188  87.5580591
   0.4775992  83.0674731  86.7766455   1.7982092  83.3201539  87.4717182
  46.2860632  37.5970626  18.7101066  46.8181849  37.0746708  19.3102598
  46.0266542  36.9827604  18.0233955  31.5801334  57.9031754  16.8068826
  31.0485339  57.7788115  16.0206461  31.4914250  57.0807552  17.2885382
  63.8295794  55.3663254  14.0113926  64.2273998  54.5377016  13.7442839
  63.7137032  55.2822828  14.9578285  88.3802842  84.8964583  89.0469453
  89.0731381  84.5151651  89.5862026  88.8463353  85.3749048  88.3612970
  69.9900579  54.8838472   9.2250943  70.7027960  54.6890450   8.6165810
  69.3337297  54.2097378   9.0489048  69.4269537  79.3345749  87.0737890
  69.5295810  79.9895393  86.3833389  69.2063521  78.5280096  86.6079334
  88.1132889  32.0498466  13.8298643  88.3132267  32.2433639  12.9139996
  88.7372971  32.5778127  14.3279636  81.7475509  94.0681040  87.6621971
  81.1228227  94.5589316  88.1960857  81.9229554  93.2744181  88.1676961
  81.4561749  42.6832247   9.1121262  82.2111511  43.1977320   9.3976468
  81.3612270  42.0055342   9.7814202  67.4164057  20.8858395  11.7122614
  67.2181940  21.7819095  11.9842947  68.0986214  20.5969000  12.3183358
  46.9134903  46.2833118   9.5152384  46.0477495  46.5911388   9.7835028
  46.7467117  45.4450274   9.0843117  67.9038715  13.7736845  21.3334250
  68.4281969  14.5709360  21.2578607  67.4004745  13.8935125  22.1386981
  80.7186604  46.7208862   7.7419889  81.0112381  47.0300293   8.5993445
  81.4184475  46.9798088   7.1424156  32.0536232  37.3968196  25.9569097
  32.6155090  36.6440272  26.1408067  31.1657214  37.0783639  26.1195350
  47.3893352  13.1746121  81.5868685  47.3314567  13.9999982  81.1055938
  47.9001517  12.6001235  81.0165528  64.3086767  71.3662672   8.4370828
  64.7808552  70.5336905   8.4272045  64.8967552  71.9697571   8.8911772
  57.0225954  21.7114544  11.0273480  56.9777346  22.3318148  11.7549264
  57.4039221  20.9210944  11.4096498  13.4813543  32.1469327  67.7184943
  13.2902379  31.4123651  68.3016924  13.7391610  31.7365953  66.8930296
  62.5828028  33.7466431  29.4562054  62.6604986  34.0525413  28.5525346
  63.4857798  33.6920524  29.7690654  38.5335898  34.2781639  33.6295533
  37.9108310  34.7168660  33.0499458  39.1277146  33.8168502  33.0375743
  21.4082789  17.2442114   5.7068801  21.6010594  17.4289715   6.6260809
  21.2535310  18.1045985   5.3169829  53.0829287  54.7388411  25.2930689
  53.3085203  55.6555843  25.4509306  53.6558867  54.2465353  25.8809376
  30.4507518   2.1072483  11.2068522  31.1197400   1.7739545  10.6088531
  30.8652139   2.8551742  11.6370392  67.9160786  19.6213627  14.1916549
  66.9622946  19.5944047  14.2678249  68.1662512  18.7186217  13.9949274
  94.6050835  23.4849906  28.3472037  95.5012131  23.4240532  28.0163503
  94.0628910  23.1490850  27.6334620  91.3321256  70.1967990  70.6434015
  90.3941773  70.1315677  70.4638771  91.6580390  70.8178424  69.9920038
  31.2156844  35.7376528  38.6048484  32.1076941  35.6996799  38.2597232
  30.7631731  36.3563132  38.0315042  63.9513588  43.8857698  14.5574450
  63.2249355  44.0148640  15.1672602  64.4344902  44.7117281  14.5821571
  58.7653637  39.7701240  21.2534690  59.3622446  40.0324345  21.9542980
  57.9022026  39.7555041  21.6669488  55.6848192  10.7132268  19.1595995
  55.5275774  10.3301036  20.0225735  54.8112726  10.9154212  18.8245356
  72.6613808  15.3410590  25.9244823  73.4976101  15.3303885  25.4588199
  72.0518732  15.7540858  25.3128099  40.8975554  10.0188017  19.2953217
  40.2389050  10.4977524  18.7923181  40.6336880   9.1015208  19.2232096
  78.8555431  49.2074251  35.4601550  79.5867586  48.7323856  35.0653243
  78.6897326  48.7497807  36.2843513  32.8211212  28.6515689  61.1464882
  33.3029079  28.4439063  61.9471073  31.9600844  28.2536840  61.2750769
  63.6211919  96.7904627  88.1412799  63.7819718  97.7196419  87.9769525
  62.7396535  96.6362059  87.8016827  41.1423397  52.0486212  28.8004065
  40.5701971  51.2812424  28.8027501  40.6465626  52.7184629  29.2713141
  25.5756807  81.1299229   0.4207833  25.7968187  81.8735981   0.9813835
  26.3802195  80.6128979   0.3803294  11.7253828  45.9158945  36.3962436
  11.5885293  45.6803417  35.4786277  10.9949195  46.4979792  36.6056061
  33.9725614  15.6671751  67.2716618  34.5771384  15.9437847  67.9602861
  33.3641982  16.4002669  67.1783781  33.1733537  45.6223679   7.0178097
  33.9103317  45.0148869   7.0815587  32.3978257  45.0679398   7.1038216
  84.8463631  39.8117256  16.5734565  84.4085598  39.1728115  17.1359026
  84.9581623  39.3583703  15.7378721  58.0988646  89.0685177   7.1368158
  59.0306759  88.9810085   7.3375785  57.6570606  88.8870621   7.9663414
  72.2771715  55.8709210  61.7952803  73.2026552  55.7070514  61.6140131
  71.9105600  56.1334338  60.9509376  40.5378866  29.2512178   2.5246474
  39.8815393  29.8233032   2.9223382  41.3116360  29.8061728   2.4268480
   6.3598528  65.8783924  67.6505283   7.0030775  65.8242035  68.3573250
   6.3433066  66.8053233  67.4122885  74.9551249   1.8357334  11.8810773
  75.8312702   2.0183226  11.5415716  74.3701267   2.0214675  11.1465645
  89.4648361  19.7422290  26.6529441  88.8684177  18.9979601  26.7340827
  89.3303204  20.2455926  27.4559164  43.7177420  15.8915424   4.0112349
  43.7270451  14.9511361   4.1895130  44.3172598  16.2638557   4.6579158
  85.3962563  78.4511935  75.0853196  85.8917474  77.9745471  75.7512990
  86.0218381  79.0801942  74.7258214  39.9539757  43.5835218  33.5472655
  39.1308665  43.1115532  33.6736441  40.5722570  42.9131365  33.2564950
  45.3102398  22.3216486  21.4459872  45.9726286  22.7560210  20.9085917
  44.5497847  22.9014468  21.4039159  92.1134805  94.5432102  90.0535347
  91.4019536  94.9185335  89.5347941  92.0955228  95.0339377  90.8751754
  68.6214352  25.7460833  15.4175305  68.6544132  25.2225327  14.6168816
  67.7521658  26.1466742  15.4061222  48.8799715   7.8394634  20.4316592
  48.9337540   8.4788620  21.1419487  49.3499565   8.2485604  19.7050345
  37.1033573  24.1226435  34.1599369  37.5543857  23.4064317  34.6069765
  36.8691945  24.7321582  34.8598623  92.4103068  82.6108944  69.6365241
  92.1741342  82.1578109  68.8271002  92.9329251  83.3592689  69.3483642
  86.7585659  34.5981884  47.3783255  86.3229370  35.1398277  46.7202330
  86.5674400  35.0317287  48.2100391   9.4512644 104.4245493  83.0468670
   9.4340220 105.3005087  83.4323976   9.9537173 103.8987934  83.6692438
  16.2685633  31.9418573  15.6676602  16.4679003  32.8394008  15.9339547
  16.3452017  31.4304233  16.4731383  55.0739193  88.3221436  24.2771959
  55.9919119  88.4420872  24.5203662  54.7775269  89.1958904  24.0223336
  26.6102409  24.7622824   1.6219164  25.8318472  24.2661881   1.3684830
  26.9935083  25.0468874   0.7922560  47.7423239  10.5192482  10.3514755
  47.6643896  10.9293914   9.4901156  48.6070395  10.1088321  10.3439772
  39.3142772  26.9071555  13.2571495  38.5959792  26.8185687  12.6307046
  40.0671196  27.1621680  12.7238297  10.7457967 102.1732814   8.4750473
  11.1249919 102.8565115   9.0278965   9.7999950 102.2903124   8.5644406
  44.2194557  43.2519627   5.8233076  44.9583673  42.6758385   6.0190737
  44.3993330  43.5813951   4.9427658  88.5526561  62.6213920  69.1257051
  88.4777545  61.9552141  69.8089532  88.8859843  63.3947456  69.5807341
  70.7195902  51.3660383  11.8521559  71.4081144  51.4928150  11.1993980
  70.4978514  52.2511435  12.1413875  45.1413155  26.7713976   0.7928026
  45.6522274  27.5692415   0.6562511  44.4282246  27.0398474   1.3721734
  71.7377996  42.2123623  11.5236342  71.6023588  41.8162966  12.3844576
  72.0804834  43.0858088  11.7131007  46.2259388  25.5915880  23.2795954
  45.3299332  25.8550596  23.0698538  46.7439938  25.8872604  22.5309777
   8.3664651   9.6294423  78.9989237   8.1180473   8.8839551  78.4523276
   7.6899524  10.2854796  78.8310734 107.9517793  79.1483891  76.2059835
 107.0042085  79.0341031  76.1333421 108.0578994  79.9725902  76.6810206
  38.6036611  38.4327626   4.0810224  38.5649776  39.1442275   3.4418413
  38.8791561  38.8560224   4.8941547  51.1492968  28.9314508  24.9583983
  50.6942511  29.4614935  25.6127858  51.1174536  28.0407119  25.3073978
  33.2245088  24.4983125  13.6980033  33.7192488  24.5881128  14.5124972
  33.8615870  24.6864200  13.0088151  97.6103543  69.6260440  83.0286792
  98.3835172  69.5930016  82.4653313  97.2521209  68.7390077  82.9960111
  81.6472054  40.6826544  32.5966597  82.4214458  40.8629847  33.1298113
  81.8720913  41.0150194  31.7276454  75.5943108  26.2370253  50.0133419
  76.1386299  26.0004520  50.7643270  76.0067320  27.0238972  49.6570110
 103.6156510  56.6423571  81.5423796 104.5127343  56.8331065  81.2683437
 103.1185817  56.6042363  80.7252506  75.8649111  30.9404635  39.0297914
  75.6743002  30.0427508  38.7577510  75.5910063  31.4789891  38.2873631
  84.0115833  15.3374505  22.4682164  83.3373451  15.6027079  21.8426991
  84.8103523  15.2699316  21.9451118  83.4214973  70.1349163   4.6937001
  82.5813580  69.9650717   4.2676243  83.7988663  70.8616209   4.1979900
  51.8331480  36.9249153  33.0154562  52.6540327  36.9794083  32.5261545
  51.3732147  37.7370024  32.8028345  52.8754802   3.5878488  88.9514384
  53.1256099   2.7373239  89.3123754  52.2459026   3.3793422  88.2612259
  14.3909307  27.2131082  44.9988106  14.7289605  26.7795249  44.2152480
  13.7958570  26.5728684  45.3889588  93.9975213  95.4375088  87.9676158
  93.5731601  95.4892218  88.8240472  94.8656463  95.8157837  88.1072367
  59.8657656  45.6821489   9.7166926  59.7718763  45.2729225   8.8564885
  59.5352507  46.5723038   9.5958114  67.2478867  65.3693771  20.5761003
  68.0963707  65.7422590  20.8153915  67.4512005  64.7300386  19.8933542
  26.3739610  56.6791201  22.1696329  25.8802652  57.3253822  21.6648173
  27.2671318  57.0227146  22.1901536  81.7473984  52.3317528  11.4038301
  81.6312408  51.7080641  10.6870651  82.6682758  52.5877094  11.3517213
  57.5431204  31.7049885   5.8783472  58.4516907  31.8950939   5.6446993
  57.0482922  32.4530649   5.5440414  81.7605495  36.2012696  38.7270761
  81.0570335  35.5531216  38.6922598  82.4270630  35.8015275  39.2858195
  70.2331591  46.1191607  22.3929191  70.5191946  47.0258188  22.2816539
  70.5452299  45.6713438  21.6065955  26.2974401  10.8456059  82.7532808
  26.7720885  10.7139083  83.5740117  26.9822259  10.9005567  82.0867363
  64.5083046  42.6648045  25.3185272  64.1697502  42.2440958  24.5282030
  65.3515244  42.2392845  25.4739141  75.5391264  75.6907177   1.5020125
  75.8819294  75.8097506   0.6162652  76.3156128  75.6935215   2.0617396
  85.1149273  46.1117601  15.5421615  85.5029488  46.9739342  15.3927517
  84.8182583  46.1370134  16.4518774  49.9892230  11.8354960  88.5221826
  50.0409408  12.7185412  88.1564129  50.8949084  11.5257951  88.5293532
  29.6578717  36.2737417  25.8065701  28.9958525  36.9454837  25.6430864
  29.6455383  36.1513162  26.7558265  55.0135989  22.7416821  55.9596375
  55.5652232  22.4602576  55.2297476  54.1449542  22.3988791  55.7494239
  29.4335938  10.6095779  19.5234144  29.0606213  11.2216353  18.8889766
  30.1839685  11.0751331  19.8927772  70.4606438  27.8420806  16.0353017
  71.0700369  28.0698967  15.3331828  69.9525928  27.1110082  15.6836653
  52.2956705  41.1668158  20.3503513  52.5721312  40.2852631  20.1000190
  51.5272999  41.3403368  19.8065424  52.7455378  75.3124285  29.8654890
  52.3490191  74.6652794  30.4487538  52.0179796  75.8767891  29.6039844
 103.6565590  60.7109356  31.8417430 104.0249348  60.7971859  30.9624863
 104.3704891  60.3480387  32.3659992  67.0066929  93.3710861  11.7720544
  67.1226501  93.8967991  10.9805918  66.6253138  92.5502396  11.4606154
  45.0666042  43.8717862  80.3052167  44.6985145  44.5961782  79.7992567
  45.5104251  43.3268949  79.6553270  78.9401054  41.2142658  29.9071240
  78.7173462  41.7459488  29.1429758  78.0983448  40.8887863  30.2260709
  66.4046478  52.1434879  19.4190860  66.4610195  51.3343525  18.9108026
  65.6866980  51.9908571  20.0334835  46.6269207  63.6397552  27.8238416
  46.5835619  63.2782030  28.7090707  46.7007399  62.8731823  27.2553802
  45.2953577  83.5184097  23.8728857  45.7318830  84.3475056  24.0685153
  45.4298830  82.9860592  24.6569419 100.9427834  31.4024925  12.5344920
 100.0492191  31.0614777  12.5729322 101.1088657  31.5343761  11.6010821
  48.1502914  27.2828889   8.9263058  47.7539539  27.0295477   9.7599518
  47.8928995  26.5898371   8.3183086  74.0261555  40.6135798  37.8905916
  73.1506491  40.7481480  37.5278044  74.1250610  39.6623635  37.9310250
   2.3986187  98.0638659  77.5206069   3.2445565  98.4827721  77.3620549
   1.9317761  98.1445133  76.6888694  59.8944521  37.3448634  24.5448828
  59.9340248  36.9432306  23.6769199  58.9796972  37.6081848  24.6454668
  95.6784247  84.9480450  83.7141094  95.3050374  85.7893264  83.4513107
  95.3944253  84.3370878  83.0341796  89.0665769  43.3614242  88.7835526
  89.8399018  43.7914323  88.4184629  89.4136046  42.6031649  89.2534935
  71.5263081  43.9773178  17.3635793  70.7711124  43.6034298  16.9095743
  72.0103884  44.4417906  16.6808200  50.7940765   4.8511477  79.2603103
  51.6105838   4.3568440  79.1881922  50.3571124   4.4812366  80.0274233
  46.1705203  19.5708629  69.5614246  46.1544509  19.1325971  70.4122451
  46.1735244  18.8566609  68.9241317  92.2722720 104.0210354  48.2496527
  92.3386001 104.7870695  48.8197640  91.5371465 104.2175638  47.6689700
  58.8174915  32.9097843   9.0660024  59.5535040  33.5074115   9.1977525
  58.9502859  32.5565505   8.1863302  36.9475074  47.9599210  79.7451440
  37.0657678  48.7726327  80.2368263  36.1925788  48.1287499  79.1813914
   7.0525732 100.0520670  73.5905710   7.3536005 100.5727017  74.3352548
   7.8192797  99.9819195  73.0218223  59.5011091  18.5321581  30.8050251
  59.6541023  19.0761650  31.5776062  58.6819553  18.8636029  30.4371119
  14.1981125  84.5550537   7.2645766  13.8345540  84.9869633   6.4915866
  14.0392125  83.6230373   7.1151394  58.3665652   1.4272710  78.5577563
  58.3403869   2.0409032  79.2919246  59.0449805   1.7750808  77.9789594
  57.4241686  36.7685938   9.4878989  56.6616535  37.0454955   8.9798403
  58.1138229  36.6436410   8.8359821  72.9598379  29.7676921  21.6556191
  72.7061462  29.7615957  22.5785685  72.1585178  29.5373750  21.1854362
  89.4861649  73.2275259  71.4192990  89.0561294  73.1467926  70.5679587
  89.0343474  72.5941312  71.9768850  61.8166494  72.3212194   7.6195848
  62.0622730  72.6876926   6.7701155  62.6459217  72.2254801   8.0879551
 106.6962528   0.3646436  52.4918079 106.9923592   0.7474835  51.6659784
 107.0780945  -0.5130651  52.4994373  59.6919107  77.2940254  14.6561468
  60.5431461  76.8583775  14.6991217  59.8987675  78.2279396  14.6913719
  56.7492294  49.6801996  15.3584325  55.9271622  50.1062298  15.6011891
  57.2265291  50.3455305  14.8626995  50.8088827  10.8611524  10.1817262
  51.3728571  10.1379812   9.9075198  50.6076527  10.6736064  11.0985482
  42.6627159  79.9551678  23.2325101  42.5250912  80.5802822  23.9442110
  42.9661512  79.1588688  23.6684799  42.6317167  83.5939121  16.9696426
  42.3609066  84.4997692  17.1190012  42.0335436  83.2732964  16.2946391
  78.8884543  93.1959211  49.3275098  79.4139432  92.4902451  48.9505366
  77.9993915  92.8425371  49.3578604  59.2375278  28.1690264   4.7532183
  58.4388399  28.4474921   4.3051201  59.9113894  28.1848526   4.0735954
  33.4436126  28.3894464  79.1634825  34.0728517  28.6153050  78.4784392
  33.9653821  27.9426976  79.8301176  64.3617725  54.5592070  20.9744167
  64.0692949  54.9741411  21.7859054  63.6736917  53.9268684  20.7672286
   2.9362383  93.7852394  78.9733092   3.7637940  94.1923534  78.7171093
   2.7697173  93.1326019  78.2931892  44.9843979  52.6272583   0.9837139
  45.1576471  52.4255133   1.9032328  45.6468868  53.2782793   0.7523994
 109.6508693 101.3978493  87.2685648 109.4072246 102.1490061  86.7276088
 110.5908536 101.5032541  87.4153671  55.6811571  21.7167354  24.6086669
  56.2939072  21.5154648  25.3159547  56.1912441  21.5948343  23.8079286
  52.8720808  26.1174560  37.7344632  52.8424168  25.1609516  37.7556729
  53.6748457  26.3426709  38.2046556  97.6702881  26.2838697  36.5479064
  98.0894279  25.4534650  36.7736983  96.8545628  26.0307240  36.1157680
  87.5383901  77.7058780  76.7316273  88.2628726  77.0922672  76.6098169
  87.9399060  78.4722864  77.1410624 107.9508590  59.2639714  87.8653738
 107.0827674  58.8803088  87.7410576 107.7915763  60.0551742  88.3800175
  70.0118303  58.5544252  11.8598878  70.4446459  59.4069386  11.8138170
  69.3712568  58.6488152  12.5648606  83.9234447  23.4479022   5.8317959
  83.4953880  22.7405596   6.3141537  83.2630634  24.1391730   5.7841605
  63.4873152  54.5899582  17.0809281  63.4381056  53.6690617  17.3373532
  64.4171619  54.7422886  16.9123602  74.5643806  35.3137946  11.6873145
  74.5088911  34.3627810  11.7807293  74.4841146  35.6473231  12.5809288
  79.8330831  80.9215438  90.0193441  79.1658210  81.6013014  90.1138015
  80.3970622  81.2360727  89.3127782  62.9045725  72.6254177  11.6402769
  63.0651712  72.4351740  12.5645328  63.6568880  73.1518412  11.3698578
  94.6433926  69.3924904  62.0893574  93.7509346  69.7073269  62.2330093
  94.5446205  68.6640644  61.4762735 108.4297371  28.3206248  41.9972277
 107.7410412  27.9616499  41.4377069 108.7150478  29.1151428  41.5460396
  69.9710846  50.8764458   8.0274117  70.7084990  51.3784552   7.6803774
  69.5583153  50.4916143   7.2542608  19.3821140  14.8589440  89.9164662
  18.7281413  14.4608470  90.4909812  19.3167968  14.3637439  89.0999239
  58.9909220  59.1804266  21.1058760  59.1796494  58.3081198  20.7599044
  59.6961927  59.7308397  20.7654762  59.5392084  65.6381083   3.3117434
  60.3756380  65.1878500   3.1939343  59.1386652  65.6306696   2.4424082
  34.8869538  95.4438496  14.7789526  34.1790867  95.5519962  15.4141390
  34.5007896  95.7055473  13.9431143  82.2996807   5.1434875  23.8252640
  82.6517677   4.4588315  23.2564807  83.0422878   5.7251370  23.9878798
  79.1847706  54.1790247  20.2480149  79.6674490  54.9804258  20.4505205
  78.8516092  54.3176365  19.3614388  49.1222854   2.9154130  90.7985260
  48.5472102   2.4211188  90.2144103  49.7589011   2.2715827  91.1090790
  46.6131969  38.2007714  78.1132630  46.2792392  37.3729344  78.4587828
  47.5623698  38.1396695  78.2207648  84.5442486  35.1375556   6.1581850
  85.2606297  35.7626724   6.2689549  83.7705517  35.6005001   6.4796001
  37.9572535  32.5134635  24.2974424  38.2208395  33.4336519  24.3002748
  38.0605626  32.2375298  23.3867168  82.0118332  51.2412453  34.3704224
  82.5437737  50.8024645  33.7065434  82.0618725  50.6675625  35.1350236
  44.4671631  24.5660186  45.0896883  43.6880636  24.1407681  45.4480124
  44.9597979  24.8510790  45.8592892  86.4813519  39.4022155  41.1639929
  85.7798386  39.7640443  41.7054605  87.1674633  39.1651392  41.7879200
  56.4342213  92.8304482  15.2712214  56.3988686  91.9184113  14.9828327
  56.1540604  93.3342934  14.5071018  70.8147526  20.2607536  17.4487269
  69.8872471  20.1647592  17.6649344  70.9017134  19.8603725  16.5836453
  87.9285336  76.8732452  14.5077145  88.5870743  76.1811733  14.5676517
  87.1168709  76.4135742  14.2929041  68.0032969  77.4743271  27.7803445
  68.5279989  78.2273197  27.5084591  67.5117159  77.2293472  26.9964051
  63.8232851  76.0936642  19.3952656  63.8403511  76.7193127  20.1194930
  64.7382879  76.0144281  19.1255963 103.6078214  92.0243036  76.9350365
 103.0825757  92.0807755  77.7332596 103.1376742  91.3997638  76.3826398
 105.1482915  90.9686339  63.9381698 104.2350768  91.2337172  63.8286189
 105.1118230  90.0166857  64.0314201  74.6568680  49.7584438  30.9048796
  74.4133377  49.8404789  29.9828196  73.9065933  49.3265152  31.3132453
  75.5538464  28.9250374  25.4297113  74.9506569  29.3591571  24.8264384
  74.9854136  28.4943843  26.0681915  14.8934980  42.5920602  78.9300088
  13.9597745  42.4436589  78.7804321  15.2396484  42.8267976  78.0690161
  53.1857347  52.1088076   0.8580454  52.7056456  52.7096796   0.2882243
  52.5043344  51.6364670   1.3364004  63.2438612  55.6137085   2.0100133
  62.8108120  54.8949194   2.4704966  63.5060883  55.2366590   1.1701903
  67.4552679  64.7985029  14.3617392  68.1964731  65.4030895  14.3980825
  67.7469254  64.0320587  14.8554301  17.2532983  11.4808293  88.1311179
  16.8920417  10.6421634  88.4181050  16.8794913  11.6173097  87.2605572
  23.5445829  12.3962613  58.1759838  23.6121841  12.8121491  59.0354613
  22.6936813  11.9580337  58.1882147  55.6917000  80.2496147  14.6601129
  56.1088753  79.4155264  14.8757291  56.4201975  80.8613110  14.5535827
  42.9275322  64.1310263  10.0931871  43.7362576  64.5269775  10.4178631
  42.2374010  64.7327471  10.3722763  53.2309818  50.4343557  20.5520654
  52.7000380  50.0508165  19.8540473  52.5944042  50.7237864  21.2056899
  76.3933182  24.3643904  30.7300520  76.2148523  23.4458971  30.5281806
  77.2304392  24.5452929  30.3025818  96.2480687  76.3277781  78.2705263
  95.6557082  76.1103212  77.5507644  96.2124013  77.2824633  78.3299712
  64.2763710  51.9250298  30.3724933  63.6344099  51.5801287  30.9931040
  64.4083595  51.2145567  29.7447681  32.1553731  41.8692064  27.7848220
  32.9759645  42.1574211  27.3850846  32.3015428  40.9464455  27.9930949
  33.0790973  48.5897207  47.1152115  33.2457519  48.3499193  46.2036419
  33.5510135  47.9319906  47.6260138  49.9325991  40.3158474   7.5458473
  49.6492147  39.4077253   7.4398136  49.6648884  40.5480194   8.4350371
  63.4956408  58.2226896   2.5346076  63.4386206  57.2737408   2.4229378
  62.6442337  58.4732485   2.8931600  64.5639324  53.2838726   9.4952512
  64.1587543  53.9930773   9.9943399  64.9724150  53.7201500   8.7475634
  93.4672546  64.3681955  35.4455376  93.4844208  65.2510023  35.0759530
  92.5421906  64.1224527  35.4359102  70.5539894  28.4180570  30.6699276
  70.3878117  29.3592572  30.7224774  70.7679224  28.2636166  29.7498131
  58.0365801  31.8996572   1.0220069  58.6521482  32.6324320   1.0407032
  58.3326769  31.3566947   0.2914252  49.4618983   2.8528043  83.7192312
  50.1821227   3.3981009  83.4027395  49.0500159   2.5148316  82.9240200
  43.5624170  45.2061224  14.0660381  43.5417509  44.3039227  14.3851686
  43.1598616  45.1626492  13.1986892  41.5357104  89.9416220  56.3072089
  42.1907416  90.3245246  56.8907813  41.1902037  89.1929614  56.7933825
  51.5749073  49.4079685  15.1813090  51.2415171  48.5197783  15.3085768
  51.0751152  49.9421501  15.7986331  59.0582848  20.3619146  19.0920222
  59.6390724  20.9703350  18.6351395  58.1867743  20.7464552  18.9980388
 108.0797481  71.4323401  81.1959282 108.1751584  70.5939757  81.6478959
 107.6268338  71.9935643  81.8253145  54.1955948  77.4554586  33.8649631
  53.9734840  76.6408920  34.3159342  55.0241184  77.2669744  33.4242105
  63.6256361  62.2389555   0.8013538  64.1789770  62.8390265   1.3013121
  62.8632784  62.7636051   0.5568462  78.5473967  19.3147683  15.8557987
  77.9601145  19.9772477  16.2197328  77.9640961  18.6808944  15.4384291
  32.3685098  23.3942008  18.2456136  33.0890822  23.8814235  17.8460872
  32.7478528  23.0112505  19.0366125  54.8412323  77.1233463  26.4091349
  54.0360451  77.0994711  25.8920884  55.3348923  77.8604746  26.0497332
  72.0631861 103.4075701  74.6226457  72.3447393 102.9694235  75.4257575
  71.6518020 102.7160751  74.1041521  44.2122746  18.6361694  22.5043392
  43.8766098  17.9943573  23.1301498  45.0441122  18.9245915  22.8799653
  25.7392926  21.0596295  88.1576869  24.9917455  21.2068149  87.5782565
  25.8178849  20.1070949  88.2099945  42.3602290  19.9885293  89.8851361
  42.1275230  19.1799422  89.4287763  41.5999313  20.5578347  89.7664840
  48.4959745  69.5426559  13.7639403  49.0784931  68.8934231  14.1581476
  47.8013754  69.6654463  14.4109988  38.0545521  56.3264132  28.7096763
  38.2604861  57.0339203  29.3206191  37.1151805  56.1798716  28.8207603
  12.2736446  72.2602797  20.8011436  12.1401874  72.4229193  21.7349362
  11.4480106  71.8776178  20.5042768  39.5727634  57.9637194  13.6031735
  40.5023098  58.1917143  13.6171150  39.1965413  58.5331011  12.9319847
  36.7297101  40.4819441  19.0773141  37.4287295  39.8344541  19.1687381
  37.1469498  41.2248898  18.6412191  62.4094105  42.8038979  27.1068454
  63.2072449  42.5443840  26.6460419  62.5881863  42.6049900  28.0259252
  34.7772737  35.7035562  77.4326602  35.4584546  35.9388276  78.0626396
  34.3931718  36.5405103  77.1714953  89.8562622  71.6072464  22.7736521
  90.4590607  72.1149826  22.2304416  89.3517494  71.0862923  22.1489096
 104.2130280  27.1485949  47.2377682 103.7598610  27.8535032  46.7751932
 104.9897671  27.5666237  47.6094627 100.6843662  21.2358570  23.1980205
 101.0266018  20.6243205  23.8500381  99.7527504  21.3100100  23.4049511
  41.8295908  33.0229521   2.1494438  42.2462845  33.7194324   1.6419867
  40.9247208  33.0079794   1.8376513   9.9508424  11.4966937  80.1389924
   9.2672153  12.1576901  80.2483610   9.4734807  10.6743165  80.0291756
  53.4746361  47.0127487  13.9268553  53.1656790  46.1315727  13.7163806
  53.2520866  47.5350332  13.1561923   2.3598952  95.9614352  17.0518482
   3.1568952  95.4403046  17.1490288   1.7033405  95.4934589  17.5677621
  38.9758420  18.8263524   0.5492184  38.1263781  18.4351540   0.3452388
  38.9851785  19.6480656   0.0583702  79.0297556  63.1021404  23.8125753
  78.4911013  63.0004740  23.0278802  79.1597748  64.0470505  23.8930655
  68.3862591  57.2207117   9.6585172  69.0852499  57.5657845  10.2140081
  68.7847137  56.4770412   9.2063838  91.5106010  10.3056192  20.8792210
  91.2036896   9.5786166  20.3374577  91.0487556  11.0709894  20.5369639
  70.5668163  61.3163900  39.3391871  71.4957333  61.5462780  39.3615556
  70.1255703  62.1268368  39.0848064  30.1658335  89.1932237  82.5511644
  29.8756399  89.2464006  81.6405652  29.6952620  88.4403669  82.9089341
  61.6205311  38.0956721   7.7044708  60.7647753  37.9905963   7.2886920
  61.8135834  39.0296125   7.6225060  83.9302968  97.0840752  76.6307071
  84.4272088  97.0802319  75.8126048  84.5377683  97.4417173  77.2782413
  89.8204803  82.8534508  39.3545246  89.4912815  82.3591995  38.6038041
  89.0327358  83.1641579  39.8007798  54.2491770  44.2681456   5.1208591
  55.2043009  44.2721081   5.1837349  54.0378237  45.0653696   4.6350610
   9.0344897  94.9709427  77.1418933   9.5872393  94.4387829  76.5696171
   9.5149603  95.0116074  77.9687706  63.6213875  77.6073074  25.6589580
  64.1067886  78.4269238  25.5649018  64.2986727  76.9347191  25.7306933
  82.6614189  30.8281064  48.6766195  81.9811153  30.8527303  49.3495321
  82.8026962  29.8956585  48.5128736  46.3252926  66.6098452  14.6803999
  45.7252407  66.1310816  15.2522016  46.3450623  67.4958706  15.0420582
  78.5153913  29.6557951  20.9864831  78.5286856  30.1316476  21.8169165
  78.0765581  30.2494907  20.3772354 106.4753388  64.4983434  80.0441686
 106.6199445  64.1320717  79.1717199 106.9077872  65.3519535  80.0202612
  50.4213996  14.7142001  87.6132462  50.4905791  14.7808953  86.6608817
  50.9194274  15.4623767  87.9425437  99.6898556  73.8674545   4.3007311
  98.8337040  74.1647053   4.6087506 100.3023338  74.5307589   4.6187285
  70.3452873  49.6342516  16.6014791  71.1975908  49.5030165  16.1860359
  70.0629187  50.4981327  16.3011372  89.3974876  87.8471661  13.8834846
  89.2250156  87.8684521  12.9421926  90.2025127  88.3537292  13.9909983
  62.6750326  56.8610573  25.4603410  62.1753740  57.6483345  25.6765890
  62.1456528  56.4155579  24.7988892  14.4924631  96.2938559  82.6907358
  15.0836459  95.6077921  82.3808244  14.8575869  96.5617144  83.5340426
  71.9919084  66.7823159  90.3225270  72.1518969  65.8440208  90.4237173
  72.0291971  67.1291422  91.2139043  44.1856146  33.9726543  17.8312027
  43.8205242  33.3448672  17.2076452  44.2565775  33.4827995  18.6504960
  31.2527609  27.9690623   3.4146613  31.2951088  28.7145996   2.8158197
  31.6020536  27.2353673   2.9087761  81.8464756  68.6261034  25.3635573
  81.6136074  69.1597939  26.1232829  82.2791767  67.8571272  25.7346058
  97.9546642  64.5563126  17.8668487  98.7145138  64.8117781  17.3437858
  98.2820129  64.5258570  18.7658191  42.2000837  62.1586895  22.8336954
  42.3312759  61.9302511  21.9134569  42.5559282  61.4139462  23.3184290
  61.4185286  32.2695279  18.5930359  62.1015692  31.6498780  18.8493884
  61.8844986  32.9552031  18.1145501  68.9975739  62.7748489   3.5284531
  68.3689737  62.2986317   4.0709576  69.3183184  62.1229458   2.9052544
  93.0712747  88.2566011  86.2671426  93.1379699  88.1503236  85.3182021
  93.7468051  88.8990557  86.4842684  61.1878014  41.5979624   5.1335251
  60.4824448  42.1206808   4.7521314  61.4919519  41.0447931   4.4139901
  59.4939327  60.4352045   4.6811393  59.6629763  60.9787607   3.9115950
  59.7773981  60.9725189   5.4208511  65.4691505  35.8799553  10.2782977
  65.6450748  36.6091323  10.8729279  64.9707937  36.2709832   9.5606834
  83.8870381 101.8675720  80.9369168  83.5623168 102.3605930  81.6903875
  84.7057675 101.4762604  81.2415377  61.2836742  96.5256691   3.3305880
  61.1796331  97.4603939   3.1525761  61.5895462  96.4870167   4.2367789
  22.8285356   2.8572532  90.2429485  22.4349828   1.9861098  90.2925594
  22.8871103   3.1458303  91.1537302   0.0152103  30.8842063  34.2887950
  -0.5388650  31.6478825  34.4501519   0.6792823  30.9203506  34.9772167
 103.0776624  11.2561723  85.6238130 103.9523224  11.6290303  85.5134711
 103.2321671  10.3913089  86.0037786  55.3745747  26.8424988  26.2581944
  54.5242929  26.7120051  25.8384061  55.9741640  27.0221782  25.5340099
  18.2802129  49.8805475  35.9438419  18.6186814  50.5219030  35.3190756
  18.8055527  50.0143290  36.7327356  63.9186144  60.1449442  19.4508708
  64.2071867  60.1078224  20.3627801  63.3597326  59.3750954  19.3449795
  82.1633244  68.4609461   6.5764070  82.4542046  67.6215887   6.2199032
  82.6239777  69.1162825   6.0524225  52.4704552  80.5889225  14.3871748
  53.2949638  80.1072693  14.4536555  51.9072056  80.1924610  15.0518560
  42.8937054  37.3124504  26.3040924  42.1513796  37.8821850  26.1026263
  42.8928518  36.6609597  25.6028104  64.8003626  58.8153362  36.0727596
  63.9297724  59.2089462  36.0146594  65.1092529  58.7824488  35.1673675
  91.7842960  74.3754292  57.5278997  91.7498875  75.0436401  58.2123995
  91.6275024  73.5515833  57.9893255  71.0032558  58.5761452  31.5109801
  71.9105434  58.6222744  31.2094212  70.7588100  57.6579428  31.3953257
  96.6999626  88.6886787  29.0821505  95.9016800  88.9561367  28.6266899
  96.3885784  88.2556725  29.8769951  15.9907336  17.6541873  89.0999963
  16.0156055  16.7454310  88.8003794  16.2651773  18.1650563  88.3384657
  84.5038128  86.7529392   2.4145895  84.8566818  87.3352909   1.7418496
  85.1085854  86.0111618   2.4304870  43.1379028  45.0141355  86.5673063
  42.4045797  44.4321939  86.3677896  43.2878490  44.8974916  87.5054649
  42.3477936  92.2124386  45.2582836  42.1756315  92.2000885  46.1997938
  43.2210922  92.5963306  45.1795053  73.4680653  69.2516327  20.9048462
  73.0039454  68.4206390  20.8034778  74.3797588  69.0002871  21.0527349
  42.3883386  13.4113427  73.8737110  41.8090434  13.6035701  73.1363515
  43.0544276  14.0979596  73.8403300  42.4806113   8.2880851  84.0682450
  42.7826781   8.8859054  84.7520534  42.6540466   7.4148389  84.4198028
  74.1042185  59.2177868  27.1058154  73.4813643  58.9013863  27.7601671
  74.4660234  60.0179291  27.4867392  47.4650669  51.0078430   4.1574472
  47.7625370  50.1695442   3.8038966  47.5371075  50.9066105   5.1065487
  70.9898424  75.5211544  14.3743205  70.7370281  76.3119793  14.8506701
  70.1868916  75.2380610  13.9368713 105.5671978  57.7336550  35.1083946
 104.9358749  57.0188999  35.0260544 105.0898361  58.4228420  35.5703187
   4.5818893  76.4543533  30.7802153   4.4436256  75.7861853  31.4515328
   4.5206062  77.2846699  31.2525034 108.3410072  69.2008114   6.9801342
 109.1765594  69.6133518   7.1989894 108.4646606  68.8657713   6.0920525
  73.3335686 101.8202686  76.2682962  74.1268444 102.2005558  75.8910370
  73.5453415 100.8945084  76.3881111  77.7297163  92.6655102  39.4181395
  77.3100233  91.9112682  39.8319101  77.6138973  93.3784771  40.0462246
  78.9512825  69.5417976   9.7611797  79.1544914  68.8884878   9.0917575
  78.0020857  69.4850731   9.8708791  17.6063199  31.5575810  84.4064305
  17.8148313  30.6289121  84.5079998  16.7345138  31.6507169  84.7904948
  71.0864162  95.0681305  24.1156578  70.6846619  95.1572323  24.9798846
  72.0281029  95.0816345  24.2867494  43.2286925  26.5879794  81.6104404
  43.8694091  25.9588023  81.2789897  43.1024451  26.3411590  82.5266132
 102.8849411  94.6875095  38.8414884 102.5729942  93.8257027  39.1175461
 103.5059166  94.9468136  39.5222139  69.6315479  77.8394175  15.3943956
  69.2443991  78.3130980  16.1305881  70.1671648  78.4926987  14.9443173
   3.9157859  78.3975506  16.1233377   3.5028449  77.9052448  15.4138684
   3.8019935  79.3151999  15.8759511  15.4592315  73.3229065  20.9470916
  15.2885620  72.7381849  21.6854692  16.0565750  72.8301334  20.3844380
  73.0606937  95.7018566  46.2044430  73.9961433  95.5026436  46.2429523
  73.0087948  96.5104485  45.6948233  57.6951595  39.7815629  68.3080391
  58.0628963  40.6649800  68.3317999  58.1898017  39.3346234  67.6211528
 108.1506443  60.0215816   5.9862131 108.8630104  60.2631426   5.3942531
 107.7017593  60.8467722   6.1700439  37.3767133  45.0372811  71.3144985
  37.4949069  45.5390664  72.1210185  37.5981422  45.6522294  70.6151894
  72.2702551  70.6853437  11.3700855  73.1533003  71.0535908  11.3408267
  72.3454046  69.9287748  11.9516218  66.0549784  73.5415936  13.0034351
  66.5223885  72.8584480  12.5227344  65.2836037  73.0996943  13.3583200
  60.7950735  34.8375797   9.0830129  61.1269093  35.5656409   9.6084130
  60.7187366  35.1956987   8.1986183  72.8105164  51.9480705  26.9027710
  73.7209225  52.0520306  27.1795225  72.2978210  52.1469021  27.6862502
  80.1006889  74.8271704   1.1106881  79.7428083  74.4722462   0.2969427
  79.3307495  75.0455952   1.6357715  69.0486097  65.5806589  23.5413551
  69.0087986  66.4881802  23.8431048  69.4131851  65.6376982  22.6581430
  78.9604568  22.0763803  20.6568027  78.8853121  22.7713156  21.3107538
  78.4037399  22.3663211  19.9341452  59.5592308  83.8726330  21.5832329
  59.4485903  82.9955673  21.9503069  59.1418695  84.4530773  22.2197318
  99.0888214  45.4973745  42.8078842  99.4607067  46.0567951  42.1259928
  99.8150444  44.9362230  43.0798006   5.2757211  49.5411798  89.0120996
   4.8655935  49.0898152  89.7498620   5.9405608  50.1008435  89.4133437
  95.0246048  63.4704781  22.9754519  94.0882111  63.6420155  22.8755498
  95.3263569  63.2657623  22.0904279  57.0252705  77.9565144  15.2169204
  56.7474365  77.0544147  15.0579822  57.9814100  77.9136992  15.2309799
 107.7258778  78.7164879   3.0107790 107.8877640  78.2492828   2.1911766
 107.3834038  79.5675850   2.7377015  69.8380327  55.8494234  31.4747763
  70.1219130  54.9938869  31.7967963  69.2585468  55.6485081  30.7398891
  -0.0460919  64.9497461  16.8929207   0.6408397  65.3262424  17.4430251
   0.3582851  64.1757536  16.5009391  29.5329261  36.2438130  28.5185313
  28.6057448  36.1962986  28.7515759  29.9525189  36.6362286  29.2841554
  62.4015665  68.2888889   8.7736148  63.1194019  68.8837099   8.9907128
  62.2036409  67.8419495   9.5965981  42.2450156  28.1240102  86.0610557
  41.5549369  28.7649938  85.8902941  42.5486512  28.3288308  86.9454125
  75.4985762  33.0909419  44.0273666  74.8245716  32.5267673  44.4063950
  75.0146961  33.7024236  43.4722233 104.0564251  84.4626427  31.5929890
 103.3070183  84.1359520  32.0908737 104.3498516  83.7096214  31.0800719
  71.9505358  83.6585999   7.9009438  71.5839100  83.4211254   8.7526608
  71.9502354  84.6157932   7.8985220  52.2580524   7.9252835  90.4474988
  51.6499324   7.6635571  89.7561806  51.8807597   7.5618192  91.2486119
  82.9360485  62.8114700  54.3677235  82.6686382  61.9333410  54.0964127
  83.7768841  62.9510736  53.9321375   4.8572440  30.9345456  68.8253168
   4.8274417  30.5394193  69.6966485   4.1435905  30.5129357  68.3466009
  60.6812954  76.5406847   5.5134696  61.6120052  76.5454721   5.2898932
  60.2780914  75.9826088   4.8484772  60.7275009  75.2601004  37.0905232
  61.6803885  75.3480387  37.0680261  60.5546522  74.4182205  36.6690993
  56.7983718   3.8823243  88.9544409  57.2030921   3.1763049  89.4583892
  55.8979030   3.5900374  88.8131896  86.3636494  71.0751200  13.4034550
  85.6987190  70.6504345  12.8614700  86.8891716  70.3529072  13.7476325
  11.1026470  48.0518436  18.4306777  10.6290904  48.7909985  18.0490613
  11.6723625  48.4472990  19.0904260  54.4326591  75.1510620  37.7725315
  53.5685539  75.0637388  38.1749439  54.2647219  75.1016188  36.8314767
  34.7307658  31.4565468   4.2993674  33.8700271  31.3271976   4.6976468
  34.5940542  31.2754178   3.3694568  46.9650221  64.4577599   8.5633105
  46.8095922  65.0727081   9.2801863  47.6778507  63.9006567   8.8759530
  95.0447464  88.2510376  10.9932911  94.9843502  89.1591835  11.2896943
  94.2037773  88.0811882  10.5688512  59.3028922  11.7831632  67.0792440
  58.4851070  12.1819421  67.3766020  59.0299125  11.1251803  66.4398912
   2.2965518  55.2150726  14.6860087   2.9234401  55.0710058  13.9771414
   2.8069583  55.0904560  15.4861283  76.3450193  67.5579405  59.2150545
  75.8683681  67.3250914  58.4183025  76.5783834  68.4783602  59.0942001
  38.5308409  55.1998234  19.2231989  38.6529088  55.2158689  20.1724482
  39.2379856  54.6413946  18.9001870  94.2324924  49.0585899  29.0102983
  94.5097446  49.9727917  29.0703058  94.4306755  48.6911726  29.8716688
  26.7825599  22.6606008  74.3881980  26.2931724  23.0994864  73.6924163
  26.9759460  23.3540221  75.0190726 110.1544285  88.9419556  41.5151978
 109.9445057  88.9025497  40.5821323 109.3924522  88.5575008  41.9485760
  86.8394375  53.0766010  34.5460677  86.4819145  53.7344599  35.1424170
  86.4300156  52.2562647  34.8211241  37.4513574  34.0262338  89.4008473
  36.8692918  34.2766019  88.6833859  37.0549579  33.2351514  89.7659336
  51.6267443  44.4891405   2.0879947  51.7196369  44.9020720   1.2294544
  51.6790867  45.2149820   2.7098012  52.5541687  29.2417812   9.9787414
  53.0384874  30.0520968  10.1370311  51.9512844  29.4581389   9.2674375
  98.1126308 104.4258690  41.0971498  98.0508804 103.4869671  41.2729120
  98.9780140 104.6740150  41.4223719 108.5004238  22.1411439  81.8939719
 107.7002600  21.7235013  81.5753177 108.4946564  21.9811030  82.8376797
   4.8745575  99.4222605  82.7088842   5.1972428  99.0529167  81.8868796
   4.0131417  99.7776043  82.4899701  76.8118525  72.8764820  16.4532948
  77.3654556  73.3089399  17.1034741  77.0591402  73.2803965  15.6214678
  60.9313293  46.5263577  83.5774866  60.6455226  47.4380513  83.5194621
  61.7509074  46.5632077  84.0706131  61.4107704  81.6545105  27.0476246
  61.0040760  81.2299919  26.2922311  61.3515091  81.0048676  27.7481127
  50.2549171  75.6702852  23.1973410  49.5973873  76.0633230  22.6233959
  50.4840946  74.8453569  22.7693224  57.6519346  45.1990461  18.0475855
  57.1621609  45.0399733  18.8544619  57.3483610  46.0560226  17.7481341
   6.3426868  41.6512728  28.5219836   5.9932510  42.3415804  29.0855527
   7.2801773  41.6364479  28.7146211  86.2607288  52.5683641  23.0342412
  86.1179924  53.5055780  22.9020071  86.9328880  52.3357391  22.3936796
  48.3491850  68.8986063  11.1932278  47.9490662  69.3370247  10.4422772
  47.9750681  69.3401718  11.9556510  75.3358841  77.6169014   4.1534117
  74.7239780  76.8913651   4.2774859  74.9228668  78.3572292   4.5978963
   1.8531962  45.6585618  86.6779700   1.0447974  45.2535649  86.9921330
   2.5184174  45.3876134  87.3106590  89.2906857  52.3590326  33.7816477
  88.4554768  52.6566172  34.1423535  89.3285179  51.4282131  34.0015984
  91.9603443  80.9747028  21.7785478  92.5898361  81.6890717  21.8766999
  91.9155121  80.8229828  20.8345127  72.8709078  68.0220413  36.9435573
  72.9524851  68.0995750  37.8941178  73.1570435  67.1292114  36.7506409
  81.7640877  78.3817863  41.9911861  80.9058952  78.1109476  41.6650105
  82.0431519  77.6621914  42.5573444  55.1163530  68.0977869  32.6873899
  55.5567360  67.6747799  33.4245181  54.3741179  67.5259447  32.4916506
  76.1264896  58.8233280  35.8649468  75.2356625  59.1157293  36.0577059
  76.2650299  58.0769634  36.4480281  76.9586515  41.2038326  37.9907227
  76.1896658  40.8836222  38.4622693  76.6081905  41.5576506  37.1732759
  80.8878994  70.8950949  54.3052197  81.0737133  70.2435732  53.6290312
  81.4961624  71.6110134  54.1216087  74.2064238  64.5334435  16.8388796
  74.2196608  64.3721342  17.7822959  73.7230015  63.7913656  16.4757669
  66.0876465  82.9861450  28.3404469  66.7633295  82.7519321  27.7041864
  66.1536074  83.9377022  28.4205461   6.4316840  28.2401677  69.8342398
   6.4016767  28.2294198  70.7909087   6.3325877  27.3223563  69.5811752
  79.3178558 100.8997917  12.3225522  78.7886524 101.0507870  11.5393710
  79.6444464 101.7671490  12.5618303  58.2779884  93.5290051  57.3458052
  58.2470608  93.1193829  58.2103777  57.5521946  93.1302547  56.8657494
 107.3639965  71.4930058  26.3798118 106.4388561  71.6729403  26.5470791
 107.5635815  70.7347250  26.9288182  45.7219978   7.4288817  62.1713499
  45.8161349   8.2894584  61.7629675  46.5717788   7.0078870  62.0414785
  79.5849800  99.2044640  53.0705500  79.4280624  98.4473515  53.6348152
  78.7432098  99.6591473  53.0402327  84.0272617  69.3354607  23.8470793
  83.2368565  69.1972494  24.3689895  84.1748810  70.2805758  23.8816643
  29.0077396  16.0783931  82.2475479  29.4542928  16.8582078  81.9178388
  28.1643481  16.0759660  81.7948691  72.0791006  49.8490191   2.4417396
  72.0382500  50.7902575   2.2725029  71.1643600  49.5820093   2.5322086
   1.0688011  75.7071400   9.8189521   1.1661807  76.1358118   8.9686656
   1.9621173  75.6370115  10.1555407  66.2266207  69.7772646  46.3038397
  66.9218588  70.0464106  45.7034731  66.4095116  68.8551521  46.4841127
  77.4775267  90.3041649   8.1349778  78.3984375  90.3418541   7.8766394
  77.4865866  89.8794556   8.9927495  90.8147335  83.8866997  11.5766871
  90.5185604  84.7732830  11.3705802  90.4331493  83.7000370  12.4344611
  90.6289673  48.5758495  11.9109571  91.2977409  47.8934813  11.9688582
  91.1122417  49.3947744  12.0206988  75.4991198  71.3801813  38.8013577
  75.9429693  70.8688354  39.4779301  75.6380463  70.8827829  37.9954267
  73.8098335  44.9004126   3.7905690  74.6173000  45.4144478   3.7902191
  73.4191942  45.0686264   4.6480861  76.5872383  50.7347393  24.3861508
  76.0288095  49.9685001  24.5175338  76.0024643  51.3969421  24.0176892
  75.3795242  69.3722343  47.1881628  75.7392168  68.5709858  47.5687551
  75.5570364  69.2928648  46.2509203  79.9294138  87.0720100  80.1059532
  79.1797352  86.7393684  80.5994797  79.9474669  86.5401077  79.3103456
  56.4355803  77.1933365  36.5579629  56.6367722  77.4150467  35.6487870
  56.2736559  76.2500286  36.5442586  83.5543919  54.5191479  19.3560350
  83.6221027  54.8668623  18.4667993  84.3687344  54.0331173  19.4858134
  73.4523630  54.5955229  30.5649829  73.8407087  55.3506851  31.0067344
  74.1581821  53.9499521  30.5291033  52.8293085  91.8539810  31.0895562
  53.1814861  92.6523590  31.4830017  52.1716595  91.5489101  31.7145824
  84.8437023  81.9214344   7.2401702  85.6522274  81.7629719   6.7529148
  84.3426895  82.5189400   6.6850144  90.1486492  79.4317293  74.9714136
  89.5504665  79.0492201  74.3294621  90.2570057  80.3392029  74.6868563
  85.2745819  81.9812298  32.1380663  85.0617409  81.7876720  33.0510116
  85.7542801  82.8087616  32.1742249  30.5246539  28.2123490  78.8697878
  30.4982467  29.1023465  79.2211119  31.4572902  28.0038186  78.8155953
  38.5599470  55.7181358  22.2347879  38.4593916  56.6350126  22.4906445
  38.9985037  55.3081465  22.9803133  63.0940819  76.8004847   4.3312454
  63.7452173  77.0486736   4.9874896  63.4810209  76.0489035   3.8822082
  99.9884129  31.3201284   9.7632861  99.3584633  31.6434646  10.4073727
  99.4603062  30.8172011   9.1432905  58.2620955  89.0774250  36.0214639
  58.3878469  88.7594986  35.1274061  59.0399027  89.6062374  36.1992478
  39.8710561  54.5247030  29.8771238  39.4681859  54.3695688  30.7314420
  39.2071199  55.0056028  29.3830037  76.3181973  39.7487116  16.7163956
  76.7752790  38.9213014  16.5657258  76.8678999  40.2147436  17.3463738
  52.4794340  68.3455372  35.9928989  53.1417179  68.0667734  36.6252804
  52.9806852  68.6052608  35.2199054  65.8113241  85.6660366  40.9497547
  64.9848175  85.5327797  41.4138317  65.9129190  86.6169834  40.9097433
  79.5731163  61.8879652  34.7123671  79.1174746  61.6242313  35.5117822
  80.4820061  61.6247225  34.8567796  71.5220261 103.9775276  57.3459482
  72.4117184 104.2456913  57.1162415  71.0468054 103.9875698  56.5151072
  56.9473267  63.8217545  16.0672355  56.8602896  64.7747660  16.0466385
  57.1182442  63.6166668  16.9864523  96.5581799  60.0191784  30.4940677
  95.6602383  59.8691797  30.7897615  96.8256569  60.8233976  30.9389520
  76.1921501  64.8953915   3.6285505  75.9591866  65.7178831   4.0592125
  76.9031858  65.1302481   3.0323043  57.8478999  27.7986356  69.5733503
  58.4587856  28.0209847  70.2759269  57.0380206  27.5628778  70.0258330
  92.2639561  89.1968632  11.4834547  91.4291954  89.6534348  11.3787913
  92.7273083  89.6960545  12.1560204  77.6430035  58.4226608  13.6170173
  77.7555466  59.1932011  13.0603862  78.3996964  58.4379387  14.2030287
  84.7105980  86.0760593  50.2099276  84.5748138  85.1684380  50.4820061
  85.5368710  86.3285542  50.6219339 106.9432687 101.4150679  86.0628129
 107.7064704 101.7806208  85.6154624 107.3107146 100.8979618  86.7796258
  86.4475441  53.1517553  26.0051727  86.4452076  52.6319408  25.2014184
  85.9784222  53.9532804  25.7733989  59.1408539  91.4289856   9.1182977
  59.8880339  91.1231613   8.6040771  58.7713432  90.6330395   9.5006055
  33.1640811  44.3933507  84.2890481  33.0438991  43.5816308  84.7818927
  32.3005099  44.5800611  83.9207951  19.7417684  24.8624536  72.7057222
  19.6742339  25.0332042  71.7662994  19.5089574  23.9386531  72.7985958
  69.7364759  54.1037893  12.0548034  69.6471214  54.2705822  11.1164927
  70.2596045  54.8366404  12.3795938  14.8246661 105.0353777  87.9132173
  15.2538195 104.2449391  87.5856939  14.2190256 105.2856981  87.2155282
  43.7698550  20.9493657  86.5624461  44.4947047  20.3333970  86.6692362
  44.1132064  21.7818566  86.8869523  69.6500011  38.5533830  77.8416542
  70.3773208  38.0148240  77.5298861  69.5445152  38.3049890  78.7600247
  97.6000881  62.6048899   7.7563119  97.6447868  62.8019142   8.6919481
  97.0110321  61.8526745   7.6978230  81.6765404  58.0731440  18.7564170
  81.4928913  57.3812437  19.3918538  82.1143436  58.7555599  19.2652059
  86.6921711  94.1545582  46.3520765  86.3635921  94.5285892  47.1696186
  85.9661674  94.2509747  45.7357502  87.0418739  60.8769989  39.6018076
  87.9292393  60.5815172  39.8055267  87.0652390  61.0780525  38.6662507
  68.0253983  89.2609882   3.8822860  68.2629156  89.3061447   4.8084489
  67.4453306  88.5020828   3.8205078  77.4186182  74.0886593  39.4060445
  77.0076942  74.5820570  38.6961627  76.6881371  73.8106108  39.9585962
   1.8196002  89.6156883  28.0773187   1.4483730  89.8950386  27.2404242
   2.0073692  90.4320621  28.5404706  72.6381254  90.8383274   8.1669050
  72.5500584  91.5841389   8.7603986  72.4908781  90.0722027   8.7215221
  55.8303738  53.8692760  32.6903844  55.5102015  54.7304106  32.9590249
  55.9838867  53.4036589  33.5124946  80.7071972  36.6382813  12.9249406
  80.3529739  35.7852960  13.1762874  80.3749752  36.7840028  12.0391488
  38.5020919  23.2144662  86.5503157  38.0228038  22.9393455  85.7687638
  38.4081073  22.4818822  87.1591789  75.8183527  35.2067137   5.0488800
  76.6202927  34.7449207   4.8041886  75.7589197  35.0970888   5.9979224
  87.8457355  32.9595900  43.9842558  87.3940277  33.7610292  43.7198925
  87.7569008  32.3751307  43.2314301  55.5719371  27.4882051  82.5285450
  55.1393886  28.2304402  82.1063844  56.4021964  27.8435823  82.8457460
  98.7705803  70.6867552   7.0103300  97.8344059  70.4932690   6.9614863
  99.0674877  70.6647158   6.1006105  85.9441280  87.6121140  63.2261419
  85.6126499  88.4806919  62.9982662  85.5110168  87.0212460  62.6100922
  64.0178013  14.1268849  12.9654527  63.9505816  14.3284190  13.8987792
  64.6345043  13.3961165  12.9220259  39.6400972  19.2181512  86.3099364
  40.3749414  18.6851665  86.0063458  38.8645501  18.7749883  85.9658975
  39.9893355  27.5842094  30.8802271  40.1193571  26.7933059  31.4034843
  39.2886949  28.0564713  31.3300061  65.4240131  65.1493692  17.9088914
  65.1539612  65.4917192  18.7610102  64.6255112  64.7742891  17.5374806
  46.2300348  71.2327719  18.9789391  45.6592131  71.9555473  18.7181973
  47.1143913  71.5953588  18.9272416  88.1281281  35.3180099  11.4044070
  87.8621387  35.4856324  10.5003130  87.3212242  35.0538278  11.8463969
   6.1217204  38.1775832  25.7252288   6.6378204  37.5222731  26.1947417
   5.7346717  38.7167716  26.4149427  89.5870018  50.6002855  47.2209930
  89.3895149  50.2464628  46.3537931  90.1106167  49.9196434  47.6438236
  96.5746212  87.2951889  13.1148422  95.9873199  87.3910713  12.3651016
  96.5668297  88.1544209  13.5366201  76.2513256  63.3910942  36.7778087
  76.6895056  62.5445271  36.6909242  75.9847355  63.6154175  35.8862710
   0.7895557  33.6660242  25.2424240   0.4008476  34.5406556  25.2550077
   1.2548725  33.6227179  24.4070554  92.6591587  88.4603214  34.7581077
  91.7056179  88.4442997  34.8401070  92.9059124  87.5415611  34.6521354
  74.7574472  64.1363573  19.4140017  74.6015739  63.9270449  20.3349376
  74.9774170  63.2962894  19.0113544  99.4103146  39.9242949  13.8398349
  99.0827370  39.0686131  14.1168416  98.8844681  40.1446199  13.0709529
  70.5288839  75.6392908  43.5880709  71.0753632  76.3697243  43.2981443
  70.6681824  75.5967140  44.5341206  76.8010855  71.0113382  31.2994790
  77.7067757  71.2576771  31.4872956  76.7812395  70.8759356  30.3521109
  84.2419624  86.7581081  37.5709152  85.0427246  87.2173500  37.3177147
  84.0138912  86.2334633  36.8034816  32.8538795  27.0931121  85.7667664
  33.7357087  27.4342605  85.9158662  32.9000230  26.1791535  86.0474489
  63.9579201  78.8290453  50.1925898  64.8040438  78.4962606  49.8933172
  63.9283705  79.7306633  49.8725224  77.7574730  32.1776295  45.0586224
  77.0277786  32.5693774  44.5787144  78.0223513  31.4297652  44.5231104
   3.2392970  56.4214420   3.8165450   3.8771621  55.7153797   3.7124783
   2.3888675  55.9902477   3.7324253  59.2620707  94.3790531   7.1420765
  59.1763687  94.1733170   6.2111849  60.2018738  94.5036507   7.2742987
  74.7599936  79.2359066  53.9083338  75.3569221  79.9679232  54.0634537
  74.4733667  78.9712238  54.7824144  58.3760118  72.8907347  20.3806829
  58.8227320  73.4792328  20.9892368  58.9547729  72.1312904  20.3135228
  16.1737008  39.0300675  76.3191525  15.9640737  39.7621270  75.7391707
  15.4597135  38.4066697  76.1856428  73.1970835  71.7198563  44.9207830
  73.2416868  71.0903931  44.2010450  73.1281757  72.5718260  44.4899416
  55.9601974  77.4824429  39.1506290  56.0623169  77.4055290  38.2020044
  55.1535034  77.0049381  39.3441820   6.2281366  25.7702466  86.4196140
   7.0871635  25.6776925  86.8316058   6.3785167  26.3621779  85.6825683
  27.4472470   3.0036469  87.5150726  28.2914825   2.6110240  87.7372003
  27.1088786   2.4582454  86.8049500  28.2345104  82.0565128  18.1172335
  27.2873330  82.0859528  18.2522297  28.3910894  82.6552677  17.3870206
  54.0308142  51.3213396  24.0258002  54.2221546  51.5258455  24.9411154
  53.4969139  52.0557833  23.7228489  89.1399670  60.8203316   9.0436047
  88.5780525  60.4498911   8.3629733  89.0588093  60.2122688   9.7783864
  76.3896561  65.5119562  41.1300230  76.0525274  64.9256659  40.4526472
  76.1940098  65.0644016  41.9532204  58.7488174  66.0762262  46.9925451
  58.2124043  65.9275627  47.7712584  58.6019230  66.9961548  46.7725754
  61.4500046  59.4232559  22.7898693  61.7984343  59.8662710  23.5635376
  60.8619785  58.7546682  23.1412125  90.5945587  92.9920292  26.7637897
  90.4844856  93.2383633  25.8454013  90.1688290  93.6958885  27.2532392
  32.8886647  10.4581567  84.8984448  33.5846563  10.2808352  84.2656884
  32.4656482   9.6101304  85.0331238   0.7249633  62.6041889   1.6308635
   1.1799041  62.9488993   0.8624605   1.3979141  62.5659943   2.3105061
  58.8123226  82.8853607   1.4809917  58.0990505  82.4987602   0.9730397
  59.4806004  82.2008991   1.5148795  34.2585941  23.4942122  72.7810291
  33.4941907  22.9204293  72.8329030  35.0070949  22.9052182  72.8762523
  43.9504051  92.3614407  16.2741661  44.5140457  93.0186844  15.8660412
  43.5959911  91.8604088  15.5395937  62.7714682  87.0981979  26.5600801
  63.1001282  86.7431450  27.3860073  63.0067253  88.0256271  26.5875721
 107.1466541  71.9731092   0.9743059 107.8696251  71.5498638   1.4373420
 106.4325714  71.3368177   1.0125030 104.2718457  93.7827694  57.3927907
 104.3755816  94.5299494  56.8035558 105.1651811  93.4793388  57.5543884
  76.8923469  28.0353566  82.4500606  76.3738151  27.4704524  83.0229834
  76.4636321  27.9693337  81.5967891  60.8477402  71.5199137  10.1423454
  61.1098957  71.6148520   9.2266524  61.4264679  72.1141720  10.6200099
  97.6826191  60.7178068  43.8580847  98.5801315  60.4333305  44.0306568
  97.7630901  61.3380146  43.1334496  37.5822730  25.5307027  87.8739101
  37.9901834  24.7843619  87.4348027  36.7531915  25.1882335  88.2079238
  29.5452777  86.4085197  20.8028579  29.0571491  86.6021919  21.6031456
  29.3796150  87.1599293  20.2335000 106.7036057  72.5035572  19.1490495
 105.8407021  72.0903826  19.1792846 107.0700264  72.3569822  20.0211048
   1.1166755  58.8338947  13.6250246   0.2794448  59.2765522  13.7640536
   0.9839145  58.3137846  12.8325021 102.0211792  76.9673061   6.9832683
 102.3528099  77.8421783   6.7811513 102.7827930  76.4938974   7.3180383
  65.7618093  83.1965923  23.3935738  66.3148212  82.5363922  23.8113618
  65.9766197  84.0112782  23.8478684  68.4312582  53.7246418  18.6095154
  68.0409288  54.5430422  18.3027637  67.6897573  53.2107687  18.9294302
  93.8573933  97.7376842   6.0814661  94.6906662  97.3423767   5.8253437
  93.4570885  98.0090332   5.2554142   0.4482308  90.5546629  77.1280185
   0.0178995  91.0687220  77.8112379   1.0569563  91.1671412  76.7150334
 110.6349234  12.4499616  37.0622087 110.5057673  12.7999410  37.9437208
 111.5773635  12.5226506  36.9113588   0.3042885  26.5521630   5.5382037
   0.9093662  27.0339974   4.9743289  -0.5607609  26.7314347   5.1697153
 100.8030415  61.1088133  51.2440872 101.4176083  60.3918266  51.0876751
 100.6647396  61.1034060  52.1912289  82.5929451 103.1094170  31.3621497
  82.1797371 102.2474575  31.4122009  83.5258770 102.9221249  31.2582517
  69.2633152  59.2040730  34.9770522  68.9674807  59.6996546  34.2134309
  69.5186043  58.3513689  34.6249843  51.8218708  72.8625345   5.2375507
  52.5468111  73.3250189   5.6580341  51.2593794  72.5895548   5.9623373
  48.4956641  33.0857488  84.1837195  48.1129260  32.4948426  84.8322455
  48.0825420  33.9316197  84.3571142 102.2891426 102.4983597  52.8055191
 101.3428020 102.4574566  52.9433918 102.6104546 103.0564785  53.5136795
 104.5379257  92.9190922  27.6600266 103.6392021  92.6156616  27.5317454
 104.6321583  92.9941082  28.6096191  47.4275012   7.7960082  86.4132658
  46.6349788   7.4160501  86.0340959  47.3763557   8.7260695  86.1928067
  69.4461536  60.9201288  53.0135632  69.3247461  60.0052452  53.2674837
  70.2908564  61.1637163  53.3922052 106.5386677  76.4521599  13.8765538
 107.2556686  76.4504671  14.5106959 105.7878780  76.1117077  14.3630075
  97.1718502  96.2909412  20.0670075  96.5575027  95.9515667  19.4161320
  96.6687298  96.3162708  20.8809209  95.8589649  59.8317385  52.8167915
  95.4302406  59.3387842  52.1172047  96.0864162  60.6699705  52.4144602
  54.6374512  86.8827629   0.2120782  54.9834681  86.0885620   0.6192014
  54.6281338  86.6870785  -0.7248599  76.7263985  54.7492504  32.7748561
  77.6531029  54.9867916  32.7427220  76.6548824  54.1652441  33.5298777
  58.0271673  93.2749557  25.4536152  57.4531317  94.0395927  25.4987502
  58.2073402  93.0564117  26.3679528   8.7755958  70.9725618  55.4248238
   9.2495529  70.3027439  55.9177113   8.7163822  71.7151976  56.0258341
 102.8735161  89.6191978  51.3078022 101.9976616  89.9917126  51.2060738
 102.8407764  89.1552544  52.1444130  58.2442374  14.1829844  87.9955984
  58.2173438  14.7896310  87.2556702  57.6809020  13.4561177  87.7299765
  41.0697317  71.9011116  41.9359398  40.4048824  71.2460470  41.7235994
  40.8633947  72.6442719  41.3690424  10.9807769  66.7011595  43.9368677
  11.5252582  66.7861986  43.1542158  10.1334945  66.4011335  43.6077547
  65.3895283  69.1448784   9.5039171  65.1712847  69.1123724  10.4353392
  65.9095907  68.3557606   9.3520916  66.2580395  85.0451565  36.5652537
  65.7472658  85.8271599  36.7745757  66.7604733  84.8673344  37.3603463
  67.0899391  75.9978485   5.1483285  66.8670940  76.7862844   5.6432462
  66.7066622  76.1418533   4.2831144  32.9769512   5.6870660  58.4985685
  33.4146305   5.1962384  59.1940975  32.0435997   5.5432328  58.6547804
  34.6147248  21.5413293  36.1472154  35.5022904  21.7932710  36.4021492
  34.4850632  20.6820592  36.5485406 101.6179085  91.2441826   2.0195019
 102.1918678  91.3691425   1.2637293 100.8012581  91.6793156   1.7746015
  90.6906986  83.4522820  33.9973330  91.3265228  82.7376842  33.9612484
  89.8455715  83.0157375  34.1042519  50.2394481  46.6984578  83.2488385
  50.2096362  47.5639077  83.6566875  51.0725398  46.6842767  82.7776948
  94.8887253  78.9943933  34.6129322  94.3533039  78.6833477  35.3428674
  95.1616192  79.8739910  34.8738432 110.6303883  87.2225094  17.3607135
 110.4914951  87.6835155  18.1880105 111.4600277  87.5674534  17.0306635
  88.6234379  37.6651669  13.2040536  88.4986019  36.8915486  12.6543593
  87.7994537  38.1467152  13.1305218 111.2854862  61.3500166  41.0430670
 110.6633472  61.3833475  41.7697477 110.7499313  61.1370277  40.2788353
  93.4060192  84.5091534  12.3344994  92.5456619  84.1812897  12.0727372
  93.2164192  85.2864552  12.8599346  69.3748331  75.1927280  28.3283806
  68.8395405  75.9225512  28.0168462  69.8001194  74.8542023  27.5404954
 110.7851505  74.2859554  34.2329311 111.5487671  74.8548365  34.1354489
 110.1583290  74.6138334  33.5880852  97.7866077  62.3892403  55.1488256
  97.7197361  62.9384184  54.3676949  96.8842316  62.1331835  55.3395557
  87.2404289  96.1693382  59.5253086  87.4575138  95.5110550  60.1854372
  88.0874538  96.5168095  59.2459583  35.1478314  33.6119056  40.4536629
  34.7957492  34.1770625  41.1413145  34.9166059  34.0552974  39.6374702
  68.5208941  46.9128275  10.0386953  68.3683348  46.4500570  10.8625877
  68.8166380  47.7835894  10.3042912  58.4485717  46.2986012  84.5272378
  58.3697696  46.5559693  85.4458145  59.3776412  46.0983106  84.4134728
  29.8465725   9.1590318   4.5470375  29.4736763   8.2774648   4.5525134
  30.4046246   9.1782102   3.7695724  79.3743849  54.8857737  33.4641695
  79.7184658  55.2249908  32.6378703  80.1529408  54.6908236  33.9857888
  17.5770179  92.2609901  32.9210019  18.3599941  92.5574780  32.4570203
  16.8678848  92.3684216  32.2871065  83.3512111  58.0606767  73.5397867
  83.2622237  58.8504716  73.0063788  84.2372031  57.7473756  73.3578972
  77.3789310  92.5501060  29.2494202  78.1611061  92.6241970  28.7026644
  76.7061234  92.2092247  28.6600399  25.5707240  62.5057650  16.7168117
  26.4061308  62.0702410  16.5475595  25.5734038  63.2642269  16.1328912
  55.8969879  81.1073303  58.3112049  55.2888775  81.5875816  57.7492476
  55.8450270  80.2028084  58.0023909  94.8365593  89.7482681  33.7803364
  94.4131088  89.1431141  34.3891835  94.5344448  89.4689846  32.9160690
  95.4096413  71.8476248  19.0262616  95.9639931  71.5911341  19.7632420
  96.0004139  71.8543434  18.2731485  80.8461857  68.9195728  18.1759739
  80.4031658  69.2756081  18.9461744  80.8887100  67.9772139  18.3383858
  62.5395155  99.7680473  11.2554550  63.0539751  99.6461773  12.0533967
  62.7176905 100.6705952  10.9911048  24.1554828  24.2152139  85.1496283
  23.4958120  24.8414536  84.8514787  24.3868728  23.7190457  84.3644479
  14.2247573  86.0974216  14.4517410  14.6706764  86.7424488  13.9028025
  13.9435378  85.4164028  13.8407135  88.3285999  58.6545277   2.5540343
  89.1886234  59.0350151   2.7323949  88.5195160  57.8304100   2.1061411
  74.4741344  63.2045174  22.0380068  74.5804596  62.2561502  21.9636583
  74.3149090  63.3553648  22.9697371  98.9135361  58.5408783  24.5421553
  99.3407154  57.6846218  24.5182514  98.1086636  58.4211540  24.0380907
  73.7429571  86.1748314  27.3717237  73.7812090  85.8887863  28.2843804
  73.1268597  85.5709267  26.9570613  64.4941616  92.0450592  37.0654559
  64.3896818  92.8351307  37.5956464  64.3678188  91.3241768  37.6823831
  29.5385833  39.2048951  72.3601607  30.4280086  38.9113351  72.5576082
  28.9741798  38.5976621  72.8386453  32.0577803 100.5596602  89.1427456
  31.4359846  99.9951183  89.6019819  32.4524203 101.0926020  89.8330074
  28.8498589  19.9665650  31.8832660  28.1222531  20.4771336  31.5280986
  29.6318337  20.4607114  31.6371489  84.4210434  88.3653450  10.7984114
  83.5523415  88.4727001  11.1857903  84.7491360  87.5462055  11.1693513
  16.6559497  99.2410374  39.9700809  16.4454261  99.4933987  40.8690977
  17.6119510  99.2687798  39.9311495  54.1493177  72.4655104  14.0298128
  54.7279406  72.9194736  14.6424699  53.5276556  71.9989347  14.5884514
  33.9331289  20.0164863  74.4022075  33.0993791  19.5637914  74.5293287
  33.7298865  20.7261296  73.7928394   2.8794280  81.0399246  14.1457772
   2.4027816  81.6168880  13.5489941   2.2756187  80.3161430  14.3124640
  83.4512711  83.6669350  23.4285235  83.3967304  84.4657421  23.9530778
  84.3424511  83.3476734  23.5703111  31.0033985   4.1326054  16.2749648
  30.7778355   3.2579335  16.5916777  31.5549752   4.5021447  16.9644833
  76.5787797  18.1305322  24.5798469  75.9092121  18.6610326  25.0116825
  76.1144667  17.3428353  24.2966962  44.0126605  22.7069922  80.9565321
  44.0287013  21.7587062  81.0858545  43.9260097  23.0676290  81.8389521
   0.3748986   2.6060018   5.8053964   0.6203696   1.9861230   5.1185691
   0.7943293   3.4270390   5.5480915  98.9968109  58.4955788  10.2534568
  99.0726376  57.7197361  10.8089280  98.5399437  58.1863785   9.4712186
 103.0560450  14.3359097   7.1320665 102.7281766  14.0999803   6.2642699
 103.3219390  15.2514848   7.0468754  88.0659103  79.2830658  44.8750210
  87.1633530  79.5114708  44.6526384  88.1260967  79.4353485  45.8181095
  49.9258132  35.8297940  80.3946701  50.7013316  36.0686513  80.9023724
  49.6756740  34.9689408  80.7302025  37.9488420 103.2123566  33.0691457
  37.5495863 103.0474854  32.2149539  37.5270033 102.5846291  33.6558723
  65.0305891  82.3134804  38.3918595  64.5235491  81.6919804  37.8694868
  65.6059456  81.7648697  38.9249921  86.1203671  39.7063327  38.6180687
  85.7363510  40.5623770  38.4284377  86.1515427  39.6642280  39.5738339
  47.1480174  23.9950582  84.9122355  46.8169589  24.8543187  84.6508733
  48.0216975  23.9468213  84.5241795  70.3073783  15.7400104  85.3225682
  70.8584590  15.4393931  86.0451827  69.6743674  15.0335809  85.1941673
  73.8380718  78.4552240  24.0532255  73.7711477  78.5055304  25.0067568
  74.7748756  78.3556318  23.8837957  81.3668442  74.4316053   4.6553361
  81.0806179  75.3269434   4.8360997  81.9007969  74.1932392   5.4131645
 105.2420425  54.8031902   5.5345404 105.3251076  54.4304514   4.6568185
 105.8896065  55.5077124   5.5578327  25.6591077  20.1806851  69.7319773
  25.1689620  20.4197713  68.9453200  25.0209708  19.7280379  70.2834514
 109.1849041 101.1677265  19.1049957 108.6136723 100.9632301  19.8453343
 108.7973595 101.9499588  18.7123632  56.6827288  79.1299975  88.6596096
  56.7890540  79.9191820  89.1907558  56.5989294  78.4213769  89.2976273
  61.9629097  84.1454601  25.6315851  62.3696041  84.9242115  26.0115504
  61.8495321  83.5491467  26.3717198  93.4091568  59.7395229  23.5083055
  92.6808071  59.1186523  23.5243535  93.0739403  60.5137253  23.9604831
  71.2204552  64.3213797  18.9230621  71.2739420  63.7358713  18.1677163
  70.9743977  63.7509871  19.6513033  95.7756996  63.7329006  15.4948652
  95.2787781  64.5444250  15.5984461  96.3964653  63.7375116  16.2234664
  95.4597187  78.9473104  67.3558569  94.7775936  78.2784891  67.2957134
  95.6081581  79.0542078  68.2954121 102.1109390  86.5053368  16.9617963
 101.4214706  86.9729710  16.4904451 101.6411781  85.9463501  17.5807452
  65.5589724  77.5442457  15.6250536  64.8893929  77.6153421  16.3053775
  65.2568865  78.1285667  14.9296808 109.5437626  29.0186044  82.8725163
 110.1797537  28.4501477  82.4382362 108.6930946  28.7036725  82.5668839
   0.8242885  67.7224302  34.6506143  -0.0927647  67.8530264  34.4093895
   1.3040058  68.3609724  34.1230083  25.7726470  66.9210482  29.8612761
  25.8012000  66.2546444  30.5478072  25.3512470  66.4843988  29.1210103
  93.1199074  81.8049431   0.7380604  92.2924042  82.1575260   1.0654095
  93.7898827  82.3704052   1.1222740  45.0358482  37.8328439  83.7738625
  45.0478263  37.2701570  84.5481179  45.8838458  38.2766458  83.7871716
  91.0133553  51.8311977  52.6883793  90.0854397  52.0659065  52.6779175
  91.0264206  50.9189939  52.9781199   1.7010967  94.7618580   5.9691703
   1.3911144  94.1431046   6.6304529   2.5794879  94.4538498   5.7460320
  77.9099607  60.8048630  19.5384574  78.2859945  61.2849951  18.8006902
  77.8995800  59.8922253  19.2499769  13.3087487  45.6853601  86.8154371
  14.2544503  45.6189462  86.9475911  12.9289146  45.2893182  87.5997279
  52.3970175  63.0624771  21.9371510  53.2463026  62.9298067  21.5160322
  52.5646734  62.9112291  22.8673363 102.7130413  46.8332434  23.1857896
 102.2359562  46.8540525  24.0153599 103.0847645  45.9520960  23.1453085
  88.8169003  76.9958067  49.5871115  88.4190941  77.5035954  50.2943134
  89.0616131  76.1658907  49.9964809  75.6708002  73.8233948  44.2913294
  75.0655699  73.5264540  44.9708509  75.7991982  74.7539997  44.4749594
  98.2760334  48.1494427  17.3505795  99.2045212  48.2516718  17.1415615
  97.8285313  48.2546091  16.5109873  74.9611998  63.6675644  34.1910863
  74.4819975  63.0179501  33.6766958  74.4561243  64.4741821  34.0886378
  30.0569908  54.0654373  43.9505720  29.9806110  55.0169754  44.0211105
  29.8013393  53.7399960  44.8136806  63.4303474  59.4792271   6.8869835
  63.5685062  59.6737528   5.9599978  62.9005432  58.6820221   6.8880451
  40.3657389  74.2574835  16.3715875  40.3539753  73.9833784  15.4545486
  41.2699795  74.5293093  16.5287375  72.0783186  60.4177713  19.6813047
  72.0500517  60.6042242  18.7428653  71.7683935  61.2233973  20.0950027
  83.8069344  77.0875597  33.7192249  84.4979477  76.4795113  33.4565306
  83.0440044  76.5306377  33.8741684  84.0808101  11.7425080  65.0988487
  84.3125053  11.0587998  64.4702891  84.1684337  12.5592681  64.6074656
 107.5659180  59.2458248  11.5911984 107.1711540  58.4296465  11.8981922
 108.0746651  58.9911175  10.8214378  97.5614929  80.1362228  37.1197605
  97.6718140  80.7642174  37.8336835  97.3536396  80.6752777  36.3565779
  37.7643390  36.1895581  74.3027416  38.2030101  36.3972875  73.4777287
  38.4270139  36.3523980  74.9739889  85.4047394  54.8841381  36.0654855
  85.6535053  55.6290245  36.6127443  84.7714329  55.2440739  35.4445219
  90.1512909  48.0185699  15.6554532  90.8711338  48.6491156  15.6769943
  89.6136189  48.2941532  14.9130237  62.1733856  82.1303844  23.7788224
  62.2815561  82.8388882  24.4132876  61.2730694  82.2232151  23.4673023
 107.6458740  87.2735596  13.0081677 108.1389713  87.7762890  13.6565053
 106.8633747  87.7992439  12.8420675  20.3534742  68.8603421  82.7161882
  19.9480863  68.7329217  83.5738913  20.0047393  68.1493970  82.1784416
  84.9376297  77.3548222  46.6268301  85.3740978  77.2993708  45.7767391
  84.0073490  77.2535181  46.4254904  37.4515891  77.7537489  18.6282933
  38.4068918  77.6970053  18.6081398  37.1648216  76.8762922  18.8814056
  76.1241241  11.4873858  77.3476449  76.4373393  12.3271009  77.0114735
  76.9185252  11.0250159  77.6148263  86.6182804  89.7416687  10.9096205
  86.5726471  90.0144672  11.8259895  85.7918644  89.2842960  10.7544446
  20.5908246  14.5352908  64.6956304  20.6845184  15.3108426  64.1424826
  21.2115522  14.6747752  65.4108027   6.8049995  81.8843460  25.8687162
   6.0396568  82.4303627  26.0485840   7.4550334  82.4918842  25.5157471
  89.7721004  57.0447779  45.7844305  90.1144218  57.5087500  46.5484810
  88.8872719  56.7835093  46.0394669  82.4524593  85.8847427  44.2609930
  82.7938747  85.2350903  43.6464930  83.2128620  86.4178944  44.4928932
  77.7326345  49.6861744  43.6730814  77.2633410  49.4305229  44.4672060
  77.6783800  50.6417465  43.6599493 109.6942139  85.0192833  39.1552043
 109.4652081  84.4669056  38.4077644 109.4134712  85.8977222  38.8987565
  68.7838984  87.4119186  28.6871290  69.5632839  87.5780296  28.1568503
  69.0997791  87.4333572  29.5904541  20.5973617  97.9873180  41.7202282
  20.8544437  98.4553719  42.5146246  19.7251693  97.6448154  41.9156837
  12.3394576  65.0231075  19.7169971  12.5984088  65.1375580  20.6313705
  13.1232253  64.6807957  19.2871499   9.1476146  70.5035686  68.5872841
   9.4699088  71.3913965  68.4319830   8.2493869  70.6252193  68.8948870
  62.0222521  67.0251942  35.3024244  62.0578766  66.5107727  34.4959903
  62.2262096  66.3977766  35.9959507  67.2759147  59.2532941  77.2434179
  67.1327205  60.1848050  77.4108247  66.3954539  58.8824101  77.1845928
  21.8167492   6.7743501  36.1890745  21.1402508   6.0972222  36.1809587
  22.2264954   6.7139062  35.3261209   6.9587127  76.9365978  29.4019008
   6.0901061  76.6342402  29.6671104   7.2850028  76.2486601  28.8218045
  19.6526424  91.7642498  16.5798104  19.8721115  91.4678383  15.6965160
  18.7190524  91.9713497  16.5379035 111.0994530 102.8836823  34.1791129
 111.3730812 103.7910366  34.0446734 111.2815666 102.7130127  35.1031995
   0.3970996  85.2099991  29.5891237   1.2520496  84.9724197  29.9480748
   0.5854789  85.5087185  28.6994553   1.8732921  78.3328581  32.4907970
   2.5247280  78.8342953  32.9811311   1.6550056  78.8898849  31.7436028
  69.1183281  96.7331982  41.1064816  68.2246876  96.5096951  41.3666487
  69.6176958  96.7125797  41.9228363  94.5671749  72.3931646  27.7041221
  94.7146225  73.2774591  28.0395412  94.9696350  71.8194771  28.3561563
  61.8107605   3.2353503  10.8533764  60.8745861   3.1678352  10.6656122
  62.2102451   2.5380784  10.3333223  71.8695021  28.4895778  18.1291807
  72.4909401  27.7812672  18.2975316  71.3916874  28.2085657  17.3488224
  78.2301188  31.4284182  31.0009646  77.2916126  31.3009596  31.1394978
  78.3840704  32.3445082  31.2318516  49.8769140  37.4211025   4.6750048
  50.4669237  36.6702819   4.6087831  49.7777081  37.5654912   5.6160372
  96.1498733  98.6341963  13.3772242  95.9458823  99.3234328  14.0093434
  96.1082263  99.0699444  12.5259769  78.9268063  65.7311296  76.2407342
  78.2906913  66.4433026  76.3070909  78.4376000  64.9485862  76.4947752
  83.0269909  15.6209970  41.5858793  83.6389542  16.1074615  42.1382236
  82.1665573  15.9726179  41.8144369  32.3179860 104.0121589  11.5369761
  32.6904483 104.8880135  11.4350820  31.4562507 104.1620920  11.9257700
  57.7242613   4.1432574  23.2622385  58.0385208   4.5535356  22.4565434
  56.8301630   4.4694895  23.3641720 105.0740479  48.0117064  88.5917561
 104.5259475  47.6411268  89.2834852 105.4881143  48.7738099  88.9966980
  71.6445346 103.7400886   7.2065318  71.3091560 104.1274555   8.0150485
  71.1883540 104.2101266   6.5085441  37.6513953  79.4283644  21.3448858
  38.2236953  78.7221924  21.6449332  37.3382564  79.1356007  20.4890442
  46.7349577   2.5052401  10.4366040  45.8217096   2.2484547  10.5641842
  47.0907974   1.8398833   9.8476160   5.6149287 103.0310856   6.2385547
   5.3504176 102.1712855   5.9114325   5.6326194 103.5883189   5.4604739
  60.4375361  97.4308741  48.7104300  60.7974862  98.3095944  48.5899380
  61.0530757  96.8555414  48.2561949  47.1331453  45.5467558   2.2333917
  48.0752373  45.4683065   2.3835342  46.9882441  46.4842415   2.1054751
  90.6684874  61.7238986  60.4455093  89.9147748  62.3139381  60.4460744
  90.6255483  61.2813025  59.5978693  48.5997486  62.4245834  10.0261188
  48.6790752  62.9914618  10.7933116  48.3392477  61.5750265  10.3819633
 104.7964190  63.3059251  81.8320254 105.3749322  63.4945058  81.0931126
 104.8328208  64.0952718  82.3722467  57.8839540  24.6887302  11.2370324
  57.7588654  24.2104053  10.4174042  57.7461958  24.0328932  11.9205058
  75.4084873   7.5086534   7.1995252  75.7975912   8.1493139   7.7948260
  75.4754257   6.6759491   7.6668090  87.1177672  56.8446099  65.9534339
  87.0991754  55.9962204  66.3962892  87.4372863  57.4548006  66.6181163
  17.8972617  79.6826970  90.0659558  17.7977076  79.8842489  90.9963853
  17.4573603  80.4041206  89.6162111  55.6120157   6.1135387  33.3708668
  54.7799683   5.7919091  33.7179804  56.1791039   5.3425664  33.3553600
  66.1607885  26.3417387  18.1868732  66.6643286  25.8559012  17.5336957
  65.4247713  26.7089605  17.6973236  22.5690451  72.2627532  78.6164848
  21.7665663  71.8399787  78.9222876  23.2610312  71.6294801  78.8071636
  51.4369154  38.6760449  11.4520228  51.4684010  39.6061516  11.2280965
  50.5430460  38.5349202  11.7639720  22.0728822  93.6638979   7.2698879
  21.9305749  93.7666503   6.3289195  21.1924405  93.6503771   7.6452106
  70.6768894  58.7781191   8.8037854  69.8341656  58.8143873   8.3513111
  70.5770779  59.3763542   9.5443171  96.3249874   7.3626661  17.6285899
  96.3069439   6.4902145  17.2352278  97.1860313   7.4209648  18.0426359
 102.7095699  19.6007895  30.4161739 102.6491070  19.0801120  31.2170911
 102.2340393  20.4066420  30.6179094 103.8169003  17.2917616   2.2109437
 103.4638596  16.8096006   2.9586834 104.0240097  18.1582952   2.5608850
  77.6958275  28.5540605   6.3521886  78.2055616  29.1079521   5.7609117
  77.2923946  29.1672659   6.9665635  38.1179380  52.2424173  13.3574486
  37.5481153  51.8743372  14.0327632  37.6506877  53.0177069  13.0462682
 104.3165112  38.0104423   4.9900740 104.9958992  37.7409124   4.3719912
 103.5141277  37.6122117   4.6526933  42.1854491   2.4905129  75.9299365
  42.7967210   3.1768580  76.1973540  42.7376075   1.8239900  75.5211548
  58.3543444  25.4693580   4.3177298  58.5984230  26.3401818   4.6312988
  57.5895977  25.2316451   4.8420238  80.5856133  67.2718382   2.8109977
  81.4328003  66.8786430   2.6014626  80.7763290  68.2022142   2.9303941
   7.3929873  57.9405647  73.5518221   7.6027575  58.7888509  73.1611351
   8.0388728  57.8320729  74.2498795  65.4867125  21.1417913  18.2743454
  65.1488400  21.3922644  19.1341925  64.8176098  21.4396262  17.6580393
  85.2532482  11.4242280  36.2784338  84.5147324  11.6988754  35.7349324
  85.9537411  12.0384896  36.0588217   9.1600218  71.2797987  74.1975657
   9.4724741  71.5853846  73.3459655   8.7116042  70.4559707  74.0066329
  55.0873518  77.1709776   8.1478465  54.7218609  76.4010763   8.5836220
  56.0241890  76.9862652   8.0811536  12.7531996  63.3741605  90.2526326
  12.1417418  63.8957417  89.7327262  13.0046835  62.6535797  89.6749223
  78.7398243  51.1478424   6.3498443  79.3550110  50.8463383   7.0183313
  79.2945290  51.4152575   5.6170243  42.4603367  12.5804150   8.7987524
  43.2053041  12.3480129   8.2444561  42.2785711  11.7861474   9.3010777
  65.3565264  38.8147163   7.6652193  66.2066031  38.4407330   7.4334180
  65.5485916  39.4208288   8.3807397 100.9751701  13.3562505   2.5059977
 100.0263309  13.3428109   2.6315460 101.1239719  12.7957296   1.7444824
  37.9177618  66.7502403  12.5411201  37.8089452  65.8007336  12.4879920
  38.0883598  67.0225906  11.6394818   3.9635554  67.2742474  84.9683431
   4.4387284  67.2691512  84.1374282   4.5349684  66.8020224  85.5739222
  63.8714027  11.1195016   5.0858295  63.2357836  10.7054174   4.5020875
  64.6678925  10.5991948   4.9803865  78.8033915  41.5350294  21.4873123
  79.5351744  41.7254448  22.0742249  78.2578325  42.3207760  21.5219903
  41.4241023 101.5355304   3.0436462  40.5227943 101.7171243   3.3099243
  41.3707299 101.3941202   2.0984551  37.1746106  27.3023005  80.2891377
  37.2947116  26.6156837  79.6331147  36.6531558  26.8880673  80.9766904
  17.1958442   8.9579698  89.4559691  16.9624372   8.1493875  89.9119809
  17.9503341   8.7198564  88.9171923  52.2916508  33.8368368  18.1096804
  51.7123079  33.2890773  17.5800049  52.6927853  33.2297444  18.7315834
  30.6292772  46.7466450  18.5826612  31.2661338  46.1206245  18.2380748
  30.8141899  47.5597143  18.1125987  36.4747500  55.6889200  13.0725133
  37.0619917  56.0210085  13.7515521  36.7598748  56.1303091  12.2724438
  42.9435916 104.0717195   4.9543840  43.6935039 104.2769134   4.3960312
  42.2169442 103.9482573   4.3436685  47.9391479  28.1799674  20.9949780
  47.2757673  28.7262011  21.4166188  48.7043858  28.2489514  21.5658426
  61.5379333  11.8949842  19.0677333  60.8745241  12.4210191  18.6211860
  61.0656881  11.4727259  19.7853088  99.3661213  24.4280100  31.1336064
  99.5089054  24.5847034  30.2001762 100.1939774  24.6729660  31.5469766
  97.2371578  60.7195902  19.5776892  96.6077042  60.5957413  20.2880979
  97.8021336  61.4308548  19.8795736  42.6226568   4.9207145  21.8433166
  42.7347898   5.8436835  21.6157532  42.9858351   4.8457697  22.7257657
  90.5790424  25.0041866   9.1533250  90.8592606  24.5597267   9.9534267
  90.0551128  24.3520856   8.6880380  69.0444899  48.2994223  14.3271267
  69.6411943  48.4332037  15.0635254  68.2132339  48.6714840  14.6217704
  95.0868320  42.0143604  37.5374150  94.8689270  41.2887049  36.9524622
  95.9636402  42.2858620  37.2659016  18.7051955  36.3421440  79.9879543
  18.0712309  36.8016934  79.4373754  19.1379061  37.0361173  80.4853431
  20.7665634  13.2121718  35.0888920  19.9170268  13.6262071  34.9369216
  21.2662435  13.3913565  34.2923737  39.3916507  94.6528438  27.1677041
  40.0218101  95.1186952  27.7173543  39.1291185  93.8966206  27.6925230
  78.3473730   9.1876197  11.6740310  79.0936852   9.6251684  12.0836663
  77.6603699   9.2118591  12.3401165  98.3650779  57.4297040  45.5122594
  98.4469413  57.8393018  46.3735131  97.4225949  57.3158049  45.3898219
  72.0069408  40.3754711   0.5635351  71.5173626  40.7764244   1.2817158
  71.3330841  40.0457001  -0.0309425  49.4709730  45.9043026   9.6516955
  49.9274206  45.9434652  10.4921436  48.5541153  46.0727692   9.8690081
   0.9427729  60.4782474  78.8838855   0.0568047  60.1773411  78.6820272
   0.9355536  61.4095831  78.6629919  93.0805683   6.8139750  23.0269051
  92.8843689   7.7491385  23.0835271  93.5360718   6.7150062  22.1908712
   1.3420196  93.1685904  45.2199841   1.8834467  92.3852316  45.3171301
   1.1168785  93.4168390  46.1165953  11.1162749  95.9235680  82.8051165
  11.9801798  96.1772263  82.4802039  11.2261572  95.0183308  83.0961577
   1.4544912  88.0027166  23.8947415   2.1492620  87.9588405  24.5517039
   1.6772766  88.7654975  23.3611083  34.2922635  13.7044498  78.7242488
  34.9879689  13.1368943  79.0560666  34.2585750  14.4309445  79.3465868
  46.5352631  14.2381954   5.4896075  47.4677944  14.3915498   5.6415951
  46.0932589  14.8791862   6.0463792  37.9685588  97.8779373  22.1617079
  37.9363771  96.9217405  22.1914387  37.5181861  98.1576375  22.9586816
  30.1349249  52.5924928  85.4964462  29.9668970  53.1338184  84.7251055
  31.0501376  52.3265397  85.4076604 106.9728707  92.7034485  87.5349936
 107.2853230  92.9578554  88.4032567 107.3217105  93.3748495  86.9486863
  60.9003353  83.9049530   6.7793518  60.7628059  84.8382282   6.9415718
  60.4516268  83.7372208   5.9506446  81.7792416   2.9975244  20.5479169
  82.4257755   2.7968249  21.2246275  81.8869019   3.9344448  20.3841424
  88.1546830  47.9562375  78.7964324  87.6060294  47.2091132  79.0352193
  87.6560115  48.4127161  78.1187979  86.5687466  45.5855322  22.8815246
  87.2491932  46.2535858  22.9647112  86.2211990  45.4859877  23.7678289
 101.4850712  54.9956226  16.1212194 101.0385609  54.4340277  16.7548370
 102.2553444  54.4927835  15.8565116  88.1363964  36.1443377   2.7403131
  88.5276890  35.3422546   3.0864075  87.3969650  35.8419228   2.2130296
  88.2982110  54.8503518  55.6594065  87.9755353  53.9623898  55.5056695
  88.2602977  55.2710342  54.8004416  26.4215994   8.5211998  18.0057299
  26.2074757   9.4127047  18.2806849  26.8205714   8.6262518  17.1420062
  13.4885450  30.2388974  76.5250293  14.2104430  30.2362462  77.1535889
  13.1027169  29.3660851  76.5997270  86.0744667  41.5330601  10.6197309
  86.6824436  42.2699547  10.6795382  85.4045486  41.7213202  11.2769938
  74.3568325  74.6123409  23.6040807  74.5626116  75.5455160  23.6594439
  74.0639448  74.3789864  24.4849873  18.1120005  87.4879539  88.6718335
  17.5712767  87.0058524  88.0461956  18.4323016  88.2435619  88.1791914
  83.7180996  24.4633627  10.5020976  82.9568481  24.4746470   9.9219221
  83.9180374  25.3872252  10.6528831   8.3897105  37.9339099  84.3316410
   9.0667811  38.1831383  83.7025938   7.5812998  37.9172301  83.8193682
  22.5515218  82.7055660  11.9866133  22.9808088  82.3898736  11.1914504
  23.2434507  83.1583897  12.4687076  68.2507133  23.9032936  13.3039856
  68.6870050  23.1273913  12.9520512  67.3177481  23.7329292  13.1744206
  69.4757748  13.2551920  13.4213126  69.0888166  12.6259422  14.0300322
  69.0673923  13.0557323  12.5788915  31.4440055   6.4923736  87.2557718
  31.0833450   6.8188497  88.0801303  31.9721503   5.7351609  87.5086135
  23.6427207  10.8719464  71.6475156  23.0068917  10.1716634  71.5007154
  23.3369775  11.3104888  72.4415139  71.6736937  45.0840569  12.0874381
  71.2117910  45.1338530  11.2505412  72.2888374  45.8170986  12.0654857
  48.7616205   5.7095206  10.6543732  48.4713984   5.1311147   9.9490720
  49.4894266   6.2025505  10.2756190  37.5802779  62.1425486   8.1303066
  36.8962431  61.5858173   8.5022908  37.2211790  63.0284691   8.1795681
  28.5646291  97.4684510  23.7198448  28.4146686  98.3438954  23.3629966
  28.6914201  96.9143591  22.9496908  65.9814453   8.9549810  37.1974444
  65.6328678   9.6705627  36.6657805  65.5661392   8.1688380  36.8428564
  81.8979454   5.7723117  16.1200452  80.9639931   5.6589448  15.9436548
  81.9377995   6.4991683  16.7415941   2.7561894  66.1525762  54.1345123
   2.4093619  66.0471534  53.2486085   2.6232329  67.0790314  54.3351034
  10.7642694 103.7392471  32.4641848  10.4153772 102.8634966  32.2981453
  11.4654155 103.6009726  33.1009746  79.5061827  56.8008995  25.5795431
  78.8985300  56.4578533  26.2347603  80.0300980  57.4466562  26.0536170
  88.2541703  98.0855143  75.6432251  87.8722190  98.1968367  76.5138296
  87.5305032  98.2566511  75.0405220  36.1991382  20.4729271  41.4004564
  36.9328713  20.6433988  41.9910526  35.4634094  20.9454131  41.7899323
 108.0945014  62.1852880  80.8283857 107.6601027  62.9576516  80.4664663
 108.9017247  62.5239157  81.2156204  40.7344384   1.9346782  79.8105482
  41.6585727   1.7017051  79.8995773  40.6449599   2.7514525  80.3015701
  46.6170020   5.5871030  75.5390028  47.0471568   6.0729047  76.2427036
  46.3737102   4.7519561  75.9384707  87.7635765  28.2515693   3.9447290
  87.2387028  27.9855776   3.1897554  88.5209084  28.6970377   3.5649353
  78.1700087  18.3211303  26.8385339  77.7888346  18.1831253  25.9714150
  79.0566444  17.9670775  26.7695236  92.7141897   0.4708215  76.9370989
  93.3465425   0.7438966  76.2724236  92.9817096  -0.4178599  77.1714286
  11.0089290  46.1792040   3.7962836  11.5979743  46.2146425   4.5499429
  10.5356836  47.0108080   3.8228661  62.5181866  50.5383635   4.6922100
  62.4757767  51.4598846   4.9476141  62.6523733  50.0677538   5.5148584
  82.2459411  73.2890522  71.1821965  81.6934346  74.0681183  71.1187354
  81.8295812  72.6521909  70.6014327  85.9288883  37.3862028  15.4493260
  85.8370018  36.7379570  16.1475873  86.2528992  36.8866491  14.6998620
  90.8949517  71.5982079  88.6764418  91.8050813  71.4391791  88.9266550
  90.9082650  72.4595844  88.2592074  59.6799231  43.4665585   3.7161866
  60.1103258  44.2939377   3.5007170  58.7454033  43.6735296   3.7082255
  55.9005828   1.1746760  80.0283316  56.8037219   1.4706346  79.9144307
  55.5180450   1.2303754  79.1526631  64.6963401  88.2772556  21.1030960
  63.8230701  88.6491278  20.9791946  64.5874877  87.6404778  21.8094230
 110.0290203  15.0850427  21.3876939 109.6123791  15.9243119  21.5833187
 109.3897820  14.4294953  21.6667485   5.7275334  76.5879762  86.7139796
   5.0335446  76.3535249  86.0978276   6.4913073  76.0956680  86.4131296
  10.3100481  72.4554050  87.5599886  11.0457030  71.8439197  87.5262490
  10.6396284  73.2499921  87.1401755  98.8445853  99.2403328  70.8548394
  99.6288108  99.3910849  70.3271083  98.2042169  98.8877070  70.2369288
  73.7169838  40.1686859  15.8478844  74.5798397  39.8402834  16.1005914
  73.4586668  40.7428789  16.5688598 103.4057236  26.8323612   7.1668518
 103.8576317  26.0536027   7.4917316 102.5039101  26.5443826   7.0252842
   9.2876330  71.7084658  89.9830232  10.0885382  71.8307280  90.4927652
   9.5332232  71.9490325  89.0896902  91.1518383  28.4321499  19.4154179
  92.0637798  28.3237171  19.6852791  91.0020161  27.7249551  18.7879944
  53.5578918  35.7263827  23.3997869  54.4945002  35.5338383  23.3558798
  53.3883047  36.2679243  22.6289415  73.6170292  52.6796341   9.7743577
  74.1360426  53.1723785  10.4100144  73.9543104  51.7856407   9.8312932
  40.4499531  21.3343716  10.5324054  40.2453709  21.0231233   9.6506441
  39.6164393  21.6621852  10.8700812  89.1842461  62.4943876   1.8618013
  89.6513367  62.0174742   1.1757914  89.7210312  62.3740530   2.6451373
  53.9296007  42.7083874   2.3039781  53.2045746  43.3303976   2.2433667
  54.4391298  43.0071211   3.0572206  65.5211376  71.1709749  77.1603826
  65.2603148  71.2644744  76.2441615  64.8598265  71.6611456  77.6488844
  97.6874923  65.5209291  89.2546939  96.8255280  65.7867455  88.9343973
  98.1053399  66.3387036  89.5246579  23.8355823  86.5850237   1.3698353
  23.6725660  86.3780573   2.2900647  24.3356843  87.4008695   1.3927825
  24.2391153   3.6269160  84.3494592  23.6621900   2.8648969  84.4015715
  23.8455053   4.2663737  84.9430916 103.7014626  35.4744720  84.7960577
 102.8096246  35.2320599  84.5468680 103.6082314  35.8743989  85.6606952
  50.4698324   5.0310570  33.3907723  50.2835226   4.4290560  34.1112685
  51.4127350   5.1863295  33.4461284  38.3544245 101.2581217  80.9164802
  38.1410494 100.4041397  81.2925402  38.5224238 101.0773432  79.9916402
  16.9752634  36.2249875  11.0061538  17.6638389  35.6911087  10.6098366
  16.1729670  35.7211447  10.8694208  86.6711235  29.5817637  47.4052954
  87.1740532  29.7749472  48.1964779  86.4389133  30.4410791  47.0533180
  89.3590832  19.0976214  37.4963164  88.4571075  19.3834019  37.3513460
  89.8805714  19.8951018  37.4052119  89.2590093  83.0673110  77.7138284
  88.7406491  83.6097729  77.1194616  90.0961255  83.5255825  77.7877346
  52.8270483   8.7478012  14.8402226  52.0606852   8.1744337  14.8273051
  52.6280355   9.3984866  15.5134487  25.2524991  18.2480355  87.8719643
  25.1718135  18.1662293  86.9216860  25.9742923  17.6630565  88.1022940
  77.3793888  21.5036178  11.3456392  76.4648914  21.2305951  11.4190412
  77.6935053  21.5341330  12.2493148  16.9656649  79.0891015  76.3110558
  17.9049292  78.9371121  76.4155272  16.8588152  80.0305712  76.4468900
  80.9631443  72.4654627  15.1654088  81.7810440  72.7624416  14.7665536
  81.1562538  71.5816259  15.4781032  63.5088110   6.6215992   5.3671479
  63.0299377   7.3004735   5.8425868  64.4196939   6.7369157   5.6377441
 108.4363269  81.1770308  80.9437708 107.5333213  80.9647667  80.7076422
 108.9624738  80.8078038  80.2344946  34.9725051   2.4431201  71.7194883
  34.3484254   2.8002473  71.0876492  34.6029229   2.6666280  72.5737051
  72.0533943  60.5447149  29.2288423  72.7156973  61.1243868  28.8525867
  72.5342417  60.0097132  29.8603392  91.9330453  83.6413729  78.3202783
  92.4536752  83.4509790  79.1006139  92.2854852  83.0572807  77.6488224
  90.5340481  36.1356997   8.5186732  90.0210571  35.9446001   9.3038863
  91.1373329  35.3966212   8.4409618 104.8047828  64.1172766  87.4330685
 105.5613183  63.5591864  87.2529999 104.7178267  64.1026651  88.3861986
   0.8428089  45.5800152   5.6054062   0.8563510  45.2359724   6.4985365
   1.7647163  45.7175684   5.3877205  21.1646075   3.9150210  65.9812049
  21.3146300   4.8439713  65.8057693  21.0292573   3.5268327  65.1167849
  40.2040291  69.1881704  11.1364770  39.4093871  69.4286537  10.6600893
  40.1969051  69.7485256  11.9124830  16.8462558   0.7838794  86.8548605
  17.7043004   0.9933063  86.4858985  16.2559695   1.4327546  86.4717851
  15.4006091  58.4464913  89.6271780  16.0507002  59.1489821  89.6382195
  15.7138243  57.8408461  88.9553726  13.9561453  97.5427687  87.4465165
  14.3010416  97.5392305  88.3394161  13.1632891  97.0085728  87.4938879
 108.5592937  40.1500416  21.3952947 108.7086487  40.8862591  20.8020759
 107.8267193  40.4296255  21.9443011  70.0872707  72.4758005   2.8957859
  70.1103258  71.9155884   3.6715856  69.8969841  71.8770885   2.1735905
 106.5478325  86.0248852  28.8553476 106.3716125  85.0953579  29.0008211
 106.9223404  86.0627937  27.9752684  25.9632864  83.8677513  70.0110677
  26.5426245  84.5883619  70.2587036  25.9372893  83.3046567  70.7846836
  83.2664680  44.2748356  14.8575938  82.7245331  44.2049360  15.6435049
  83.8925648  44.9701691  15.0594521   2.2935763  99.1989195  68.0448273
   3.1920805  99.3738663  67.7649788   2.2064724  98.2472956  67.9894880
  76.6735125  15.5330169   1.8342395  75.8334351  15.9039629   2.1042420
  76.9461250  14.9926114   2.5757757  55.8834362  55.8302212   8.8951528
  56.1319208  55.8465767   7.9709125  55.7685852  56.7513800   9.1286260
 101.4758157  97.5887739  40.6190566 102.3345612  97.5021565  41.0329226
 101.0987710  96.7100918  40.6635550  73.5059214  65.8183908  14.4760966
  74.3129444  65.4441214  14.1227365  73.5960770  65.7295704  15.4248929
  44.7632308  10.7029315  79.3458370  43.9025111  10.8053561  79.7519115
  45.0852962  11.5978690  79.2381767  55.5869579  26.8916798  21.5006971
  55.8629417  26.0699534  21.9066906  55.5815935  27.5239396  22.2193408
  78.6462355  36.8785787   2.9050994  78.8033056  36.1369014   3.4894574
  77.9012728  36.6073322   2.3687366   4.6218673  29.8525620  29.4149995
   5.4834072  29.5172262  29.6630526   4.3749801  30.4339528  30.1342106
  91.2194633  42.8963757  23.0305243  92.1763039  42.8838968  23.0538893
  90.9675121  43.3995485  23.8048434  17.1513168  28.8315463  10.2958763
  18.0644409  28.7931871  10.5804074  16.7786018  27.9947162  10.5734241
   8.7975779 102.3352491  61.5961484   8.5964480 101.7681515  60.8517150
   9.3541994 101.7998421  62.1615986  59.1624689  41.5069628   8.4075928
  59.3596840  41.5487480   9.3433237  60.0039721  41.3148880   7.9938078
  36.1996694  21.0905477  79.2240504  35.6697030  20.6887980  78.5356001
  35.8843084  20.6894132  80.0339094  80.8700562  28.7041569  38.5928392
  80.7132721  29.4723797  38.0437660  81.7860413  28.7830901  38.8592649
  32.4715991  19.8048659  64.4549230  32.9178662  18.9968320  64.7082142
  33.0261798  20.5036422  64.8018960  53.6250925  26.8339872  19.3569815
  54.3282652  26.7974639  20.0053978  53.4115362  25.9172106  19.1833615
  91.2542629  74.8175335  22.3785925  90.7905674  75.6352663  22.1982336
  91.0483646  74.2556429  21.6315198   5.1102724 103.2963240  58.0312327
   5.6493798 103.3074724  57.2403673   5.7027140 103.5764753  58.7289146
  49.9383640  64.3314505   3.6857876  49.9377489  64.1567755   2.7446604
  50.8651018  64.3576002   3.9239305  81.9998550  11.2109852  15.6750643
  82.2386169  11.3342440  16.5937781  82.3861122  10.3677952  15.4382670
   4.2346088  44.3995857   7.5589651   4.0708343  45.1553202   6.9948053
   3.3626167  44.0747881   7.7833849  58.3128066   4.0055581  58.8351587
  57.4323840   4.3654367  58.9427880  58.5636611   4.2487498  57.9440049
 102.6894282  99.8482477  87.8985784 103.3997392 100.3534996  87.5030920
 102.8978299  99.8326790  88.8326857  80.5050945  56.1279917   7.9252630
  80.0814056  55.4230452   7.4356049  79.8683739  56.3683701   8.5983455
  78.2274580  45.5815840  14.4312656  78.0247450  44.6553326  14.5624006
  77.4011517  45.9690762  14.1426516 104.5694065  30.3408313  35.7237267
 104.7999763  29.7300696  35.0236988 105.1175785  31.1086464  35.5618787
  86.6741753  15.4114664  30.7565045  86.9752979  16.0825205  31.3690758
  86.3348103  14.7121727  31.3151217  86.6494083  70.4159164  32.3573446
  86.0300827  70.3919268  33.0867910  86.1013603  70.3480148  31.5755081
  62.2478390  63.6295414   5.8455241  62.0937109  63.7472630   4.9081784
  62.3574305  64.5182753   6.1837077  15.1261321  52.2578144  25.5116463
  14.3453494  52.1177483  26.0473633  15.2180282  53.2095194  25.4664636
  26.0638800 104.1949427  79.0610186  26.4396372 104.4316733  78.2130829
  25.8621302 103.2626164  78.9817003  42.9890623 103.1930792  74.6402458
  43.7469187 103.7340319  74.4183198  42.3236266 103.4376824  73.9971272
  90.3831099  97.8443777  79.1355208  90.4439639  97.3635208  79.9609331
  90.9979724  97.3987114  78.5528055  75.5848265  57.4144268  25.3026938
  76.3854742  57.8396988  24.9955535  75.1956654  58.0453491  25.9082699
  84.0892981  58.3631330  69.1930751  84.3922090  59.1471827  68.7350968
  83.4068154  58.0034262  68.6264566  61.6576958  17.8836799  25.6128144
  62.1582842  17.1591449  25.2377272  61.6837311  17.7292371  26.5571141
  67.2369051  35.2749681   6.2993580  67.5336361  36.0212779   6.8201321
  67.0714903  35.6400895   5.4301310  95.8101940  47.7637339   5.6554496
  95.6742096  47.4921846   6.5631938  96.7258644  48.0407381   5.6229252
  24.0680738   9.4446965  52.5674728  23.1422134   9.5449182  52.7887610
  24.0651508   8.9901229  51.7251042 104.9943236   1.9314548  82.1404180
 104.2911533   1.4926454  82.6191983 104.6306518   2.7867290  81.9113312
  52.2881126  52.6488400   3.9443657  52.9465675  53.2386780   3.5772601
  52.6421213  51.7721128   3.7951702 101.5161609  89.9360096  81.4095495
 101.2480592  89.9452602  82.3283890 101.2527656  89.0723335  81.0918782
  90.8283806  17.7929795  10.5560184  91.1875153  16.9209146  10.3924286
  90.0514507  17.6352954  11.0924387  29.0538874  79.0392649  87.0173747
  28.5118761  79.7985255  86.8029348  29.9420443  79.3035924  86.7775098
  95.6824874  84.2888701  71.0065118  95.0139474  84.9116981  70.7212547
  95.6465625  84.3200695  71.9625286  89.4183159  56.7335367   0.7462525
  88.9673042  55.9969854   1.1589380  89.5876312  56.4396143  -0.1488318
  65.4643822  60.8706474  13.9486980  65.5319357  59.9213266  13.8464010
  65.6358337  61.2186432  13.0736351  30.4430676  69.7504950  13.1290436
  30.2654576  69.0524960  13.7595046  29.7371411  70.3822756  13.2659912
  93.8447904  76.8519652  49.5541075  94.4412660  77.1688664  50.2323559
  93.1387471  76.4229166  50.0374774  75.7106733  15.6573343  21.0806441
  74.9213839  16.0638440  20.7228684  76.4308405  16.1757374  20.7216883
  79.2500782  36.5344548  17.7205038  78.4305620  36.8798614  18.0745065
  79.4923401  37.1523857  17.0307922  89.8260307  26.1959362  26.6509676
  89.3697834  26.4835238  25.8601665  90.7083893  26.5563703  26.5628839
  38.3778234   6.7012521  88.2958478  37.6243491   6.8404599  87.7221448
  38.1579585   5.9134217  88.7930568   2.0052616  50.7737970  17.3512173
   2.5798026  50.9296322  18.1007802   1.3037101  51.4175797  17.4492514
  34.2582412  16.8853875  77.1082369  34.7263999  16.1287375  76.7553416
  33.3385701  16.7138024  76.9057492  58.8362169  14.4379270   1.9136100
  58.2309532  13.7131870   1.7566414  58.7503242  14.9937499   1.1390673
  81.1314392  47.7686453  28.9165688  81.4300251  47.6477242  28.0152035
  80.2011299  47.9784775  28.8345909 100.4679393  69.0031218  81.8296490
 100.2789592  68.3992993  81.1113748 100.7418536  69.8118043  81.3969401
  27.8793378   1.8014403  78.2783261  28.3111949   2.2687646  77.5632468
  28.5252471   1.7948648  78.9847199  96.7700481   8.4316307  30.9290123
  97.2964478   7.9986858  30.2569366  97.0942211   8.0729169  31.7551279
 103.4392022  73.1174814  83.2395688 103.1080817  72.2200048  83.2731101
 104.3906020  73.0203974  83.1990317  13.7769456  12.6063224  83.6859981
  12.9904504  12.3077556  84.1426358  14.2764135  11.8065520  83.5212806
  76.4505005  19.5107365   7.0510620  76.7181969  19.1623092   6.2006688
  77.2522163  19.5083535   7.5740081   1.4300529  84.9816799  18.1074071
   1.6358272  84.0909863  18.3912301   1.6375057  84.9892426  17.1729887
  26.1998358  96.7555010  79.9815527  25.2757254  96.6677010  80.2150849
  26.2637415  96.3699591  79.1077653  90.8146523  57.2001186  67.6734427
  91.6695546  56.9497281  68.0237034  91.0143279  57.6460969  66.8503598
  99.2524003 100.2118933  81.0537920  99.8913335 100.8246576  80.6897680
  99.7556828  99.6783459  81.6688261 104.1787243  43.7087631   7.5725442
 103.6806488  43.9918804   8.3393520 103.9825821  42.7754498   7.4907547
  79.9098635  32.5475812  46.7376900  80.3880596  31.7200804  46.7906523
  79.2190790  32.3843455  46.0955000   7.5357047  28.9113259  12.9226959
   6.9045631  28.3962250  13.4252524   7.9521362  28.2769465  12.3392773
   2.2353546  73.1807280  10.0648570   1.8037502  73.9660692   9.7284240
   1.6188327  72.4716902   9.8820984  11.0148326   9.6990734  36.4069057
  11.4299289   9.1048986  37.0321107  11.2202064   9.3262589  35.5495453
  45.5102015  42.8213406  20.1282716  44.9432755  43.1893110  19.4504619
  44.9053764  42.4749517  20.7843447  13.4414282  52.2355751  67.6945285
  13.9886847  51.4672133  67.8568700  12.6249113  51.8785690  67.3451213
  56.2665129  22.8034592  42.4047518  55.7539368  22.1529388  42.8846693
  57.1483517  22.4331069  42.3668861  48.5634227   8.3611938  67.7224091
  48.8012881   8.3386823  66.7955068  48.8875385   9.2068311  68.0323843
  21.3228312 101.4703524  68.9083580  20.4300871 101.1251223  68.9157799
  21.2183562 102.4002754  68.7069586  86.9147396  20.8864713  28.1179667
  87.4380302  21.6836643  28.2009625  86.1888695  21.1349463  27.5456071
  92.9745197  29.8087358  12.2173715  93.2323742  29.6563840  11.3082349
  92.1137238  30.2228522  12.1560001  87.3476124  44.2064905  19.9984777
  87.0361710  44.5955515  20.8157086  88.1876564  43.8088179  20.2274013
 110.5998135  59.8629951  21.5669322 110.1082897  59.9732828  22.3808551
 109.9325275  59.6696043  20.9084868 109.8087501  99.2777311  76.9517759
 109.1981696  99.8645365  77.3979572 109.5909022  98.4071648  77.2847763
  87.4663067  34.4718266  36.1862063  87.2786808  35.3260088  36.5753102
  86.6057491  34.1132593  35.9691858  93.9466476  15.9511173  45.9780645
  94.8333168  15.5914354  45.9518766  93.9795303  16.7118227  45.3979969
  69.5480871  29.1265845  58.3170605  70.3170633  29.2997336  57.7739906
  68.9278698  29.8163700  58.0809307 109.6633576  93.4221041  78.1039337
 108.9148711  93.6046278  78.6719862 110.1496791  92.7362740  78.5615019
  43.1602283  39.5231076  64.5968798  42.8571077  40.0034257  65.3673605
  43.7457843  38.8522073  64.9479369  76.4140892   7.5783694   4.6410432
  76.4522886   6.6707146   4.3394879  76.2350941   7.5117993   5.5789995
  39.4940081  92.4502956  89.4858712  38.5730067  92.6403534  89.3073845
  39.9383536  93.2904398  89.3720870 102.9208754 103.5484230  55.2393440
 102.0156669 103.5297310  55.5499581 103.4006976 103.0080855  55.8670667
  35.6379552  34.6744271  74.8114148  35.2259393  35.0564118  75.5863742
  36.3116689  35.3069707  74.5619706  87.4169254  38.2829690   4.5375052
  86.6947651  38.7349701   4.1011429  87.6466465  37.5688314   3.9429778
  56.5697093 104.6072923   7.4388289  55.9376044 105.1922806   7.8565150
  56.4397235 103.7644961   7.8736049 100.3166103  48.1721115   3.6535203
  99.4708252  48.5991383   3.7896413 100.2973366  47.4117994   4.2347145
  78.9503622  45.6471777  18.9889777  79.3299437  44.7862720  18.8129318
  79.6761560  46.2588215  18.8651156  53.0034156   4.4694491  85.3993348
  52.4691196   4.4015380  86.1906335  53.3603378   5.3571912  85.4267946
  78.9200211  43.8306522  31.5283847  78.3254671  43.5319901  32.2165251
  79.0985537  43.0465746  31.0091758  34.2854924  14.5836993  81.3825056
  34.7627874  13.9639541  81.9341699  33.9098449  15.2126857  81.9985417
 105.0821017  97.3935091  85.9572638 105.0794457  96.4989483  86.2978212
 105.5835198  97.8935015  86.6013346  66.8121243  41.3667774  25.8908057
  66.9814587  41.3314629  24.9493647  67.3083830  42.1266270  26.1950874
  59.2329121  67.9059553  19.4064748  59.5036840  67.5494862  18.5604000
  58.4278059  67.4337482  19.6187329  92.3417091  23.1717491   7.2104275
  91.4386368  23.2465410   7.5188076  92.5590992  22.2469926   7.3278862
  91.5451908  48.4194136  18.3726716  90.7164478  48.0053806  18.6134994
  92.1874142  47.7107525  18.4124184  34.9292226  44.9343606  69.7732381
  35.1271863  45.3116628  68.9161018  35.7863660  44.7553559  70.1598791
  96.4870881  66.6000902  82.0566235  97.1360873  66.3372683  82.7092770
  96.9879054  66.6980981  81.2468038  68.7372589  64.1956997   6.7399669
  67.8819752  64.6122599   6.6341460  68.6088848  63.5607672   7.4446714
  18.9754529   3.8606378  77.8619901  19.0657182   4.4052239  77.0799962
  18.8165803   2.9795905  77.5232593  76.7652892  99.7120106  90.4132254
  76.0690140  99.9923622  91.0072253  76.7760443 100.3778326  89.7256226
  47.4987884 104.2574159  20.5783272  47.6365276 103.3133826  20.5004716
  48.3810706 104.6286191  20.5828905 108.6080741  55.6443324  74.6001736
 108.0762528  55.6195631  75.3956500 109.5046758  55.5099219  74.9072138
  61.4133067  14.4209882  90.7034575  60.5769057  14.8854705  90.6733055
  61.5647025  14.1414186  89.8005995  78.8411427  54.4944143  24.4123292
  78.1312799  54.6790695  23.7973213  79.1418886  55.3573799  24.6970749
  87.5713109  66.2687766  79.7676519  87.8159474  67.1282649  80.1106719
  87.9491233  65.6464707  80.3891221  46.9514084  39.4971991   3.8970655
  46.0588741  39.3907237   3.5680133  47.0207596  38.8631988   4.6108353
  88.7606907  24.2313647   4.0756154  89.6871662  23.9986801   4.1367018
  88.4833717  24.3509078   4.9839297  79.6740770  11.1552346   6.3544643
  78.8420963  10.8947229   5.9592730  80.2970028  11.1483252   5.6277269
  17.5809236  21.3842364  83.8440863  17.3926015  21.3249036  82.9074726
  17.3291822  22.2763082  84.0829680  61.9024277  18.9326954   4.7754049
  62.0718575  18.0360687   4.4862944  60.9731293  18.9388311   5.0047636
  36.9921422  60.9401798   1.9095674  36.9642568  60.0597906   1.5349068
  36.0731792  61.1744118   2.0394722  90.4083823  98.6093533  67.8094653
  90.1025819  99.4966089  67.6210550  91.0261153  98.7174332  68.5326246
   7.7666846  67.6015198  88.2359112   7.8777495  66.8584787  87.6427943
   7.3766890  68.2858896  87.6920599  63.8391066  13.7964690   4.0136304
  63.7810612  12.8415847   4.0461698  63.9923811  14.0581822   4.9215093
  75.4726219  11.9216752  11.9571579  76.2479258  12.0969975  11.4238679
  75.0424433  11.1867523  11.5200460  60.1929712  41.0048437  23.4578609
  59.7758675  41.2007046  24.2968488  60.5551720  41.8425035  23.1691217
  85.5723286  38.9162421  19.4934201  85.0353050  39.1862702  20.2383518
  85.9681606  39.7281766  19.1766953   2.1108141  86.8697416  58.9722279
   2.3220244  87.7660644  58.7110237   1.8540945  86.9423473  59.8914961
  63.4318733  16.5925646   0.6218534  63.9527845  15.8397186   0.9013248
  63.5874987  17.2547626   1.2952825  72.3556566  45.6669140  29.8683715
  72.7709866  46.0496378  29.0955472  72.0227909  46.4187431  30.3584599
  56.9499870  22.3214646  88.5698622  56.1503501  21.9957896  88.9830706
  57.5495143  22.4788400  89.2992692  31.0120578  10.0993987  82.4020330
  30.6478257  10.8280631  81.8994198  30.6563134  10.2147218  83.2831565
  65.7928514  59.7130299   8.3752990  65.5839205  60.5359316   8.8173521
  65.2016497  59.6885061   7.6228952  76.8307638 104.2896652  51.1398649
  77.5197887 104.1374302  50.4931068  76.0183048 104.2662430  50.6343031
  71.1941528  78.6769485   3.1320819  70.7708883  79.5028353   3.3665940
  71.5311813  78.8230705   2.2481753  65.7868624  68.8819885  15.1973915
  66.6417551  68.8773155  15.6279314  65.5301428  67.9604387  15.1646388
  50.8851333   8.9445754  86.8243495  51.6325946   9.5310565  86.9408638
  50.2732940   9.4413682  86.2811387   8.4630766 101.5785849  75.6118098
   9.1348925 102.1389448  75.2233592   8.9337435 100.7878410  75.8753160
  59.7672935   7.5063392  80.7455531  58.8388915   7.5146934  80.5126933
  60.1111503   8.3252021  80.3885416  64.1779609  21.8152638  88.0239997
  64.5954795  21.0775205  88.4685687  63.6016460  21.4095613  87.3763061
  53.0871964  47.7277899  11.3558376  52.6224232  48.2821941  10.7290566
  53.3445692  46.9574213  10.8493543   3.3220282  99.5176708  55.8213834
   3.2676449  99.5028555  56.7769221   2.4128476  99.4546043  55.5287341
  27.0709505  99.4217264  80.1340095  27.7649298  99.5407593  80.7824389
  26.8990698  98.4800922  80.1372663 102.8108977  73.0445706  79.5327965
 101.9676207  73.4191048  79.7874418 103.2376861  73.7367165  79.0278069
 101.8264961  65.4769611  12.8972375 101.8945694  66.0376263  12.1244180
 100.9801865  65.7028246  13.2832074  82.3146439  33.0014491   5.5791372
  83.0052567  33.6143708   5.8313531  82.7354717  32.4099994   4.9551764
  90.1373196  78.8228369  17.0333326  89.4403839  78.5234356  17.6171732
  90.7096291  78.0620718  16.9336998   8.3990755  56.2665155  71.5893916
   9.0382853  56.9285130  71.3259450   7.8208628  56.7220154  72.2012929
  82.9565048   5.7929224  27.5109100  83.1396770   5.1627392  26.8140960
  82.5019741   5.2830970  28.1815147  83.5585594  38.6965251   9.5712322
  84.2814732  38.9978862   9.0209448  83.5980225  39.2566419  10.3464377
  47.4688235  65.3922641  81.9610283  48.3580389  65.6948399  82.1453569
  46.9138804  65.9102213  82.5441155  92.6107121  55.3387737  22.1380830
  92.6455402  54.3922663  21.9997430  91.6845894  55.5241966  22.2934866
   0.1321164  85.3266942  84.1963146   0.8953991  85.5470597  83.6623934
   0.2952948  84.4300353  84.4889048  12.7513210  29.5865250  52.1756172
  13.2250110  28.7560034  52.2212410  13.1058208  30.0221801  51.4005232
  35.8444781  24.6914979  84.6953664  35.4148860  24.8127624  85.5421123
  36.1733480  23.7929078  84.7201476  96.0501385  21.0639000  18.2407379
  96.4385223  21.2881207  17.3950958  96.6774368  20.4612517  18.6401641
  31.4347787   7.9430552  84.7677240  31.3319440   7.5111266  85.6157193
  31.3611026   7.2350331  84.1277990  74.0659904  42.2345304   0.3970706
  73.7393761  41.3910389   0.7102497  73.3718109  42.5629807  -0.1743049
  33.3601179  70.0059986  83.4991399  32.7904406  69.2750954  83.7388859
  34.1141692  69.9234366  84.0829364   4.1639606  76.9638109   4.2421213
   4.4801322  77.8437042   4.4471961   3.2131282  77.0581722   4.1852435
 106.1112595  54.7511435  38.8957357 106.1606312  55.2638531  39.7025323
 105.5196381  55.2489233  38.3314419  30.8114043 103.7766039  70.6464556
  31.3773337 103.2832253  70.0527147  31.0171690 103.4316933  71.5153221
  88.8248348  60.9349155  14.8751974  88.8343430  59.9923515  14.7087204
  88.8776398  61.3322067  14.0059423  90.5835818  76.8845808  81.2991801
  89.8152684  77.2019946  80.8246604  91.0988711  76.4218247  80.6384472
  35.6684776   6.5564843  86.4414561  35.1341577   7.3177119  86.6678832
  35.1640887   6.1019679  85.7667414  86.6133213  21.9834089  19.8304629
  87.2811604  21.3024163  19.7500646  87.1043396  22.7760410  20.0469518
  32.5382223  77.4804866  69.7278265  32.3941508  78.1393659  70.4070572
  32.0613280  76.7100727  70.0364784  78.5760355  67.9520035  26.6353416
  79.3137360  67.5875282  27.1244121  77.8203678  67.8196859  27.2077847
  20.9196229   4.4095059  84.4901488  21.4240403   5.1411363  84.1344587
  21.1394544   4.3974658  85.4216853  90.2173901   2.7204338  25.0739527
  89.5343304   2.0759600  24.8887372  90.2776623   3.2422587  24.2737675
 101.6551208  27.1340394   1.2200864 102.1955395  27.4425077   0.4927441
 101.0691547  27.8665614   1.4105831  58.5821199  55.2000999   2.0801276
  58.6655331  56.1511612   2.1491142  57.9524946  55.0656414   1.3718003
  98.3635043 103.8091862  90.0618625  97.6085519 104.3528902  90.2869503
  98.8102578 103.6626780  90.8956376  20.2620402 102.0972979  90.1792234
  20.9475127 102.6025021  90.6164033  20.1535216 102.5255596  89.3300772
  13.3622923  65.6315922  83.9371881  12.8924742  66.4655125  83.9281443
  14.2811289  65.8730566  83.8202420 104.8893975  71.9385254  73.5019211
 104.5666837  72.2330987  72.6502660 105.0491427  71.0018217  73.3865932
   7.4097529  93.7236273  83.5452191   7.8108206  94.4895708  83.9559588
   8.1508437  93.1933415  83.2522891  67.4986696  27.1871758   4.0243503
  68.3475733  26.8068838   3.7985855  67.0083618  26.4637399   4.4148266
  90.0627995  41.3807487  18.8180435  89.7146130  40.5032587  18.9761972
  89.6818447  41.6420841  17.9797065  98.8934612   6.8658775   3.1608099
  98.0536366   7.1119136   2.7730155  99.2010117   6.1362004   2.6230195
 111.0015916  82.4064338  89.8793784 111.5642785  82.8488648  89.2438701
 110.2144288  82.1787417  89.3846477  99.8761463  54.5615530  40.1316738
 100.5235386  54.5036077  40.8343506 100.0321674  53.7827873  39.5974350
   9.4350710  80.3224885  62.8064111   9.5627108  80.0334799  61.9028548
   9.2634383  79.5166504  63.2936481  70.8821917  45.4783583   0.5273682
  71.5902519  45.2809000  -0.0857325  71.2811470  46.0595655   1.1748707
  70.5878877  96.7631352  72.6356999  70.3953694  97.6766884  72.4245456
  71.5348624  96.6850149  72.5200883  53.8955498  64.8250532  11.9327831
  53.8094187  65.5679989  12.5301468  54.8159218  64.5704031  11.9984126
  78.2668495  53.9877653  10.3403246  77.5354338  53.4134150  10.5670035
  78.1298685  54.1966963   9.4163030  55.9370708  29.1632509  17.4041557
  55.0151014  29.4204807  17.3981917  56.0109854  28.5205555  16.6986692
  56.2604475  70.4097986  18.3540964  56.7141628  71.2027788  18.0685031
  56.3609457  69.7999525  17.6231945  36.3468499   8.9923450  62.5809029
  36.4044900   8.0467149  62.4441746  36.7601485   9.1369077  63.4320859
  58.7978172  16.6641068   0.3982310  59.1318798  16.9354057  -0.4567714
  58.8150835  17.4622321   0.9263693  18.6610213  78.3513152  84.0596763
  18.0318442  78.2833469  83.3415255  18.9816943  79.2519796  84.0127293
  85.4075713  26.3111659  72.9954270  85.3159709  26.2181016  72.0471755
  86.0287376  27.0309182  73.1065563   2.4008980 102.5137627  46.5317753
   2.2682848 102.6765024  47.4656705   3.1136408 101.8756973  46.4986829
   1.3369743  41.1785412  28.3634639   0.7996742  41.6827917  27.7525020
   2.0457546  40.8266211  27.8249311  96.4055729  54.6449995  15.6368804
  95.7736015  55.2566719  15.2591240  96.6122246  55.0140095  16.4955735
  75.8063555  47.8753090  24.5984578  74.9976158  47.5546837  24.1992402
  76.2831354  47.0823622  24.8437142  81.1923218  83.2314777  12.2071111
  80.5150223  83.1416321  12.8775072  81.4040661  82.3317146  11.9584763
  86.8089676  50.1178980  24.1601753  86.4808273  50.8980083  23.7129855
  86.5298367  50.2276707  25.0691676  98.1312561  55.7463455   9.6208072
  98.6182022  55.3843832  10.3611493  98.6898422  55.5786943   8.8617849
  36.8236680  14.3506499  75.4108981  36.2671609  13.6181756  75.1463000
  37.0361562  14.1713305  76.3268272 104.5921516  39.8068810  17.2169137
 105.0065422  40.0058317  16.3773084 103.6536217  39.8826599  17.0447183
  48.1964873  58.9002686  52.7672366  47.7898799  59.3651729  53.4985141
  48.1167721  57.9746872  52.9978374  45.2796741   8.3045932  71.8405107
  45.0411983   8.4145041  72.7609888  45.5394073   7.3861333  71.7684058
  73.8191600   6.2752696  90.3747364  73.4703918   5.6007930  90.9575506
  73.0604549   6.8143579  90.1511990  25.5239339  45.3992578  79.6499935
  25.7676168  45.7406636  78.7895909  26.3453145  45.3790875  80.1410762
  79.9564695  34.0310812  38.6371660  80.2371025  33.4727049  37.9121184
  79.5811892  33.4243655  39.2753601  38.7240019 102.4783384  75.1551357
  39.1847601 102.2550833  74.3463758  39.3048277 103.0963480  75.5989126
  93.3429241  38.1158066  40.9914303  93.3095837  37.8908896  40.0616264
  94.2763042  38.2094002  41.1818886 108.5794544  46.3581276  38.7251401
 108.8936234  46.9000721  38.0013847 109.2929649  45.7417536  38.8901019
  98.2845020  70.1143503  30.9742308  98.9216137  69.4964170  30.6157756
  97.9772949  69.7006750  31.7809057  95.3139400  53.7238884  11.7263007
  95.4140091  53.5743570  10.7861638  95.1302719  54.6602774  11.8016744
  33.2810584  75.4685354  12.2778738  33.6037437  76.3165998  11.9730866
  33.8344280  74.8273611  11.8318796  47.2343206  13.9975214   0.7040486
  48.1838417  14.0904069   0.7815935  46.8939590  14.3082845   1.5429834
  19.6638862  83.7485123   1.7179488  20.0173274  84.1009903   2.5346917
  19.0160266  84.3953323   1.4384538  43.4821410  14.6683713  87.9049519
  43.3661361  15.0112411  88.7910742  43.9904399  13.8659545  88.0232567
   9.1981021  68.3572817  18.1834745   8.7460891  67.7067995  17.6460850
   8.4954826  68.8250065  18.6349189   0.5323402  35.6518006  43.6419916
   0.9323684  35.0092411  44.2279339  -0.1927479  35.1817417  43.2302713
  32.0605560  15.3356620  79.8368863  32.6281161  14.6302959  80.1476303
  32.0935483  15.2668830  78.8827304  45.3281879  64.8399782  11.6934526
  46.0496140  64.6396208  12.2898054  45.4968834  65.7374239  11.4064550
  54.8661609  48.1588384  85.6106416  54.4969363  48.7834092  84.9862889
  55.5695434  48.6415502  86.0447681 103.9697169  78.5412442  74.1648642
 103.5643004  77.6825416  74.0444568 104.7258710  78.5335171  73.5780052
  79.8197222  37.6825929  15.3448272  80.5110550  38.3412576  15.2781415
  79.9182034  37.1511698  14.5548141  92.6740074   8.9166552   2.3608878
  91.9681740   9.5564812   2.4539098  92.9744530   9.0210372   1.4580765
  59.3515396  72.1745777  30.5575967  58.4049225  72.0609713  30.6426454
  59.6949673  71.9846058  31.4306355  34.9132719  82.0916140  84.6081451
  34.9668684  83.0199372  84.3810389  35.8093825  81.8502748  84.8425910
   0.3820697  73.1110048   7.2268355   0.1317970  73.8880396   7.7266413
   0.7193748  73.4562778   6.4002484   1.7290870  78.5118246   3.2703570
   0.9961978  79.1066408   3.4293813   1.8586532  78.5394764   2.3223686
  63.7669277  48.9674425   6.7335606  64.3096447  48.1829357   6.6545796
  64.3930864  49.6798944   6.8622786  28.5574002  12.6836940  87.5672219
  28.7131734  13.3051129  88.2784242  29.1424747  11.9503900  87.7574447
  42.4842878   8.4393855  67.9604224  43.4251876   8.4820767  67.7897934
  42.2740503   9.2851230  68.3563546   6.7701144   5.3256436  89.0909440
   6.3129182   5.9482499  89.6562490   7.5671907   5.1051351  89.5728940
  99.0346813  60.3241444  32.1595812  98.9986229  60.9814596  31.4646959
  98.4606075  60.6676197  32.8442001  93.7118721  22.5674176  47.0759487
  93.7911415  23.4137177  46.6358042  93.5850334  22.7882767  47.9986429
  45.7843585  17.5686189  26.7435387  46.4766975  17.0100995  27.0970133
  45.0260730  16.9897004  26.6654423 100.9749745 100.3537953  60.7045010
 100.8614825  99.5369112  60.2186493 101.7838716 100.2271473  61.2003616
  88.2488155  90.2387333   8.9331532  88.1857300  89.5059109   8.3205962
  87.5918961  90.0483704   9.6028197  79.4367504  37.2924924  10.4964077
  78.6544228  36.8352509  10.8048272  79.1083574  38.1223154  10.1503134
  76.3107300  76.3554716  34.6774721  75.7290792  75.7851124  35.1800704
  75.7286501  76.8235540  34.0788746  78.9633036  69.9863386  20.3579831
  78.4490299  70.7894754  20.4400373  79.4239998  69.9105120  21.1935902
  56.8646999   3.7249299  73.7293581  56.8226428   3.3944436  72.8320054
  57.7090831   3.4170362  74.0586666 104.5486688  96.4755165  78.3647362
 104.6436500  96.9273531  79.2032210 104.7330855  95.5578339  78.5649363
  45.8263302  50.3090668  13.8358462  45.7240343  49.3746996  13.6549580
  46.1815310  50.3435946  14.7240329 107.3442841  64.7076511  48.7304449
 107.2738552  63.7782383  48.5125685 106.5566254  65.1018572  48.3557129
  87.4498749  30.0646091  30.4172206  88.0406666  29.7482109  29.7337818
  86.5951729  29.7044253  30.1805854  64.0396495  42.9396745  84.8784301
  64.1432471  43.4083196  85.7066051  64.3262191  42.0469018  85.0709501
  35.6301108  86.6080200  80.5065111  35.3576556  87.1989405  79.8045043
  36.2941542  87.0999729  80.9894744  36.4460893  12.7197000  80.3267852
  36.6944785  13.2381984  81.0920898  36.7324062  11.8307420  80.5365649
  93.2245159  68.7701654  23.4551787  93.0007553  69.5834446  23.9076638
  94.0411186  68.4848976  23.8650656  79.8579974   3.5516282  90.4197737
  79.5794482   3.1401845  91.2379167  79.0721507   3.5541173  89.8732579
 104.9393272  35.4905105  34.3340802 105.7135868  36.0340762  34.1881514
 104.6927738  35.6638336  35.2425957  14.8387328  69.2795431  88.8431286
  15.2462569  69.5603752  88.0238078  15.2671805  69.8073673  89.5169733
  42.8734536  17.1766683  82.0589427  42.6466937  17.8023978  82.7468917
  43.4779353  16.5658399  82.4805221  93.9207458  33.5642266   2.2872798
  94.6692085  32.9714608   2.2190000  94.2917347  34.4355035   2.1477444
  98.9657879  66.9989443  26.2938833  98.1999969  66.4577103  26.1018729
  99.6797657  66.3717461  26.4082789  48.4346481   7.0931836  56.0172943
  49.3079372   7.1513482  56.4048723  47.9076286   7.7142688  56.5200261
  92.3813911   9.5855304  79.5100263  92.1613593   9.5825788  78.5784630
  92.2092719   8.6895724  79.7996226  39.7247977   7.5159713  68.7709502
  40.5932183   7.8688785  68.5772351  39.8168225   7.1140500  69.6347908
  48.4670921   1.5282651  59.4191292  49.2170806   1.5682765  60.0125483
  47.7314372   1.2806388  59.9792389  94.7742748  40.6414270  44.1479588
  94.0579700  40.7290840  43.5191107  94.6336460  39.7858429  44.5534611
  11.6506854  33.3658195  36.6798902  11.7837898  32.6356888  36.0753870
  12.1183292  34.0978980  36.2778926  45.6865020  41.6093560  86.6340805
  44.9115176  41.0581990  86.7429522  45.5602164  42.0354291  85.7862947
  39.4397493  13.1369325  84.1956607  38.8640495  12.4276849  84.4816176
  39.4107194  13.7721892  84.9110887  76.5896602  39.0618058  90.5153252
  77.4299712  38.9218923  90.0788227  75.9495158  38.6370107  89.9443682
 104.0691090  38.4226274  22.4527287 104.8910904  38.5713243  21.9853330
 104.0564251  39.0942693  23.1346130  50.3344817  57.7951070  90.2158621
  49.9289127  58.6593362  90.1461457  50.9914870  57.8937360  90.9049487
  15.3510757  22.1437379  69.1000584  15.5884166  21.8318864  69.9733547
  15.9396215  21.6733905  68.5096196  77.7336407  64.3129301  33.2624292
  76.7986679  64.1446733  33.1451917  78.1427813  63.4503698  33.1929445
  27.3948851  53.7490709  66.7046455  27.0274630  52.9412030  66.3460616
  26.6806307  54.1314326  67.2144178  87.5841904  34.3704486  23.7283397
  88.1361961  35.0155902  23.2864046  88.1735134  33.6402011  23.9171934
  66.8207259  32.8183766  70.6622747  66.9648166  31.8927976  70.4653672
  67.7006049  33.1818028  70.7621149  19.3771262  26.4524671  81.6556505
  20.0410409  25.7725116  81.5411345  19.8398109  27.2713443  81.4779065
  11.5767586  30.0368214   7.8623950  11.8585861  29.2239380   8.2819474
  10.7212722  29.8284769   7.4869418  98.4602547  54.2286158  31.2517452
  99.0019035  54.9340725  31.6055489  97.9565811  53.9138794  32.0024037
   2.8125019   2.9044362  76.3569823   2.6442619   3.7969895  76.6591123
   1.9423194   2.5239392  76.2376789  37.2467327  35.4046416  11.3906205
  36.6939497  36.1762452  11.5142846  37.3624516  35.3423762  10.4424834
  40.1469798  21.8219205  90.1290284  39.4183536  21.7165109  89.5172853
  40.6466241  22.5606557  89.7813954 110.9537982  91.3275396  50.8065823
 110.8749722  90.5630624  51.3771895 111.3631677  90.9904348  50.0097064
  74.1525316  62.6609993  24.7718120  74.7224236  63.4262943  24.8478723
  73.3376741  62.9258204  25.1985478 106.2149620  72.8291988   9.8717403
 106.5288734  73.6641979  10.2188265 106.6820431  72.7235508   9.0429401
  54.3336196  30.5662557  74.2933372  53.6959167  29.8552819  74.3571118
  54.9785037  30.2533933  73.6589328  34.6654649  13.4610673  59.5009807
  34.8696656  13.8661977  58.6581281  34.8459382  14.1452762  60.1455883
  93.3774281  58.2325172  19.1803443  94.0481186  58.2551718  19.8629069
  93.6567688  58.8945866  18.5479999  68.4391399  13.8790246  85.4063461
  67.4941535  13.9997073  85.3131900  68.5986610  12.9880687  85.0949309
  88.6346149  66.1574602   6.5974665  89.3684673  66.3877583   7.1672499
  88.5547066  66.8994856   5.9980994  88.1844997  79.4960403  22.8558326
  88.7347889  79.8408318  23.5590601  87.3122215  79.4305420  23.2445145
  92.8186417  14.9543548  59.8563766  93.1998920  15.0251949  58.9812422
  92.3441792  15.7767153  59.9782181  90.4521179  66.2921047  46.8349648
  90.8441353  66.7660618  46.1015320  89.6034908  66.7147303  46.9670725
  31.3618555 101.1354363  80.7214049  31.0259714 101.9117081  81.1695222
  31.0286417 100.3995239  81.2348596  30.9462118  47.7178192  25.4372931
  31.2138224  46.8017721  25.5113173  31.7501473  48.1844997  25.2089787
 109.9328041  53.0432129   5.7284445 109.9442863  52.7461100   6.6382957
 110.8116341  52.8497124   5.4021871  66.1940956  86.9500160  14.1988611
  66.3889408  86.6122913  15.0730538  65.8533669  87.8311443  14.3529510
  49.0318575  94.7705757  63.3488587  49.4508639  95.5387079  62.9607347
  49.7529021  94.1640722  63.5176328  81.4246941  50.8273792  48.2846069
  80.9487152  50.0015974  48.1965637  81.5349770  50.9407902  49.2286444
  91.2097645  62.1990824  22.1321440  91.7643356  62.9399681  22.3766160
  91.0775661  61.7188692  22.9495502   0.6002704  38.1131315  15.2449584
   1.3047973  38.7604690  15.2736270   0.0439254  38.3313513  15.9926856
  14.2442985  12.3037501  89.3908923  14.3268390  11.3502475  89.3750609
  14.3476148  12.5683137  88.4767998  66.3605690  88.5104847  40.9015942
  67.1448469  89.0026760  41.1442709  65.6357574  89.0233040  41.2592268
   5.5666152  78.9314413  11.4694858   5.5347911  79.6670294  12.0811486
   5.9579364  79.2965841  10.6759071  14.4644443  54.3796921  31.7397094
  13.8369552  55.0975084  31.6546512  14.5533744  54.0328598  30.8519983
 100.5095863  52.9418421  18.1315589 101.1720467  52.5598383  18.7072694
  99.9561024  52.2026110  17.8797138  94.5772648  17.8845322  20.4546642
  94.0612698  18.4315026  19.8623824  95.0993729  17.3300672  19.8748302
   6.0259334  60.0912619   5.6367892   6.3434402  59.3577385   6.1634487
   6.7058364  60.2238035   4.9761906  39.9764533  10.4495307  63.5738233
  39.9451156  10.5310222  62.6206139  40.6918998   9.8352738  63.7383012
  90.7100296  70.3715324   6.7741340  90.6574345  71.3269901   6.7504060
  90.6264496  70.1042509   5.8588159  97.6471858  10.1499089   8.0069840
  98.4531979   9.6799001   7.7932823  97.3468594   9.7512826   8.8237667
 110.9371471  39.3225551  10.8799756 111.1843395  40.0690985  11.4256859
 111.2161827  38.5564780  11.3814688  68.6300082  22.9535171  53.2596186
  68.2902999  23.6878129  53.7711219  69.5790382  23.0782910  53.2625846
  78.1188488  51.3622284  19.7040915  77.5173759  51.4159632  18.9614069
  78.7493038  52.0664835  19.5531547 104.5310879  82.4561691   2.0181833
 105.2746105  81.9972515   2.4090858 103.7943363  82.2529984   2.5945091
  55.0524135   0.2743741  66.5428570  56.0075755   0.3211995  66.5015701
  54.8550315   0.2294179  67.4784068  59.1914415  58.8188934   7.6158285
  58.8263559  59.0609312   6.7647350  59.7012281  59.5833969   7.8839356
  35.2366730   5.0690373  18.6703551  35.2960869   5.4774960  17.8067231
  35.8304592   5.5814752  19.2190325  73.6604118  58.6929798  30.7402325
  74.1789961  57.9949474  31.1402941  74.2164421  59.4696999  30.8016300
  67.5117111  91.4053154   1.7209478  67.6526594  90.5838394   2.1916297
  66.5607548  91.4715195   1.6341865  86.1555958  85.2662373  28.6720872
  87.0270824  84.8704529  28.6622643  86.3008308  86.1720943  28.3990216
  53.1189156  46.2162876   8.8759232  52.4876785  45.5018044   8.7906015
  52.6335955  46.9975901   8.6108494  51.8283081  78.9811087  23.1211376
  51.8779755  79.5868301  22.3816323  51.5024996  79.5144558  23.8461351
  85.8074379  65.5497742   2.4113543  85.9957123  66.4218903   2.0646508
  86.5806103  65.0313663   2.1884370  92.4913216  66.2401628  19.8495948
  92.3345947  66.2359762  18.9053214  92.8919315  67.0922041  20.0221205
  93.1474876  16.1986709  16.4630949  93.6464119  16.4375150  17.2442865
  92.7849770  15.3360593  16.6648829  91.7793083  62.4186707  12.2189128
  92.5600815  62.2570848  11.6892695  91.9073200  63.2991743  12.5718486
  61.3424492  58.4613037   4.2523390  61.6459131  58.3913040   5.1574594
  60.5207825  58.9486504   4.3122184  71.7618942  82.4114513   5.0518745
  70.8309460  82.5707054   4.8962936  71.9172001  82.7435589   5.9360784
  85.2261448  59.4994068  25.2444911  84.5803642  59.4746304  24.5383906
  85.4100323  58.5792065  25.4332924 107.2069359  56.6959524   3.1342205
 107.2579288  57.6183605   2.8836268 107.1917629  56.7082405   4.0912217
  13.3996288  48.5602283  25.4160738  12.9041187  48.2169580  26.1596179
  12.7333442  48.9150143  24.8274994  92.3269653  66.9208241  55.2342987
  92.6765633  66.0728788  55.5081654  91.3872337  66.8590641  55.4055309
  87.2444057  41.7599487  14.2523956  87.5673771  41.3120461  13.4705389
  87.4829578  41.1806059  14.9760544  54.4313998  20.7158204  90.0743235
  54.3704601  20.6118938  89.1247359  54.4600196  19.8205825  90.4119008
  24.9160281  85.0053441  78.6826841  24.6200266  85.9081709  78.7989358
  24.1133204  84.5086753  78.5238937  66.4753146  30.7699891  90.3924561
  66.7988677  30.5773946  91.2724852  67.2225757  31.1656114  89.9437824
  16.1440459  62.7236604  77.6817766  15.3667727  63.2763934  77.7627770
  16.7444315  63.2329511  77.1373562  26.2387653   3.3498784  69.3911961
  26.0078950   3.7570401  70.2261475  25.6468148   3.7532063  68.7562541
  81.9331932  88.1652355   8.8396358  81.1697674  87.6780128   9.1495275
  82.6383877  87.5182819   8.8199317   6.9310848  78.3873367  14.1463578
   6.2581912  78.8718128  13.6681020   7.7100746  78.9407492  14.0903080
 100.6015873  56.9555521  14.4175136 101.4378548  57.0965195  13.9736509
 100.8392334  56.5599966  15.2561390  72.2972918  54.9607420  27.2147989
  72.9906321  55.4014158  27.7060461  72.1874762  54.1193819  27.6578450
  63.9905977  30.9718871  14.5359600  63.9005804  31.8850899  14.2635822
  64.2062759  31.0198855  15.4673088  65.4444308   1.5370103  75.9428397
  65.6156249   0.9890767  76.7088000  66.3110728   1.7165299  75.5782524
  19.8778435   5.0758561  32.6984549  20.3821655   5.8491334  32.4455953
  19.5686432   5.2703484  33.5832167  89.6599865  80.0746822  11.3485825
  89.3029213  79.1865826  11.3456416  90.2812672  80.0806332  12.0767343
  41.9161649  37.8766461  81.2641779  42.2702975  37.2456380  80.6375531
  40.9700484  37.7335187  81.2394760  56.9271846  29.5858975  56.0290888
  56.2335487  29.5785638  55.3695015  57.2694869  28.6919995  56.0266331
  85.5890083  62.5497580  31.6122842  84.7947311  62.5378513  31.0782290
  85.5905819  61.7027283  32.0581174  96.8922997  68.7233925   5.9720719
  96.4874172  68.1787491   6.6471022  96.5452671  68.3812380   5.1482230
  96.4161301  47.9484701  15.1934910  95.5182552  47.8964186  15.5211282
  96.3803482  47.5364590  14.3302405  29.9945111  43.8911935  86.3609100
  30.6573577  44.4413682  86.7782465  29.2257972  44.4567319  86.2869430
  88.3322056  75.9293699  45.3816843  88.1593498  76.6148710  44.7363663
  89.2187437  76.1117125  45.6931829  99.5798703  72.3518753  64.3278646
  99.1663285  73.1955719  64.5105934  99.2564806  71.7722511  65.0175667
  16.4105570  56.3604784  62.2401810  15.5852306  56.6598034  61.8587732
  16.9193959  57.1610165  62.3684502  27.8462315  80.2513409  56.8461990
  27.7445030  80.9296036  56.1784792  28.0444002  80.7334232  57.6490450
  73.2305606  93.1304264  77.2043848  73.4413274  92.2336578  76.9443560
  72.3895987  93.0575562  77.6557207  37.6564574  58.7886858  70.0222111
  37.7455091  58.2073307  69.2670059  36.8491817  58.5034227  70.4501867
  90.9974012  23.2221306  12.4452897  90.1521930  23.2200420  12.8945657
  91.4066884  22.3955334  12.7011319   6.2354600  32.2541356  40.2191687
   5.3197408  32.4040723  39.9842024   6.2142199  31.4826345  40.7853508
  18.7164390  88.5743046  56.2094736  19.5424342  88.1790543  56.4882898
  18.8057971  89.5002365  56.4350891 108.5472422  28.7523985  58.2508326
 108.0085888  29.1939592  57.5942421 109.4223022  29.1210628  58.1300449
   4.4430360  88.9295864  41.2808466   3.9458039  88.2496357  40.8262539
   5.2300096  89.0470028  40.7487583  34.4008203  10.5706510  67.8846693
  33.7937056  11.2061891  67.5055408  35.2037104  10.6719312  67.3734522
 108.3721676  48.1622219  82.0289516 107.6645123  48.7293005  82.3353386
 108.3848851  48.2865524  81.0799408  97.3931166  63.8731146  86.5603447
  98.3442219  63.9771509  86.5887642  97.0763453  64.3570662  87.3230267
  98.7331447  55.5694473   4.8948594  98.8492593  55.2127064   4.0142461
  97.7857599  55.5663193   5.0315496  24.1325753   7.1655282  80.9666061
  24.0907113   6.2092503  80.9701347  24.7587149   7.3804101  81.6579819
  99.9917087  65.1259697   4.4708749  99.3637213  65.6627548   3.9874193
 100.7773575  65.6697357   4.5283147 111.2366435  90.1941967  66.6062689
 111.8517590  90.6869984  67.1494198 110.3908180  90.6150341  66.7602444
  59.1155073  41.9438064   1.4148256  59.7560177  41.2374294   1.4985296
  59.3037722  42.5262726   2.1507093  10.0717592  51.0510731  44.3739271
   9.6266210  50.9310198  45.2127790  10.0623310  50.1827002  43.9713430
 103.4721985  70.4446983  59.1142654 102.7480974  69.9598885  58.7181997
 103.0509415  71.1700678  59.5753670  11.7351151  85.4403496  37.4060392
  11.1197209  85.9002113  36.8350339  11.3906574  84.5489597  37.4608946
  86.8421324  71.1827993  84.1597748  86.2098511  71.3583803  84.8566437
  86.3595446  71.3512659  83.3504868  11.8711305  93.6484146  77.1442366
  12.2551584  93.7230301  78.0178404  11.9075453  92.7127266  76.9457197
 102.5885411 102.3293877  59.4219351 102.0512827 101.6392612  59.8109055
 102.0039430 103.0852795  59.3662119 101.6166558  95.7696533  80.5825424
 100.8483990  95.6914139  81.1481285 101.2687894  96.0845470  79.7482347
  64.2278056  10.8595284  39.6570539  64.6003680  10.6150922  38.8098931
  63.9257340  11.7595967  39.5351315   9.0707648  70.7508373  85.5258751
   9.4335425  69.9595547  85.9239864   9.0297461  71.3828564  86.2435818
  94.3890341  79.9759626  87.0380497  94.0792426  80.6704235  87.6194000
  95.2052935  80.3164387  86.6719437  22.7421610   1.5425214  52.1161413
  21.9599085   1.9340333  51.7275190  23.2581394   1.2443551  51.3670826
  46.0831785 101.9850063  69.5930004  46.7930555 101.3508511  69.4922066
  45.6915569 101.7734528  70.4404116  93.4893902  91.5198040  78.2515478
  93.5663053  90.6187725  77.9377794  92.9104765  91.4601898  79.0115070
  97.6791271  91.2214088  76.7330408  97.0411965  90.8035946  76.1545038
  97.2092267  91.3457870  77.5576353  41.0067265  17.8580960  59.7322989
  40.2060171  18.3030328  60.0100136  40.7606425  16.9347485  59.6766043
  67.7751355   6.3585004  87.4303913  68.0799823   6.7622479  88.2429790
  66.9853954   5.8798894  87.6823425  73.2599553  83.1295204  41.7547703
  72.4470862  83.4477234  41.3620663  73.0260643  82.9303837  42.6613426
  16.4754224  70.8870888  61.9137144  15.6633413  70.4307842  61.6933870
  17.1483791  70.4394960  61.4008570  10.7015193  93.2542801  83.5263252
  10.5700910  93.2145405  84.4736290  10.1944780  92.5185204  83.1830978
  14.9666333  81.7554092  61.9462967  14.3570483  81.9373703  62.6615095
  15.5834877  82.4870968  61.9653559  51.0142498  12.3038968  81.8137646
  50.4851596  12.6552972  81.0976601  51.2463825  11.4200982  81.5287209
  94.4029864  46.9641781  64.3809605  94.7805759  47.6563597  64.9236774
  93.9876183  46.3697052  65.0057030  96.9475623  89.6128654  72.4920940
  96.4456173  88.8659763  72.1658516  97.2641011  90.0519276  71.7026234
  31.1883450  94.9474239  48.3331347  31.5559220  94.1349983  48.6811018
  30.5084062  94.6608257  47.7233982  85.2360066  78.4858370  85.3023911
  86.1291727  78.1475067  85.3657913  84.7863659  78.1191063  86.0636806
  90.3251335  33.9360893   3.4614297  90.2546737  34.3665302   4.3134805
  91.2333974  34.0790546   3.1952497  27.5574279  74.6040297  72.7319193
  27.7798605  75.4989052  72.9887342  27.3315501  74.1681623  73.5536432
   7.7006978 101.0429668  29.5618916   6.8983382 101.1270332  30.0770473
   8.2910115 101.7010498  29.9288964  48.6130504   5.0082311  39.4752717
  48.6744170   5.6719884  38.7883258  47.6771884   4.9477014  39.6669197
  27.9133177  91.5867901  61.7213345  28.3531046  90.7917118  61.4202261
  28.0184007  91.5729904  62.6726484  37.4868294  12.8820142  59.7457027
  36.5507633  13.0751523  59.7977638  37.5620338  11.9775113  60.0497675
  98.1754156  72.5279236  82.5657272  98.4331211  72.3007250  83.4591484
  97.7758559  71.7292261  82.2212505 111.2012280  78.5183668  17.3571384
 110.3851674  78.7179327  16.8983901 110.9488460  77.8876448  18.0314696
  43.3956145   2.0481118  67.5850105  43.4093945   1.6887578  68.4720898
  42.5436549   1.7882070  67.2345161  23.3138227  70.3522491  24.2300081
  23.4045362  69.5713806  24.7761297  23.4602833  71.0829687  24.8306990
 111.4054963  98.1264305  72.4589539 110.5755395  97.8243732  72.8279591
 111.2087887  98.9938736  72.1052980  49.1159766  15.5455026  59.2865515
  49.6416263  16.2760648  58.9606476  49.7549622  14.9386033  59.6601772
  47.6026044  56.5717399  24.6407529  48.2965765  56.4720047  23.9890786
  47.8964028  56.0473240  25.3856775  10.8634579  66.8893671  40.2865219
  10.7544112  66.9462824  39.3372583  10.8133101  67.7964067  40.5881786
  96.4061341  32.0698250   9.2543050  96.8242154  31.2327469   9.0524598
  97.1350011  32.6679600   9.4193002  14.4758713  79.8733759  46.0133648
  14.1847587  80.7790756  46.1191511  15.1319575  79.7509861  46.6995192
  10.4509664  79.1395235  87.9656410   9.7660762  79.1931725  88.6321831
  11.1818910  79.6367550  88.3327103   0.7591698  98.8384628  75.2232885
   0.7742430  99.3102074  74.3905449  -0.1134977  99.0073586  75.5784750
  35.1718408   0.8856400  89.0750217  35.8347254   0.3919419  89.5577908
  34.3429892   0.6375798  89.4845390  77.4513726  30.1372060  84.4019127
  77.1980338  29.3544110  83.9127541  78.1807952  30.5055341  83.9033985
  33.1347466  88.7620163  63.9357662  33.9632010  88.2956314  64.0470409
  33.3856177  89.6141338  63.5791254  87.1054825  28.4687794  22.3934957
  86.2604258  28.0288303  22.3009797  87.4073717  28.5990608  21.4945432
  54.9269764  16.3924035  35.5875492  54.1694395  16.3105496  35.0081801
  54.9418299  17.3174390  35.8331490  14.1389740  90.3612804  71.2033415
  13.8559353  90.5128002  72.1050930  13.3331358  90.1509666  70.7315063
 101.9411144  48.0844677  16.9308873 101.6144786  47.3871506  17.4994775
 102.6706919  47.6851547  16.4570733 109.7177419  30.4344833  17.1896097
 109.4775281  30.2944935  16.2736818 109.4077429  31.3185203  17.3860952
  34.9731469  93.5291862  37.6907301  35.7653809  93.0227852  37.5114298
  35.2948260  94.3699455  38.0161262  95.9743795  44.6328152   5.0011369
  95.2218661  45.1235378   5.3315088  96.7171654  44.9654949   5.5049440
 110.3814265  46.7522526  68.9325333 109.5302161  46.3215590  69.0111160
 111.0164358  46.0372686  68.9748478  16.1795926  77.2000122  81.0280991
  16.3225758  77.2267103  80.0820160  16.4481294  78.0658388  81.3354492
   5.0417531  47.4536467  42.3694611   5.6036967  47.7300072  43.0933952
   4.2237496  47.9318523  42.5051832  39.5328331  74.1772985  87.0002556
  40.0650072  73.5509729  87.4909019  38.6749601  74.1461468  87.4237156
  27.0057893  55.4572439  35.6344008  26.2827301  55.2681112  36.2324381
  27.6246810  54.7402239  35.7725596  13.6502457  73.5151148  78.0308437
  13.3900809  72.7534199  78.5488844  14.5922208  73.4057808  77.9006052
  96.9426403  40.0096691   5.9091588  96.1449394  39.5380390   5.6694433
  97.3911318  40.1601494   5.0770208  30.9535942  83.6968506  16.1900541
  30.1521549  83.8453281  15.6881734  30.7572040  84.0397156  17.0618936
  60.5177288   7.0334538  69.5483398  61.2151866   6.4161023  69.3277264
  59.8510938   6.4979371  69.9785233  74.4260089   2.0304859   2.2264406
  74.4037386   1.0750711   2.2804757  74.9719736   2.2144878   1.4620515
  87.0161756  92.1625423  69.9737358  86.3821086  92.1886635  69.2571402
  86.7480930  92.8727913  70.5567551 106.8267784  37.0059765  15.8331796
 105.9554157  37.0107544  15.4370328 106.6702518  36.7951095  16.7536565
 103.8221774  49.0411270  10.4044458 104.6867332  48.6355770  10.3388139
 103.9587173  49.9439800  10.1173326  14.7958732  61.0199547  70.7145262
  14.1893709  60.6603146  70.0671911  14.6193409  60.5203199  71.5116692
  12.7610791  84.5438290  86.2326241  13.6842048  84.6961784  86.4347553
  12.3817348  85.4204273  86.1701393  15.8803999  91.8180180  69.4344521
  15.5430913  91.3837814  68.6509371  15.3068471  91.5186501  70.1398945
  26.5828466  86.6334438  41.3508129  27.3178172  86.8098831  41.9381142
  25.9198594  86.2302494  41.9112682 108.9564996  -0.0678531  86.9221497
 109.5438294  -0.2370921  86.1855030 109.4044976   0.6038865  87.4362373
  51.4112286   8.3644494  32.2701955  50.7293420   8.7138947  31.6964769
  50.9643822   8.1995877  33.1004858  73.2915076  76.5883398  54.3937635
  73.6319884  77.0054722  55.1851559  72.3548587  76.7854023  54.4031763
 109.7891106  86.4155674  60.4612923 109.7547711  85.9862614  59.6064568
 110.6778837  86.2511253  60.7763672  98.4171352  25.5374849   0.3694650
  97.7324972  25.3533304   1.0125753  98.2379374  24.9331177  -0.3508547
  14.7255003  72.9727554  57.3814821  15.2109718  72.6488829  58.1402016
  14.0540671  72.3086357  57.2254419  87.7346285  68.3011103  63.6401749
  87.2394832  67.5820780  63.2476759  87.7095302  68.9962101  62.9825783
   1.7925356  72.9005384  70.1052618   1.9114174  73.8448477  70.0033998
   1.8335637  72.7545404  71.0503721  11.7159915  57.8016329  72.7544641
  11.1773860  57.4719620  73.4738064  12.1952689  58.5389280  73.1325054
  84.0638074  53.4568691  66.5111208  83.9148816  52.5122070  66.5520239
  83.7280139  53.7885571  67.3438644  90.5538333   4.1582307  82.8715134
  90.2341092   4.8543843  82.2975922  89.9839939   3.4124001  82.6837444
  52.7450141  74.5077038  77.0798826  52.5543889  74.0372705  76.2683487
  52.1305665  75.2416563  77.0812559  21.0741544  92.6749802  68.8788605
  20.9392619  92.5245857  67.9432201  21.9007039  92.2341347  69.0755892
   3.7307033  80.3733253  84.6883965   4.6609542  80.4248047  84.4688225
   3.3686364  81.2092686  84.3945694  82.6291832  70.7427883  57.7231312
  83.2555541  71.1163092  58.3431101  82.0828684  71.4831495  57.4592400
  93.3253441  60.5553615   9.2170640  92.6060102  61.1484039   9.0000650
  93.6595223  60.8800781  10.0531980  84.1419903  62.3471058  18.1763288
  84.3472919  63.2068622  18.5436269  84.1150293  61.7630852  18.9342328
   2.6863641  87.3339844  46.9465113   2.6063332  86.4599037  47.3283720
   1.8173756  87.5205994  46.5911770  24.4619942  98.7872028  71.5207577
  23.6977386  98.8002110  70.9445810  24.9975777  99.5232868  71.2248659
  89.8532089  98.6119556  43.6011839  90.1671418  98.4806633  44.4958591
  90.6346282  98.5162830  43.0566978   7.8357166  94.7700977  37.0808101
   8.2935774  95.6043911  36.9780922   8.1917459  94.3993187  37.8882766
   1.4462283  80.7673836  40.1937437   0.8622797  81.4533329  40.5173445
   2.3010892  81.1927128  40.1263332  39.2426372  68.2850885  70.1960754
  38.9584923  67.8648520  69.3843508  39.5161343  67.5601292  70.7580948
  45.1937132   8.3690175  74.4890499  45.1932834   7.6206597  75.0858593
  44.8839842   9.1009625  75.0224972  45.3543686  -0.1299087  68.4678316
  45.1337372   0.1056394  67.5666809  44.9967419   0.5835828  68.9962912
  17.8444219  84.3813133  72.8494310  17.6606345  84.1259575  73.7534475
  18.5610044  85.0120354  72.9196692  41.8127775  78.1151819  60.4739761
  41.5294170  78.9614964  60.8199406  42.4706221  77.8092909  61.0984039
  98.8985691  30.6070316  16.4572831  98.1580720  31.1153591  16.1263772
  98.6711034  29.6978748  16.2625047  98.1768140  50.0180900   4.6402856
  98.4684596  49.9572742   5.5499479  97.2602925  50.2875984   4.7001191
  22.9131413  79.7761154  66.4630365  23.2747650  79.0873194  67.0207310
  22.9587150  79.4158173  65.5774069   5.3521550  60.6956387  72.7758884
   4.5343760  61.0055637  72.3867655   5.9012955  61.4775133  72.8337336
   6.2815934  91.2940693  56.0092115   5.7540840  90.7950211  55.3855801
   6.8586063  91.8270779  55.4622269  60.6422000  14.0521058  34.9462938
  60.1250439  14.1674050  35.7434678  60.5292110  13.1292066  34.7188902
  29.8483944  89.6249390  61.6786098  30.4512787  88.9042187  61.4960527
  29.6917748  89.5732021  62.6214886   4.6075436  25.8598804  44.0347195
   5.3659725  26.3562965  43.7271643   4.4352967  26.2041664  44.9110937
  29.0580678  46.3056231  51.5220690  29.8482585  46.7911530  51.2852335
  28.3556175  46.7411375  51.0392427 106.6776805  33.0769610  62.0051432
 106.7926648  33.0447245  62.9548645 106.7440473  32.1641660  61.7247295
  34.8241166   0.5238410  79.9845282  35.6326941   0.3692647  79.4961206
  34.5609883  -0.3433303  80.2927676 110.9422665  19.0808845  27.9587483
 110.8703474  20.0346637  27.9956698 111.8337484  18.8962901  28.2544112
  24.2797613  48.1832314  21.4786649  25.1022530  48.5150576  21.1186218
  23.6694193  48.9160061  21.3964915 101.7316892  84.0615559  49.8802328
 101.0178836  84.1998005  50.5028105 101.3043102  83.7064075  49.1008472
 103.5858133  61.1869001  70.5630159 103.8715752  61.7446136  69.8394632
 104.0702834  60.3703117  70.4417801   3.9501449  28.2078767  60.5415535
   4.1346565  28.8580370  59.8637056   4.3365714  28.5746717  61.3367701
 104.9091335  49.2230988  51.1648750 105.5564090  49.8740864  50.8938074
 104.5094516  49.5955944  51.9508362 109.2547340  68.9317751  54.8460865
 108.4975436  68.9265108  54.2605400 109.3971279  69.8571491  55.0451660
   5.2761406  92.7367783  11.8334508   5.9714627  92.6642513  12.4872851
   5.4470301  93.5694981  11.3934433  99.3484888  21.8961609   3.3637163
  99.4456372  22.0697010   4.3000242  98.8355455  22.6345480   3.0352231
  95.6382462  85.2254200  62.8592587  95.5118092  84.3458080  63.2149649
  94.7553571  85.5912971  62.8056765  20.8694243  62.7575254  47.8938198
  21.0021400  62.2841930  48.7151432  21.2975454  63.6023617  48.0323887
  31.5465546  46.5466738  67.5684261  31.7833042  45.6913042  67.2099257
  30.8368683  46.8545437  67.0046949  93.0019113  52.8926325  19.9412870
  93.0879327  53.7759590  19.5827246  93.6812838  52.8398037  20.6135154
  73.0978974  88.7756062  22.8051662  72.2526702  88.8493252  22.3620129
  73.6190828  89.4946861  22.4480748   9.4463962  26.4906645  67.1856689
   8.6384928  26.8719864  66.8419886   9.8460025  26.0566878  66.4318752
 111.0640895  31.6367984  80.9321690 111.0059802  31.6571021  79.9769545
 111.1439444  30.7075739  81.1475754  96.6212519  50.0215197  37.7527428
  96.9839390  49.2290449  38.1485629  97.3543426  50.4064608  37.2725034
   0.5128618  91.7042160  54.2822647   1.4578190  91.6352081  54.1461563
   0.1330183  91.1207771  53.6253357  68.0595514  35.9304130  11.5475103
  68.4653393  36.7972649  11.5592882  67.3997930  35.9841717  10.8560964
   2.3335943  42.7589798  32.8122950   2.2837447  42.4186039  33.7055421
   1.4207196  42.8460312  32.5378633  89.9300703  54.0147448  87.2527313
  89.2272504  53.6748600  87.8065872  90.5089315  53.2652521  87.1134090
 101.3371714  47.2560167  76.5555716 100.5687078  47.3267698  75.9892750
 101.8977096  47.9853821  76.2908936 105.9418764  66.6846371  45.6933737
 106.7534532  66.9796658  45.2804184 106.0356953  66.9357014  46.6122866
  15.3561139  64.8263502  20.3071952  16.1724782  64.6054363  20.7554984
  14.9219155  65.4470730  20.8923531   3.9916265 100.4817390  89.0594292
   4.4421127 100.3677845  89.8962688   4.6681762 100.3270149  88.4002018
  30.4880142  60.7339191  62.0185947  31.1429262  60.5361032  61.3491201
  29.9670506  61.4430761  61.6418648  85.8419213  34.0444363   3.4708329
  85.5971179  33.9851654   4.3942949  85.8627460  33.1360519   3.1697866
  12.3709321 102.4639988  49.7681189  13.1563509 101.9171047  49.7840071
  12.6054370 103.2349873  50.2846575 103.9172985  79.5876455  18.9616668
 104.4079789  78.8047504  18.7115932 104.1172149  80.2248287  18.2759070
  78.1352385  77.8348494  49.8122597  78.3975967  77.3877001  50.6169081
  77.4155601  77.3058796  49.4680405 111.3550150  56.7735529  69.1070652
 110.5416034  56.4874029  69.5226526 111.3094895  56.4161921  68.2202435
  85.7398971  96.4335346  80.4175568  86.5339955  96.0971260  80.8328533
  85.0536045  95.8206081  80.6812954  58.8241010   1.6188249  40.8959341
  59.7045855   1.2733468  40.7488728  58.9544205   2.3660001  41.4798641
  23.7102103  94.4619083  89.0602970  23.2548881  94.3965054  89.8997211
  23.8988233  95.3952026  88.9622116  34.2649055  90.9026241  72.1980333
  35.1085758  91.3395786  72.3143435  34.3087935  90.1397514  72.7745152
  40.2004480  73.9528227  40.5035400  39.6256399  74.6188688  40.1264286
  40.9757185  74.4378090  40.7863426   7.0595652  73.8191605  83.7504578
   7.0152849  73.4855080  84.6465302   6.1945182  73.6362505  83.3837509
  33.9507900 104.2029361   0.2692815  34.8811890 104.3155698   0.0745984
  33.8321217 104.6214799   1.1219140  49.0604195  17.1381605  16.4708825
  49.9094710  17.5127113  16.2362500  48.8500604  16.5490473  15.7463666
 102.7355792  82.7520561  15.0382149 102.0820232  83.2870865  14.5878363
 103.0628886  82.1561718  14.3644047  19.4382238  92.1561432  63.6653423
  19.7282338  91.3835526  63.1803322  18.9417505  91.8030548  64.4036293
  38.3511758  85.4920197  75.3129292  38.4796739  86.3417912  75.7343674
  38.0319023  84.9231148  76.0133934 108.0368178  69.9982357  43.5040903
 107.1870085  70.2328300  43.1312370 108.3722501  70.8168793  43.8695288
  25.6872892  11.2462711  10.3542423  25.9201598  10.4263234   9.9187088
  26.4887428  11.5149224  10.8033836  83.9715751  66.5911102  40.9828806
  84.4550952  66.6573620  41.8063211  84.5803341  66.9184065  40.3206730
  96.7029866  44.6937227  39.3133593  95.8978339  44.6599436  38.7968135
  97.0327421  45.5831194  39.1850352   7.2591794  88.2162762  36.0368752
   6.6606319  87.9197598  35.3512740   6.7459202  88.8410950  36.5491271
  17.8190017  53.5745907  41.2961578  18.4237134  53.7550068  42.0158863
  17.0109892  53.2951260  41.7265606   6.5110064 102.6446247  49.1341591
   5.6325978 102.3222542  48.9323997   6.8470418 102.0311832  49.7876120
  19.7732174  86.5548801  39.2456579  19.0775502  87.1403122  39.5449090
  20.3595972  87.1182156  38.7406373   0.2396206  87.2450829  49.2147923
   0.0235231  88.0823517  49.6253061  -0.1610443  87.2934246  48.3468246
  31.2997580  65.9615421  49.6220541  30.5227137  66.2462759  50.1030493
  31.3009572  66.4983797  48.8295650 100.0996538  54.7388172   7.1428847
 100.9376033  54.2983198   7.0013428  99.8390492  55.0428915   6.2734842
  94.7580334  55.4959345  43.4858990  94.9697288  55.5018854  44.4193745
  94.9638685  56.3819933  43.1879663  85.3400954  66.6176653  75.9341526
  86.1337789  66.1752844  75.6331635  85.6576093  67.4063540  76.3739109
 104.6730646  60.1869297  45.5220127 105.1502355  59.9994183  44.7136927
 103.7872835  59.8634291  45.3577852  80.5742081  70.8711863  33.9456296
  80.0588306  70.9232092  33.1406999  80.1515421  70.1807928  34.4564533
  25.5475855  51.2965488  83.4074306  26.4508986  51.2939358  83.7240505
  25.3082132  50.3710508  83.3586216  29.6459603  96.7760563  87.5731659
  30.3273702  97.2721004  88.0268764  29.1923571  97.4268818  87.0375443
  72.9353651  89.8480225  70.5286217  72.1944340  89.5666027  71.0653305
  73.3051475  89.0345669  70.1854181  12.7675498 101.2869644  22.4114847
  11.8416941 101.0464096  22.3775005  13.2081103 100.4993248  22.7304697
  80.6020220  97.0326996  35.0772500  80.3986724  96.1240005  35.2989364
  80.2578577  97.5411606  35.8115864  49.0283553  11.4135083  57.1625328
  49.1473656  11.9155892  57.9687452  48.0793612  11.3272675  57.0719624
   7.4299538  68.7916756  27.3948836   7.6570040  69.5682764  27.9063225
   7.5739640  68.0595255  27.9944229  95.0260850  99.6263123  23.3653069
  95.2926298  99.9654388  24.2198133  94.0699597  99.6033096  23.4043837
  41.1836624  80.2814198  38.6249256  41.4656830  81.1668015  38.8546896
  41.2174702  80.2598953  37.6685643  24.6895242  63.4359550  49.7064495
  24.3677115  64.3349171  49.6390915  24.2423820  62.9680157  49.0012312
   9.1440594  56.1281490  77.0373058   8.2609445  56.3453770  77.3358917
   9.7194064  56.4735746  77.7198696  88.1336006  63.3768320  30.6852150
  88.3900317  64.1922617  31.1159658  87.2762855  63.1690073  31.0567689
   2.9203954  71.0712814  83.1918049   3.8011432  71.0417747  82.8181171
   3.0524769  71.3641214  84.0934849  93.1627842  49.0641880  42.0059776
  92.3466428  48.5883904  41.8518209  92.8991982  49.8356533  42.5075722
  42.9772425  72.2091818  78.3626842  42.8885269  73.0725050  77.9589081
  42.1774530  71.7454386  78.1146669  87.9038700  76.8174028  26.9913292
  88.1629046  76.4997244  26.1263347  86.9859608  77.0688629  26.8891406
  25.9779882  77.3959112  28.5429740  26.3035798  77.9364443  29.2627287
  25.3530383  77.9580069  28.0850244   5.4365432  77.6869631  48.6549282
   6.3421637  77.3780537  48.6293077   5.4831707  78.5914946  48.3452749
 105.4125055  72.2576714  44.2805624 105.5125799  72.0701885  43.3472538
 106.0846766  72.9132748  44.4665813  24.0242004  77.4610186  74.8550224
  24.0570688  77.0648098  75.7257557  23.1757808  77.1932173  74.5018959
  56.0545966  17.4249018   8.4184572  56.4623568  18.1731117   7.9823991
  55.2534029  17.2645367   7.9198572 109.2878910 100.0045013  16.6051841
 109.0335541 100.2753448  17.4873328 109.5151605 100.8209133  16.1601543
  16.2927699  73.4533167  36.4384365  16.8138361  72.8265333  35.9365749
  16.4869761  74.3009138  36.0383153 108.6105456  29.0101051  68.7762690
 108.7467667  28.9349532  69.7207403 108.4236481  28.1162453  68.4893608
   8.8374114  41.2622118  52.1082354   8.3897972  40.7211065  51.4577913
   8.8266462  40.7347345  52.9069138  79.7890195  48.8640833  68.1308746
  80.6851681  48.7693357  68.4536362  79.2427643  48.7790298  68.9122868
   1.3540162  17.2218084  17.5961578   1.0937576  16.9778645  18.4844089
   2.1508938  17.7389479  17.7135646  22.1338940  64.2760420  71.2858534
  21.3888311  64.1222334  71.8667650  22.5328660  63.4131145  71.1744356
  68.7205605   1.4739427  66.3315439  68.5837726   1.0969457  65.4624081
  68.8308720   2.4111852  66.1714268  62.7764778   0.8922872  33.6806345
  63.4763508   1.0688218  33.0519485  63.2324176   0.7194814  34.5043421
   8.7907434  50.9827852  54.5367670   8.6031377  50.6579542  53.6561298
   8.2667971  51.7800617  54.6146393  13.5452537   6.7161950  16.0500896
  13.7407474   6.2564763  16.8665874  14.3902163   6.7847737  15.6056023
  92.5658663  86.0752392  61.9469357  91.6465970  85.8092213  61.9266891
  92.5455745  86.9844532  62.2455120  26.4758754  75.4303789  40.4131365
  27.1755600  74.8474598  40.7078934  26.8156266  76.3112402  40.5708742
   7.8369576  90.0827885  63.5249376   7.9062605  89.2884827  64.0545654
   7.7647769  89.7649956  62.6249170 107.5453898  74.0515518  67.6455498
 107.9607924  73.9995527  68.5063457 108.2287159  74.3955088  67.0702314
  17.5901496  70.5206442  64.3904018  17.2796202  69.7576666  64.8779058
  17.1102560  70.4876757  63.5628462  78.5543426  84.4403458  37.8653216
  78.8134082  83.6912251  38.4019136  79.3713149  84.9113560  37.7011967
   0.4421543  54.8708057  67.0677519   1.3525340  54.9126053  67.3604870
   0.1621904  53.9809656  67.2823143  94.4982632  72.2041988  68.1966496
  94.5555326  71.4712811  67.5836325  94.3167873  71.7951107  69.0427828
  37.3644304  69.9837255  50.5532503  37.8124571  70.8262825  50.4784107
  38.0424356  69.3776274  50.8518887 111.2466064  81.2468433  47.3169422
 111.7473930  80.7973480  46.6362047 110.4842324  81.6009235  46.8590736
 107.5095575  81.7311192  74.5363808 106.7096802  82.2372437  74.6787453
 107.8982001  81.6474342  75.4071188   5.7430565  43.5010529  61.9709778
   4.9054337  43.1747532  61.6421175   6.3473785  43.3924246  61.2366581
  39.2724109  69.5082426  42.2013950  39.9876165  68.8730764  42.1656132
  38.6105061  69.1574383  41.6055346   6.9993442  93.6130047  58.7225771
   6.2809056  94.2017555  58.9537668   6.9842792  93.5808277  57.7660370
 108.9688630  53.8046074  21.3336420 108.5423961  54.6300602  21.5638280
 109.8820054  53.9261150  21.5937161  11.9631243  61.8075705  56.3507748
  12.5598049  61.8745422  55.6053114  12.1598732  62.5771141  56.8849325
  54.0164511   6.1180505  87.9413414  54.0259998   6.8315038  88.5793972
  53.9556305   5.3234013  88.4714985   6.7240900  72.0901871  36.5376878
   5.8817649  72.0468283  36.9902802   7.2782052  72.6176977  37.1129441
   1.4661437  89.6618271  58.6068487   1.7891723  90.5364323  58.3901691
   1.8220881  89.4839096  59.4774151 100.2688833  90.5937481  64.5747328
 100.6923863  89.9557400  65.1490307 100.3507014  90.2182674  63.6980581
  10.5252481  93.2565880  35.9639812  10.2884173  93.9620972  36.5659714
  11.3373637  92.8984547  36.3223672   7.1309590  85.1312637  79.3998337
   6.3397247  85.0843620  78.8631964   7.7772325  84.6138287  78.9193916
  98.9504262  49.5591307  39.3159819  99.2250880  50.4033852  38.9581800
  98.3484443  49.7840643  40.0253868  33.1173515  68.7055111  68.5809517
  33.2446766  69.6447897  68.4476185  32.1703744  68.6032724  68.6758709
  18.8811576  90.6769466  77.3633146  18.1830430  90.4985523  77.9934263
  18.7087584  90.0761509  76.6383648   2.5584921  60.4298306  24.9031305
   3.1801435  59.9123383  25.4149699   3.0100432  60.5970621  24.0758657
   2.2594938  69.6808195  80.8813667   2.5088930  70.0090218  81.7452621
   3.0911139  69.4783831  80.4528141   8.3669311  39.4697762  47.8560209
   8.9392108  40.2279854  47.9737091   8.4257841  39.2679310  46.9221973
  21.4857841  52.7461863  46.6722059  21.2383819  51.9186401  47.0847416
  22.1079063  53.1416178  47.2828007  11.7651868  88.0059147  56.5836573
  11.7167509  88.9277363  56.8369102  11.6480553  88.0120468  55.6336689
  23.9551950  73.6171007  49.5102882  24.5733118  72.9040480  49.6706724
  24.4486189  74.2486238  48.9868927  10.8625412  79.8446321  31.5303254
  10.4612696  79.0360975  31.2117553  10.6044149  79.8936319  32.4507618
  99.0459617  70.1903915  20.1275921  98.3192321  69.8935461  20.6752968
  99.0228304  69.6123171  19.3650115  42.5467587  87.4837112  37.1822095
  42.8870869  88.3302689  36.8928075  42.0421124  87.6851654  37.9702306
  19.5454919  76.4787340  44.1615248  19.2802632  76.9651604  43.3809614
  20.3369498  76.9241619  44.4638824   3.7446436  89.6731186  34.5755148
   3.9107475  90.1045990  35.4136467   2.9121232  90.0400829  34.2780542
  17.3711777  40.2537012  63.9419127  18.0503500  40.1716375  63.2724190
  17.1930015  41.1930227  63.9884615  27.8726768  60.2204037  68.5877275
  28.0208015  60.2714062  67.6434326  28.5442448  59.6156693  68.9031935
  45.2386284  92.0290661  67.7007389  44.9677515  91.3737011  68.3436584
  44.7492123  92.8160667  67.9401827  33.0476880  41.4442921  73.0849361
  32.5430727  41.7831087  72.3454809  32.8700328  40.5037212  73.0852461
  10.4332459  47.4483109  45.5083132  10.9118485  47.0991659  44.7564697
  10.9480357  48.2046413  45.7897186  17.6331890  71.1829615  22.1659851
  17.5828075  71.7025518  22.9683065  17.0171118  70.4640913  22.3070979
  83.6605676  51.7040920  30.7582903  84.6104225  51.7813492  30.8479595
  83.4431728  50.8875275  31.2079501  85.6959017  53.4779644  77.0901537
  86.6326221  53.6570311  77.1721649  85.2782973  54.3323612  77.1989727
  85.7786091  61.3162804  23.0707955  86.1223634  62.1557283  23.3763885
  85.8638986  60.7335520  23.8253713  13.9725840  56.0528135  26.0946941
  14.5642972  55.3600836  25.8010435  13.1452680  55.8650064  25.6514001
  19.3837023  38.0363607  58.5141563  18.7004733  38.7063551  58.5373974
  18.9064157  37.2068381  58.5320807   7.7994776  75.9622908  58.7484217
   8.1041181  76.3621664  57.9338503   6.8620801  75.8249283  58.6118650
   5.1256764  95.0512695  63.8932657   4.5901346  95.7492352  63.5160875
   4.6054652  94.2572212  63.7703466   5.0337833  81.0023785  27.7985358
   4.5932594  81.7927837  27.4863839   5.7973015  80.9126472  27.2282553
  32.7829504  42.1237803  38.3666325  31.8411231  42.2271729  38.5026646
  33.0573654  41.5098619  39.0478325 100.8962520  61.1718893  56.6746521
 100.5892738  60.2708054  56.7748547 101.8180110  61.0852671  56.4315748
  47.4062853   4.4595536  62.8557634  48.0538325   4.9280080  62.3290205
  46.5916227   4.5381364  62.3593950  16.5787220  84.9184418  37.7632117
  17.2599399  85.1803112  37.1438575  15.7578611  85.1473999  37.3273277
   4.4660595  34.6971440  44.3360376   4.3691602  35.3426409  43.6359119
   4.1588897  33.8769531  43.9498186 102.5464638  63.9095306  60.9447432
 103.4423503  63.9840841  61.2734699 102.6391181  63.4878445  60.0904465
   7.1910244  54.6743298  46.3405561   6.7374557  53.8741636  46.6055918
   8.0275095  54.3700743  45.9884834   3.7511671  63.6048222  53.8986206
   4.6937892  63.5343122  53.7478733   3.6235946  64.5039320  54.2011976
  13.1889999  77.7534246  52.7716684  13.8371110  78.4576273  52.7547455
  13.4983552  77.1595860  53.4556913  14.2290974  21.9442558  34.6874833
  14.6489537  22.5140429  34.0430498  14.3584406  22.3921251  35.5234957
 104.6534499  55.0810051  30.5769205 103.9459284  54.4617176  30.3976750
 104.2463871  55.9425592  30.4860759   3.1539813  87.9915333  53.0875540
   2.9890040  87.0650005  53.2623816   3.2569361  88.0413151  52.1372128
   4.4111115 102.1281242  65.7739258   3.8835004 102.8586483  66.0967207
   5.2183354 102.5358772  65.4603052  97.6663932  24.1085375   2.6088830
  96.8874344  23.5975016   2.8286573  97.5968823  24.8955191   3.1493112
  16.0488915  88.8589573  82.1136093  16.7286015  88.2486439  81.8276978
  15.5140316  88.3525467  82.7249241  28.0812554  15.7479581  52.4548197
  28.1977050  16.0472688  51.5531111  28.5546760  16.3903436  52.9834461
  19.5784199  95.9399796  29.1293621  18.6270881  95.8386707  29.1599751
  19.7170329  96.7562199  28.6489749  83.9748149   0.6922826  64.6554899
  83.6618905  -0.0817195  64.1872597  84.9024253   0.5174169  64.8142338
  36.6826725  70.3525972  58.4223795  37.1602464  70.0300837  59.1866684
  35.9983134  70.9138632  58.7868834  43.7670384   2.3951825  86.6351795
  44.2363839   1.9436940  87.3366737  44.2210524   3.2328900  86.5437508
  30.1852536  83.8471222  62.0957375  30.0360918  84.5091438  62.7707911
  29.4445920  83.2468224  62.1811724  11.9779527 104.1302776  70.4454374
  11.1655951 104.0009975  70.9349251  11.6934359 104.2743778  69.5429325
   0.0671513 103.6964035  57.8334475   0.3644779 103.2802582  58.6425495
   0.3523477 103.1019402  57.1395397   4.5992708  61.4184666  80.0920010
   4.4669425  60.5395460  80.4472828   3.8789675  61.9342613  80.4544163
   7.2077656 102.8451347  42.4639273   7.7521390 103.3426952  41.8537474
   7.7148080 102.8249454  43.2755518  18.3900242   5.7688626  25.1162410
  18.4346406   6.6354760  24.7122288  19.2571716   5.3911408  24.9692369
  22.1320908   3.8258275  74.3050241  21.9720952   3.8352879  73.3613348
  22.6335935   4.6240720  74.4709444  96.4483437  38.4319866   2.4742242
  96.9103012  37.6866806   2.0903703  96.0436115  38.8733280   1.7274686
 102.6711830  74.9178171  85.5884647 103.2222506  74.7962761  86.3616276
 103.1844463  74.5511866  84.8684788  19.2524743  52.5647831  39.2267036
  18.6904657  52.9762268  39.8832822  19.2174268  53.1576395  38.4760189
  95.1145693  87.5214005  45.9158468  95.1156064  88.4785843  45.9223700
  94.8526319  87.2882366  45.0252008  26.6082215  83.7474251  88.5828686
  26.3288999  84.5544910  89.0151310  27.5079942  83.6149120  88.8813305
  91.3482114  78.8077927  77.3492527  91.9427653  79.2338371  77.9666853
  90.8614811  79.5284843  76.9493389 106.1735568  27.1103275   1.8070051
 105.7443795  27.2808874   2.6454183 105.8707366  26.2376488   1.5560743
 108.5950626   5.3905686  83.2905674 108.7184776   4.6776303  82.6638985
 109.2762102   5.2516755  83.9485741  31.8327117  79.3155622  42.8530836
  31.0035610  79.6403790  42.5020313  32.2852302  80.0999928  43.1631422
  94.9914012  20.1496065  23.9750692  94.3613634  19.5115698  23.6401101
  95.2049908  20.6953371  23.2182428  97.4656757  80.2971935  82.0990562
  97.6497038  79.4194651  81.7644501  98.2142004  80.5016708  82.6595306
  94.9117752  97.8074932  60.8126593  95.0859257  96.9299984  61.1531115
  95.7724532  98.1414890  60.5598545  61.4401965  15.4758939  43.0816984
  60.7977109  16.1832341  43.0259371  62.2413235  15.8505925  42.7155972
   1.6493717  91.7491722  62.4510670   1.3003859  91.7881012  61.5606022
   0.9129966  91.4492512  62.9840136  24.5899940  62.9434109  77.6373100
  25.5179048  62.7175283  77.7020550  24.1654038  62.1332932  77.3550701
   2.8438839  92.2039700  76.7961407   3.0453461  92.9624653  76.2481165
   3.3556139  91.4904404  76.4150381  95.9661541  46.3283146   2.3320218
  95.2885279  46.9808090   2.5089380  95.9019479  45.7123649   3.0618974
  44.5935297  70.6224394  54.9204159  44.2068005  69.7826385  55.1682138
  44.9064779  70.9946060  55.7449102  28.2685971  99.3476582  69.2156935
  28.2839942  98.4195423  69.4493675  27.3660612  99.6210194  69.3798018
 100.5874392  74.8798132  48.5315752 100.4085680  74.5107746  49.3964720
  99.8631450  74.5733500  47.9859447  12.7201474  91.0728931  56.9919538
  11.8309510  90.9502506  57.3243999  13.2279348  91.3387203  57.7585840
  17.2293699  72.7717495  51.2070990  16.8787944  73.2456827  50.4529667
  16.4640212  72.5893402  51.7522621  48.8394260  84.8032761   4.3286395
  49.6058893  85.1072884   3.8424906  48.5164356  85.5836964   4.7790366
   0.2354776 102.6079082  50.3125095   1.0280043 102.6504993  49.7774220
  -0.2564865 103.3938599  50.0748730  38.8553858  98.4020901  69.5072603
  38.6326361  97.4988937  69.7327423  38.5536909  98.9171410  70.2555513
  25.1893859   2.2103413  57.1162510  25.9552889   1.9557294  56.6016674
  24.4422452   1.9757089  56.5658331  35.1928020  81.2136555  31.6361880
  34.8897648  80.7203674  30.8739114  34.8788762  82.1051598  31.4848328
   1.5915400  94.7083664  62.4680853   2.1596576  95.1556778  63.0952883
   1.8252952  93.7837887  62.5502157  72.1996745  45.1028681  81.2982559
  71.9786175  45.9216022  81.7421436  72.7046569  44.6089649  81.9442368
  47.4079208   6.8149289  28.1351233  47.1901469   6.3887700  28.9640903
  47.9203729   7.5828465  28.3879638  49.2019229  14.3552789  56.2806797
  48.6134879  14.6091374  55.5696726  48.8455038  14.7922906  57.0541286
  96.3863166  69.1429472  50.0874233  95.7059797  69.5058489  50.6545877
  97.1213420  68.9698553  50.6756496   7.3213011  90.9424305  53.1465721
   7.8957158  90.2348804  52.8539038   6.7549264  91.1175156  52.3950386
  60.0411610  20.4793462  75.0321245  60.3115444  21.3661870  75.2700949
  60.6289177  19.9087533  75.5273056  79.7554048  85.2345467  63.2109690
  79.5910891  86.1732674  63.3006001  80.6439217  85.1138687  63.5459375
   8.3283085  78.7296820  86.1646843   8.6262238  78.0356979  85.5765820
   8.9557707  78.7169170  86.8874359  30.4754949  99.3677711   6.0118264
  31.3007140  98.9244270   6.2085360  29.8422360  98.6581802   5.9036660
  28.2992935  75.5636358  29.5254755  28.0244541  75.0668478  30.2961230
  27.4836683  75.7641602  29.0663695   3.4471098  41.4245939  65.7848597
   2.7198297  41.5272427  65.1710558   3.1560934  40.7415009  66.3889503
  11.8214166  69.7230434  26.3078904  11.3895512  70.4419899  26.7692351
  11.1289799  69.3283796  25.7777929  33.0020271   8.6713036  74.9830437
  33.1299751   8.7662896  75.9268856  33.8746511   8.7945279  74.6094465
  64.1407900   3.7647447  71.7472124  63.8199692   2.9369172  71.3894415
  65.0854497   3.7415799  71.5945339  25.5826640  73.0388784  78.2118988
  25.2735400  72.1361923  78.2882404  26.1033559  73.0466223  77.4087477
  29.8869514  82.3692894  50.0294781  30.4164433  82.5697327  49.2576647
  30.5265069  82.1915340  50.7191181  81.8040236  68.4312057  56.3926506
  81.7297920  69.2855644  56.8178415  82.3606142  67.9192066  56.9794130
  25.6154513  96.0239220  62.0432138  25.2163196  96.5996075  61.3909006
  26.1271501  95.3987503  61.5298462 108.8899765  71.5088463  55.4914951
 108.0864146  71.9855070  55.2833652 109.5664725  71.9404888  54.9697018
  73.2600479   2.5762948  66.3593054  73.7992482   2.0897397  65.7358027
  73.3790116   2.1152409  67.1896696  37.0728445  65.9459543  61.0810089
  37.8057837  66.2429857  61.6202688  36.9209886  65.0428963  61.3596725
  28.5412240  61.2589979  40.2435446  28.2843351  61.4235210  39.3362570
  29.3364429  61.7777205  40.3651381  44.6592379 100.5924797  42.0920086
  44.7905636 100.4337120  41.1572504  45.2437162  99.9703217  42.5250626
  97.1237596  90.7185936  63.3245564  97.3522159  89.8135662  63.5365868
  97.8875848  91.0549164  62.8558445  32.3232031  93.7611198  40.0666380
  32.0773077  94.4945908  39.5029092  31.4906526  93.4226036  40.3960276
 105.9150078  72.3904085  78.3530235 105.7843765  72.2374535  79.2888498
 105.0395044  72.5827360  78.0172634 105.3597691  98.1489658  38.4811878
 104.5134809  98.1403732  38.0340266 105.6485172  99.0601349  38.4299016
  51.3733630  12.5994691  52.0434618  50.9789758  12.6438245  52.9145050
  52.0131509  13.3113679  52.0336819   9.3580931  39.4186783  54.0426779
   8.4383631  39.1636300  54.1153336   9.7165775  39.2743182  54.9183941
  23.1256080  97.0797825  27.4536681  22.8732061  97.5703144  26.6714263
  23.8152480  97.6081181  27.8555346  36.7544133  11.0870847  52.9400301
  35.8749392  11.3285550  52.6494312  37.2940637  11.8489179  52.7288008
  98.5803648  51.2666512  84.8073196  98.2362684  51.4250374  85.6863785
  98.0163332  51.7840433  84.2325115   9.5398760  67.2640133  46.4638996
  10.0260746  67.2462559  45.6395674   9.7418213  68.1195641  46.8426943
   4.7862756  87.2027016  60.8660030   4.0963250  86.6911125  61.2884617
   5.0420666  87.8491783  61.5239382  39.2964053  87.5350094  45.4450083
  39.3054962  86.9946575  44.6549702  40.0766563  88.0841923  45.3685570
  21.3589232  12.5855359  61.9237518  21.8461160  11.9109067  61.4507294
  21.3712685  13.3437928  61.3396931  34.1379404  76.8468285  53.4226847
  33.2257915  76.7156982  53.6815739  34.1990542  77.7815866  53.2259178
  80.9991512  25.4452360  13.4281083  81.0393319  24.4912136  13.4948655
  80.7942894  25.7390345  14.3157693   2.1272787  74.6615839  81.7894745
   1.6820660  75.0094795  82.5621223   1.7897050  75.1849508  81.0625839
  15.1310706  93.9944363  88.0471039  14.3058634  94.1351795  87.5829315
  15.3213871  94.8375797  88.4583378  46.7694616  91.5159321  76.6028357
  47.5791931  91.8400574  76.9971848  46.1251593  92.2009087  76.7814493
  16.0311437  64.9888611  64.0392447  16.0203266  64.7177410  64.9571800
  16.7355072  64.4738770  63.6456823  58.5453253  14.1757974  76.1622334
  58.2429318  13.5587415  76.8285847  57.7623467  14.3779763  75.6500769
  76.7419919  95.8741474  84.3839169  76.2587317  96.0869026  85.1823044
  77.4481710  96.5195465  84.3522263  84.8726185  67.6047039  80.9747887
  84.5228704  67.7287817  80.0924587  85.6519946  68.1596518  81.0037231
  35.0267545   2.3178777  48.4731197  35.5760244   2.1898564  47.6997232
  34.6456488   3.1879434  48.3548641 105.3545084  58.1418610  79.2617798
 104.4029316  58.0863905  79.1742754 105.5008634  58.9232540  79.7949123
  56.3404417 103.3300877  59.5950127  55.3971815 103.4554291  59.4911861
  56.7327166 103.9195061  58.9508533  44.4827388  13.9215192  67.9872656
  44.0955983  14.6642217  68.4506750  45.3922050  13.9010915  68.2850647
   5.5394638  92.8986168  46.2908125   5.8727628  93.1170177  45.4204988
   5.2000409  92.0081615  46.2007904  38.0957341  95.9120178  52.3534966
  38.2346845  95.6765652  51.4361715  37.6209450  95.1673508  52.7226448
  23.8865924  91.0266209  52.5533628  24.2789245  91.8694401  52.7813292
  22.9454064  91.1635208  52.6613379  36.9174436   1.9408044  75.3676510
  35.9998562   2.0146665  75.1053333  37.2549435   1.2067422  74.8543501
  96.5623268  86.7902088  55.5513954  95.8763572  87.3672581  55.2156925
  96.9660112  86.4169502  54.7678471  47.5257032  30.3669938  39.3436742
  46.6193752  30.1179608  39.1625977  47.4556761  31.0851773  39.9725866
   6.4363801  82.0937252  40.5753851   6.7401528  82.8780651  40.1184797
   5.7905114  81.7071247  39.9840903  76.7070441  20.2618607  41.5057945
  77.2821336  20.0462922  40.7716036  76.5516500  19.4242581  41.9422626
  47.6225178  16.9867047  69.5122957  47.7611701  16.9912919  68.5652018
  47.3195319  16.0995587  69.7057056  13.2217944  55.8906794  35.4641032
  13.2220280  55.4058456  34.6387720  14.0614390  56.3502026  35.4721785
  16.4242697  73.3612347  59.7454309  16.2845767  72.5101042  60.1605177
  17.2665000  73.2746029  59.2989159  66.5703066  84.1535091  76.6058493
  66.6209181  83.3571339  77.1344948  67.1667393  84.7655296  77.0370436
  89.8442253  54.1499519  66.7167854  88.9440354  54.0703106  66.4012766
  90.0135096  55.0920439  66.7226267  33.6358391   3.5008630  74.1127253
  34.3055795   4.1206273  74.4018221  32.8752820   3.6977586  74.6595478
  45.0091802  22.2325047  46.6634893  44.1220312  22.3387536  47.0068741
  45.0835966  21.2964639  46.4777088  13.0595887  67.7019405  32.5855541
  13.7137985  67.6457357  33.2820320  13.5083282  67.3697042  31.8080688
  71.5713647  35.7719791   8.4854146  72.0049787  36.0424889   7.6760789
  71.9942782  34.9456680   8.7190839  99.7132619  98.8140583  73.6189842
  99.8775216  99.7309875  73.8392019  99.2856320  98.8461590  72.7632189
  22.5185513  90.0798607  38.1568551  23.1207824  90.7899761  37.9348469
  23.0210376  89.2809582  37.9972172  25.2166390  71.9151020  43.8057375
  24.7812486  71.1088419  43.5289431  25.3570604  71.8009377  44.7456741
  40.4413795  86.7042828  55.5813122  40.5193090  87.0024109  56.4875555
  41.0386944  85.9586620  55.5222607  97.1496602  93.4174156  68.5764408
  97.2216173  94.3569851  68.4082890  96.4442810  93.1242085  67.9996395
  93.0956336  80.5730534  42.1239567  92.8330954  79.8739672  42.7227688
  92.8510054  80.2500439  41.2567425  37.8701332   5.1532945  81.3149929
  37.9871762   5.6989964  80.5373383  38.7394861   5.1149281  81.7137146
  13.6044204  98.3757401  63.4997702  14.5012891  98.1814098  63.7719727
  13.0928695  98.3256531  64.3072605   9.2993498  84.8942184  74.7686577
  10.1102960  85.2711582  74.4273138   8.9515609  85.5656719  75.3555250
  92.2544333  86.3260365  59.3082571  92.7167257  86.2531376  60.1432419
  92.6469167  87.0884705  58.8829470   2.5676036  69.5784044  47.8857088
   1.8777393  70.1544046  47.5562429   2.8762251  69.1073036  47.1117258
   5.4446948  84.6877193  70.9052944   5.5342060  83.9286995  70.3289938
   5.8014983  84.3951035  71.7439222  12.1479583  76.1633253  59.6634483
  11.7909634  75.2928495  59.4872093  12.6806140  76.3640547  58.8938904
  38.6832738  80.7781792  59.1670513  39.3517089  80.7640839  59.8520517
  38.8251710  81.6076946  58.7109661  64.4541173   6.1630830  87.9529572
  64.0417390   6.0824880  87.0929050  63.7773685   6.5510949  88.5076523
  52.7739048  88.2092190  65.2645445  53.0862951  87.3817825  64.8984909
  53.2765245  88.8803291  64.8027897   4.9272609  73.8692093  60.4569578
   4.7390047  74.2244244  61.3256454   4.8296708  74.6162033  59.8664427
  37.7509022  68.5081244  40.2108383  37.1291375  68.3133030  39.5096350
  38.6107969  68.3698463  39.8137355  68.7175731   4.0694817  58.5915613
  67.9632263   3.4805783  58.6110592  69.1086941   3.9292344  57.7292442
  33.8287234  69.8586512  54.1426373  34.3732834  69.9970150  54.9175835
  33.7931752  68.9074659  54.0416050  52.2018909  76.2900352  56.4416742
  52.0871449  77.2392464  56.3961744  52.0959091  76.0801744  57.3695517
  24.0857244  91.5750885  25.7074070  24.9770808  91.5876770  25.3587532
  24.1085005  90.9140491  26.3993144  29.9458122  73.9765406  60.6070232
  30.6719899  73.3751631  60.7720757  30.3509450  74.7283077  60.1746464
  44.8497586  23.5769853  37.4925709  44.1948430  23.8653954  38.1282902
  45.1002966  22.7014264  37.7872658  19.6538222 100.2466011  60.6227398
  19.6427977 100.6728172  59.7657347  19.4348931  99.3331242  60.4387665
 108.8765641  87.2606850  32.1291685 108.2819181  86.5373707  31.9305539
 108.6132144  87.9587936  31.5295649  43.3325194  14.2722997  53.3909893
  43.7568461  14.0953263  54.2305470  42.5130336  14.7085866  53.6240625
  10.2691579  72.7561140  67.4662209   9.9759471  73.5508108  67.0204449
  10.9284127  72.3827314  66.8812466  15.4138720  75.8889008  47.1463251
  14.9749517  75.7568693  46.3059998  16.0622609  76.5714455  46.9732380
 101.8696209  73.5288763  62.9787016 101.0705134  73.1769705  63.3709002
 102.2923686  74.0118217  63.6888313  29.1074090  16.0199269  68.3248377
  28.6181353  16.8017301  68.5810137  28.4367369  15.3493127  68.1955624
  30.6489301  68.0521536  36.2511992  31.1804485  68.8401651  36.1382341
  30.1919603  68.1884289  37.0811629  17.4577367  78.4209061  62.6424551
  17.5749421  78.0662918  61.7611265  16.7214072  79.0270233  62.5607872
  66.8606000  15.9364232  47.5299978  66.2951474  15.9581002  48.3020210
  67.3255091  16.7729005  47.5500631  45.3674601  17.0336350  52.9652214
  44.5652758  16.5204247  52.8685331  45.0873982  17.9409131  52.8442001
   6.4760554  67.7592993  56.5230608   7.1025318  67.7050877  57.2447395
   6.3777077  68.6975813  56.3612413  35.0037479  84.4356632  63.2674503
  34.3425465  83.7875175  63.0246687  35.3364229  84.7630405  62.4317598
 109.9435648  88.1450844  51.4379215 109.5475581  88.9149761  51.0296679
 110.5128738  88.5017109  52.1197844  35.3616023  67.3961878  53.9390659
  35.4509902  67.0524549  54.8279381  36.0705543  68.0339956  53.8564968
  12.1343756  72.0668745  65.4502010  11.5989959  72.4546909  64.7579575
  12.9752922  71.8865395  65.0299931  43.7014866  93.8411045  85.6668377
  43.0410671  93.9558697  84.9835300  44.4219446  93.3870792  85.2297592
  22.9819965  93.7205696  84.7855854  23.7699795  94.2634678  84.7614861
  23.2906818  92.8406429  84.5695686 101.5524610  95.6523132  86.8163872
 101.0717305  95.8270454  87.6254654 101.5525498  96.4894772  86.3522816
  12.9925394  58.9887762  83.8205433  13.0552471  58.6622477  82.9229450
  12.0637143  58.9123249  84.0388775  48.2378201   6.6182622  77.5756216
  48.2118981   5.7133969  77.8867054  49.0238921   6.9874867  77.9781151
 109.2562460  57.6857567  72.9798126 110.0716303  58.1308270  73.2106638
 109.1554616  57.0084000  73.6485910  14.4622950   0.9663114  49.7339630
  15.2348332   1.5196618  49.8489094  14.4483356   0.4097470  50.5125952
  39.7010218  12.4524888  29.4142008  39.9768596  11.6046437  29.0658998
  40.3803854  13.0622205  29.1262317  34.5503092  74.3613911  70.5200863
  34.8851657  73.6014891  70.0440073  34.9535108  75.1129723  70.0855970
  39.7369099  91.5274143  51.6609621  40.0146723  92.3823547  51.3320732
  40.5387163  91.0048389  51.6767740 106.2247738  15.1222837   6.0168477
 105.6727109  14.3523014   5.8805105 105.7775292  15.8243645   5.5443116
 108.9993855  89.9528980  30.4932523 108.0680891  89.8662567  30.2897525
 109.4367456  89.3824005  29.8612118  24.4209123  86.0092831  59.6136427
  24.1009235  86.8674374  59.3354130  23.8883042  85.3841209  59.1219759
  35.4900479  86.1807156  38.5377121  35.0416899  85.3800106  38.2655501
  34.8382306  86.8718433  38.4205866  84.6098527  87.4882889  45.3131771
  85.0074252  87.1499825  46.1154985  85.1204809  87.0918560  44.6072483
  95.5760118  59.9227619  25.4787803  95.7377430  58.9854574  25.3713512
  94.9096140  60.1275492  24.8228788 110.5814375  82.7073383  78.5233927
 110.4435316  82.8051567  79.4655418 110.8258050  83.5833549  78.2248688
 103.3243307  62.2452497  41.9030762 102.5215145  62.0810270  42.3977947
 103.2802656  61.6361809  41.1659718  19.2083168  44.8365068  37.7209854
  18.8129246  45.5415487  38.2336330  18.6488116  44.7594881  36.9481635
 103.7392231  90.6600857  68.3151913 103.9556285  91.5843964  68.4378862
 103.0901285  90.6574059  67.6116991  13.6675787  87.6190567  90.5805588
  13.6091065  88.5536098  90.3820038  14.6029246  87.4217701  90.5311775
  45.5953741  76.3427353  85.8069134  46.1133623  76.1526966  86.5890884
  44.7719860  76.6951036  86.1446953   8.4996349  83.3660984  55.6897068
   9.1785294  83.8884258  55.2625036   8.6039960  82.4892902  55.3201675
  21.7042112  85.4685211  56.6861057  22.1033120  84.6196461  56.4954329
  20.7620072  85.3049564  56.6445065   5.3301817  72.7430534  64.3901587
   5.5877370  73.0680609  65.2528667   4.3732297  72.7601480  64.4036627
  38.7844443  76.8459892  46.1715984  38.3120847  77.1179628  46.9584560
  38.2838726  77.2245884  45.4488802  10.8120596 100.7901478  51.5516758
  11.4118898 100.8742142  52.2928667  11.2247813 101.2951756  50.8510733
  28.4308171  90.9324837  39.6642303  28.2184148  91.7561150  39.2251873
  27.6366568  90.7077599  40.1490402   9.7516304  98.7634277  39.1260314
   9.7608036  99.6395016  39.5115829   9.2445469  98.2355881  39.7428584
   2.1021400  75.4655743  78.3001089   1.5363650  75.4898453  77.5283957
   1.5266627  75.7048225  79.0266180  32.6352854   9.8458966  54.3159199
  31.9713633   9.8579034  55.0053358  32.7465724  10.7654485  54.0745306
  14.2420959  82.9343033  31.3278985  14.6290481  83.8088226  31.2865496
  13.5248291  82.9595661  30.6945562   4.5139244  89.0117455  70.8711147
   4.6752906  88.8237858  69.9465275   3.6351678  89.3908310  70.8886433
  95.7937225  84.3245697  74.0817595  95.3789517  84.2789745  74.9432230
  95.5048903  85.1627922  73.7209368 108.9448530  63.1361341  34.7952032
 109.0743829  63.1930161  35.7418919 109.8239093  63.0024052  34.4407916
  51.6405058  71.2293339  77.7198076  52.5266457  71.4793110  77.4580860
  51.6580153  70.2725315  77.7411890  81.6146675  42.6888836   1.7563554
  81.5578506  41.7365921   1.8347665  80.7048419  42.9855907   1.7767259
  41.5405737   1.6287717  10.1501882  40.6661935   2.0163926  10.1122975
  41.5239926   0.9354314   9.4904602  78.8802918  96.1384773  46.5312099
  78.8650902  95.7576180  45.6531715  78.8834056  95.3835583  47.1197081
  52.0607691   2.9937371  29.4267058  51.6309230   3.7238511  29.8721218
  51.3519864   2.5416764  28.9689922   5.2007282  98.8978100  70.8481455
   4.6435910  99.0578365  70.0864220   5.8332640  99.6161461  70.8373880
  98.2636175  76.5387428   0.8990308  97.8626189  77.4002922   0.7842943
  98.7972626  76.6261948   1.6888448  24.9594069  73.2669926  65.6114960
  24.3663001  72.5593662  65.8639383  24.9738669  73.8497162  66.3707447
  24.3864362  15.4148492  59.1371632  24.8206024  16.2028226  59.4640112
  23.4519522  15.6110867  59.2039776 101.7707714  57.5008535  83.7702656
 102.4263944  57.0498037  83.2383347 101.7096683  58.3748817  83.3848095
  61.7309237  85.6736088  18.8421476  62.6553965  85.4695988  18.7008536
  61.6181231  85.6286430  19.7916138  23.3037210  82.1553230  53.3400154
  23.3237267  81.9930744  54.2831516  22.4260831  81.8858242  53.0691814
  93.4459195  31.2168205   7.1850034  92.9984030  31.0055435   6.3656541
  94.1549704  31.8052853   6.9257947   4.1711900  91.1817360  58.7380600
   4.3952510  91.9140339  58.1638145   4.2223087  91.5460014  59.6217632
  45.4006325   4.7941789  20.7431841  45.8106564   3.9449223  20.5792689
  44.5307861   4.5791825  21.0798979  19.9824739  79.3009853  57.1452713
  20.3721166  78.9911366  56.3277149  20.4053569  80.1442146  57.3076630
  19.9523020  70.6986666  28.9096093  20.1912308  69.7817612  29.0453720
  19.9914384  70.8184052  27.9607368  38.1607413  76.2064600  76.7682600
  37.7174854  76.6026640  77.5184488  38.4835434  75.3672743  77.0965958
  27.6262646  19.6117600  48.4438944  26.9696908  19.9074277  47.8132391
  27.4610971  20.1381120  49.2261410   8.3445096  76.6590261  72.4344349
   7.5725281  76.4198732  72.9473495   8.2232302  76.2122679  71.5966177
  45.2411175  81.1235046  54.1306734  44.6343374  81.6647148  54.6357870
  44.8342419  81.0494041  53.2674265 106.8568777  86.2037182  18.1869256
 107.2485294  87.0037174  18.5374260 107.0643511  86.2248707  17.2527194
  27.6372860   5.1257810  53.5840130  28.0012433   4.8927220  52.7299356
  28.2296811   4.7185143  54.2160225  92.2457357  73.0428362  55.1413202
  92.1857377  73.4608316  56.0003424  91.5277096  73.4262896  54.6376991
  11.3298666  74.4649124  48.3061123  11.2555444  74.5397854  49.2574787
  11.9233608  75.1729536  48.0557728  36.8002872   7.0286092  28.0605292
  37.0693070   7.4784287  27.2595811  36.8971625   7.6866540  28.7488723
  27.6858354  51.6205072  78.7342978  27.7857685  51.5690279  77.7837229
  26.7476034  51.7532921  78.8696527  29.8344779 103.3317661  62.2034311
  30.4253054 103.9093590  61.7201757  30.4017806 102.6409626  62.5457573
  61.4454250   9.1088303  51.1564541  61.3334994   8.2865628  50.6794024
  61.0276775   8.9530953  52.0034838 101.2931546  51.3335133  51.9619131
 101.4617636  52.1079159  51.4251566 102.1609720  50.9688282  52.1354914
  21.2754631 101.8070126  41.7815018  21.0866165 101.1641216  42.4650669
  21.5248346 102.5981808  42.2590923  43.9192629  92.8393459  62.1323061
  44.0533400  92.7818394  61.1862850  44.3161774  93.6743736  62.3801422
  71.8501477   3.1527718  42.0531988  72.7646332   2.8771790  42.1164227
  71.8803172   4.1053018  42.1426296  35.4666257  80.9538269  46.1002398
  34.8958302  80.2003098  45.9498024  34.9096203  81.7137337  45.9313440
  10.2818327  27.7952584  41.8101072   9.8494081  28.4409913  41.2512970
  10.4823761  28.2716950  42.6157284  39.7923827  88.5717964  53.5209417
  39.9525094  87.9286003  54.2115116  40.6652689  88.8111210  53.2094574
  43.0358611  11.7733487  56.2714243  43.1229018  11.1123570  55.5845928
  43.7241648  12.4102506  56.0795069  42.7966547  80.0039768  16.3282955
  41.9362926  80.3579330  16.5535092  42.6678991  79.5846033  15.4775453
  88.5771088  13.6870011  80.0163460  89.3801980  14.0289029  79.6234274
  87.9032187  14.3227490  79.7756577  11.4254951  88.2273579  24.5362186
  10.5829549  88.6815548  24.5282698  12.0460188  88.8675785  24.1879416
  43.3728123  90.0800610  79.4029570  42.4430895  90.2370453  79.2380190
  43.7430191  89.9034786  78.5380888  71.5659551   5.7094869  48.4754419
  71.0792546   6.5203103  48.3274031  72.1796350   5.6612691  47.7424335
  16.6893923  66.2554455  32.5980973  17.5126243  66.2174177  33.0850005
  16.1186695  66.8050957  33.1351185 103.9613458  94.8754978  87.4650097
 103.2069179  95.3840446  87.1676159 103.9261832  94.0704250  86.9484234
  91.0931024  49.2889774   8.1092855  91.0731623  50.0807369   8.6468335
  90.4203508  48.7242210   8.4896680  53.4610987  73.6916971  69.0180302
  53.3493948  74.3677807  68.3497000  53.2710123  74.1372824  69.8435879
  52.1729104  34.9427422  47.1869802  51.7884319  34.3924626  46.5046310
  52.9219119  34.4396981  47.5066137  52.1549082  78.8877487  56.3594723
  53.0302620  79.0453625  56.7132425  51.5846443  79.4677734  56.8640566
  23.5050130  98.5147476  43.8114834  23.6095691  98.9439297  42.9623032
  24.3465328  98.6421776  44.2494774  44.4757359  19.2700299   9.4541258
  44.8308663  20.0537213   9.8735940  43.8688891  19.6056470   8.7943274
  56.3932638   5.2856931  26.9866943  56.5437345   5.1239213  27.9180479
  56.9967060   4.6919927  26.5399194  97.7430920   2.7495393  66.7388916
  97.3652224   1.8729505  66.8098831  98.6887507   2.6021775  66.7234135
   5.9121800  37.0879734   0.8364698   6.4254857  36.6374290   0.1658269
   5.0490047  37.2043503   0.4394742  30.4328394  82.4576759  76.4669800
  29.7511196  82.1708870  77.0746326  31.2477183  82.3663998  76.9608164
  49.2829943  79.9317932  26.5696239  49.7335911  79.7076082  27.3838329
  49.3432522  79.1391230  26.0364461  24.1668224  79.3043327  27.0169950
  23.9929509  79.8032856  27.8151488  24.8531175  79.7994900  26.5697217
  41.4881222   1.8545159  30.1154399  42.2538589   2.2402200  29.6898723
  40.7416539   2.2093972  29.6326661  70.5305033  21.5884789  72.1316195
  71.4491682  21.6840085  72.3829365  70.5349569  21.6573628  71.1769152
  29.4896566  33.3452901  14.1456318  28.7697481  32.7289399  14.2800665
  29.0607159  34.1933354  14.0313494  54.0845721  10.0088414  47.7128077
  54.0761273  10.7125672  47.0640182  53.1610684   9.7961816  47.8475285
  96.6716723   5.7699117  60.0452948  95.7358985   5.9593305  60.1137161
  96.7268376   5.0652703  59.3997908  48.3597803  83.7111568  70.4297018
  49.0994406  83.5867977  69.8349953  48.5991573  83.2199860  71.2156343
  70.7075481  12.6068982  36.2664056  70.4709701  11.8441876  35.7386470
  69.9318366  13.1670388  36.2390327  75.4304914  21.6543683  53.7340069
  75.7122283  22.2522458  54.4263887  74.6371202  22.0555600  53.3792782
  18.7982285  55.7889557  53.5759497  18.9906192  56.4656639  54.2250156
  18.2661808  55.1485062  54.0481615  36.8306160 100.1482105  54.1047287
  36.7862988  99.4659615  53.4348059  36.3352203 100.8791924  53.7352848
  37.1951809   9.1174325  29.6176291  37.9952303   8.6884698  29.9211907
  37.4340957  10.0408753  29.5376229  16.3184428  73.2055521  77.9470634
  17.1379542  73.7000799  77.9382515  16.5917885  72.2885370  77.9226446
  46.6576099 101.1920261  30.1575255  47.3695564 101.6977024  29.7655296
  46.7388678 100.3217602  29.7673202   2.2713122  93.5399437  89.7598457
   1.6090551  94.2080784  89.5830917   2.1203126  92.8705883  89.0924549
  72.1778707   2.7287110  58.8154697  72.8658180   2.0777902  58.9542484
  72.5861459   3.5622796  59.0493536  49.7233217   2.5571736  40.7099867
  49.3695443   3.1645307  41.3597393  50.0136154   3.1181725  39.9907947
  24.4240141  98.3964443  82.9587364  23.7744951  98.9467907  82.5211525
  24.5108676  98.7772083  83.8326359  53.7888543   5.9955129  44.7005892
  54.6700184   6.0980233  45.0601387  53.6063676   6.8316277  44.2718172
  18.5644710  88.6555386  53.3837891  18.4582543  88.5198498  54.3253517
  18.8572407  87.8071308  53.0510569   9.8774403  97.2489643  84.8873520
   8.9370108  97.0880985  84.8102379  10.2652121  96.7527103  84.1665173
  41.4109612  95.0633144  31.1083460  40.7812786  94.4667339  31.5130997
  42.0151329  95.2896404  31.8154407  58.2106686 103.1563759  32.4363256
  58.0740356 103.4471798  33.3379889  57.3561287 103.2625484  32.0183277
  23.4357071  91.5529823  14.1709602  23.8242435  92.4085712  13.9886463
  23.5344648  91.4416599  15.1165211  24.1490555  87.7800751  38.3946013
  25.0872064  87.6177883  38.4934354  23.8371110  87.9326916  39.2865849
  50.4870510  90.6734467  58.3852100  51.3373137  91.0975170  58.2692337
  50.1749897  90.5148697  57.4943066  41.0692167  76.0911131  67.2727442
  42.0013285  75.9238052  67.1334553  40.8192730  75.4869127  67.9718161
 105.5143561  78.4701490  62.0078516 104.6962722  77.9842234  62.1120071
 105.3080197  79.3543148  62.3110151  20.6516604  28.1252965  51.3361645
  20.1529615  27.6696214  50.6580114  20.4020898  29.0443906  51.2401867
  20.2090025  91.0328388  43.1043291  20.7584810  91.0109520  42.3208570
  19.3652213  90.6857395  42.8148699  40.3849606   2.6552495  14.5932579
  41.2977900   2.3684033  14.6195090  40.3765081   3.4730920  15.0905514
  39.4324517  99.5734978  35.5886221  39.7546077  98.6857033  35.7443714
  39.2040563  99.9014473  36.4584041  49.0548746   4.2167005  43.8341618
  49.3983738   4.7071465  43.0873680  48.3347504   3.7010011  43.4712458
  43.0935144  70.3969765  60.8530092  42.8816652  69.4719601  60.7277203
  43.3943510  70.6923199  59.9936485  46.2029791  95.2117443  50.0095415
  46.1898518  94.2598724  50.1095152  45.8483505  95.5440998  50.8341694
  43.8706790   1.2957772  70.4671383  43.7937914   1.9583520  71.1536598
  43.2231604   0.6311520  70.7021236  15.5956590  97.9142189  47.9942322
  16.4537334  98.1208992  47.6237965  15.7772267  97.6845264  48.9055538
  25.0414157  81.3994503  88.4778786  25.0280619  80.9950256  89.3453407
  25.4609561  82.2486591  88.6159515  46.7929268  84.8416328  56.2233639
  47.0242119  85.6523705  55.7700968  46.3519144  84.3128967  55.5584002
  71.1121588  10.4360875  76.6869020  70.7128434  10.8609017  75.9277487
  71.5628009  11.1436852  77.1478319  40.0473928  83.0326748  84.5476341
  39.1497278  83.3648968  84.5549011  40.5804729  83.7883663  84.3006706
  42.1927063  23.1531438  50.8663702  42.5818114  23.8181600  51.4343309
  41.4066510  22.8696069  51.3332272  37.7783539  28.1694898  60.1512384
  37.7403449  29.0722474  60.4671764  36.9140018  28.0121144  59.7712946
  64.9031882   4.9253568  12.8543270  65.0751285   5.8264359  12.5809729
  63.9490084   4.8681840  12.9043746   0.7102218  71.4879036  51.4299345
  -0.1511779  71.6525459  51.0463762   1.2618928  72.1930885  51.0914087
  13.5282838  76.3738298  55.0070667  13.8784647  76.4996338  55.8889818
  12.5936866  76.2160397  55.1407194  24.7497821  89.6087933  12.5707579
  24.4234467  90.2493572  13.2027495  25.1835155  90.1347637  11.8988526
  69.8405533  10.5315503  73.7501621  70.5414896   9.8802575  73.7230873
  69.7566442  10.8308896  72.8448486  34.0198112  92.2355270  59.4132853
  34.2641664  91.7637825  58.6170578  33.0894351  92.0429993  59.5297623
  29.8725462  93.3284473  57.3613834  30.4474092  92.9081154  58.0009747
  29.6121788  92.6207256  56.7718363  81.9960503  10.6884488  45.4906130
  81.4754300   9.9048718  45.6672478  82.0965342  10.6997022  44.5387697
  46.6447805  30.3267392  54.4606018  47.5786619  30.4247960  54.6462965
  46.3346492  29.7016152  55.1157856  25.7613873  70.0085974  80.6787968
  26.2181187  70.0039196  79.8376036  26.3940287  69.6425581  81.2968636
  11.8775976 103.5295391  58.5453367  11.4876997 103.6975574  59.4032335
  12.0456123 104.3998623  58.1840181  10.7273750  41.4795121  59.9557877
  11.5455704  41.2546643  59.5128107  10.7791881  42.4260434  60.0885773
  62.1102810 100.1522064  42.6639462  61.6162825 100.7407093  43.2347870
  61.7813587 100.3393555  41.7847347  42.1022020  28.2165536  67.4242544
  42.5209557  28.8665589  66.8600130  41.3924365  27.8583630  66.8911791
  43.1245421   6.0566625  72.8813171  42.9131584   6.7736634  72.2834444
  42.7235846   6.3115891  73.7122631  90.0223932   9.9862278   1.1342546
  90.0132999  10.2508867   0.2144166  89.8340318   9.0479362   1.1153909
  37.3234129  77.7849483  48.5306168  36.5989995  77.4344349  49.0488815
  37.1297598  78.7188101  48.4491634  44.7542334  85.1872444  31.3797641
  44.7738075  84.4529247  30.7660580  44.3411398  84.8310471  32.1663475
  69.8890023  12.0036992  32.1362662  70.6554680  11.8074140  32.6749992
  69.9106006  12.9543218  32.0263457  14.2903364  66.1134672  22.3578167
  13.5449755  66.6222811  22.6768446  14.5965421  65.6302595  23.1252670
  96.3540702   8.6204823  47.2039700  95.7125764   7.9619035  47.4704170
  96.3848643   9.2351922  47.9370499  26.6701937  80.3488636  45.6012678
  27.4216104  79.7818565  45.7747841  25.9145403  79.8434973  45.9009838
  21.7588639 103.8200283  84.5680809  21.4124656 103.0150509  84.9531269
  21.4602828 104.5143032  85.1554966  66.4933638   5.2726468  24.8131180
  67.1601610   5.1055917  25.4792285  66.9894676   5.4023656  24.0048575
  50.5898046 103.8401985  69.4191599  49.9867535 104.4028187  69.9049759
  50.7613373 103.1066608  70.0096893  44.2833996  83.8999557  38.2543111
  45.0028276  83.5422516  38.7746048  44.4848728  84.8324394  38.1761670
  12.4462807  87.6630878  60.2760029  12.9578650  86.9818687  59.8395920
  11.7293537  87.1903515  60.6988192  57.8212004  26.5657815  39.1326022
  58.2205896  25.9022912  39.6951914  57.8612881  26.1898145  38.2532406
  40.2507687  91.2452412  43.3138275  41.1137295  91.1252213  43.7102270
  39.6364045  90.9346867  43.9789200   2.9895824  99.6065521  61.0051489
   2.9896492 100.3683567  61.5847111   3.2879448  99.9471569  60.1618242
  36.0907929   3.0032453  54.1393423  35.9911742   2.3579511  54.8392773
  36.6253727   2.5608262  53.4800053  38.2913804  73.6602545  64.5181131
  38.3626390  73.9532948  63.6096621  39.1949058  73.4969187  64.7886610
  89.4223933   3.4352216  45.4905415  89.8252921   3.9563474  46.1850405
  89.0149884   2.6999959  45.9484673   4.9678851  46.1960209  11.3829824
   5.8435727  46.3689793  11.0373040   5.0284339  46.4199436  12.3116418
  69.1801433   8.6840447  68.6850023  69.8148160   9.1169938  69.2559481
  69.3654184   9.0327748  67.8130579  59.0638575  53.0482567   3.2811376
  58.8835678  53.8282860   2.7564641  59.9485287  52.7869308   3.0255910
  78.6786132  16.1788758  46.5412092  78.7427621  16.0755357  45.5917692
  79.4039016  15.6594762  46.8882179  21.7616725  91.6265202  82.7353859
  21.0622168  91.3429260  83.3240891  21.5814042  91.1716938  81.9126701
  63.3949499  36.1985978  50.5030775  63.3421688  35.6165799  51.2611771
  64.3321543  36.2735852  50.3234816  15.5533326 100.3532410  87.2188663
  14.6283686 100.1830864  87.0407581  16.0062850 100.0695515  86.4247704
 100.2993902  90.1900387  61.7782784 100.0265034  89.6330357  61.0492277
 100.5600449  91.0136127  61.3659525  18.8159502  96.8800735  24.8803020
  19.5925748  96.4906883  25.2821231  19.0252090  97.8112984  24.8077154
  71.1854677   1.2646398  64.0736246  71.6648965   1.5050420  63.2807922
  70.3408270   1.7063722  63.9859772  55.7219791  80.4355621  36.7208791
  55.4431105  79.5250416  36.8178844  54.9692106  80.8758640  36.3262820
 100.4884573  99.3866158  57.1539783 100.1372989  98.8626385  56.4340019
 100.3246351  98.8594532  57.9359579  69.8679161  93.7823105  58.8041496
  69.3509150  94.4009304  59.3201494  70.7536125  94.1452217  58.8121748
  41.4671850  61.5731525  54.0916061  42.2639227  62.0205021  54.3767738
  41.7792940  60.8591557  53.5357046  93.3626275  43.2911405  45.1416302
  93.6703257  43.8669785  44.4416571  93.7569671  42.4416932  44.9437046
  97.0402007   3.5850820  75.1358080  97.2294192   2.9460629  75.8228874
  96.6981940   4.3464383  75.6044245  62.3280573  74.7515106  49.6980858
  63.1275606  75.2131081  49.4451952  61.7722464  75.4287577  50.0836277
  62.4526458  19.1918572  23.4695268  63.0403285  18.5252389  23.1138968
  62.3360495  18.9437303  24.3866253  48.0010462  94.6427345  55.9373331
  48.7623978  94.3968296  55.4118776  48.1913900  95.5330753  56.2327814
   8.7214100  61.4955759  67.8957462   8.0065405  61.0401392  67.4510336
   8.7232310  61.1316395  68.7810564  59.6606188  27.5548562  34.5644116
  60.0041752  26.6679677  34.4565701  59.9767952  27.8312406  35.4245710
  12.5375307  90.7595539  79.6276140  12.8049302  89.8609352  79.4347000
  13.0273020  91.2945175  79.0029764  19.4753397  58.7947178  50.2188444
  19.1578472  59.1020489  51.0679483  19.3755579  57.8434515  50.2558374
  85.1698880   0.1602277  77.0446634  84.2983489  -0.2205173  77.1527672
  85.1320033   0.6093129  76.2001991  83.7667041   8.4655961  84.6361351
  84.7021298   8.4674558  84.4331264  83.5537200   7.5428685  84.7755623
  44.5451848  16.0499009  63.0328321  43.9060478  16.7593297  63.0995941
  44.3108343  15.5915460  62.2258472  27.9495096 103.4420204  27.3041654
  27.6740551 104.3440914  27.4673653  28.8404441 103.3971310  27.6512241
  60.2756739  81.1453438  60.2565908  61.1940145  81.3676739  60.1034689
  59.7911549  81.9211197  59.9743795  45.5617307  19.3698892  43.1498432
  44.7027831  18.9991578  42.9473591  45.4029267  20.3100308  43.2344341
  44.0338373  98.7998390  50.9600496  43.9965057  98.5387611  51.8801975
  44.8722219  98.4590912  50.6482267  21.7927647  95.6105042  41.0902262
  22.6145124  95.8603191  41.5127850  21.1394739  96.1972427  41.4712429
 109.2868047   1.8957242  47.8203726 110.1565747   2.2422799  47.6212788
 108.7320475   2.2185429  47.1102524  33.1505537  67.9572153  71.3492632
  33.2285810  67.9513407  70.3952694  33.7673974  68.6307049  71.6358852
 104.6131186  12.9169759  57.8200150 105.2695851  12.6224717  58.4513283
 103.9889245  12.1931466  57.7682638  54.9246065   1.3709268  36.8932796
  54.7669558   0.4272946  36.9239044  55.7393293   1.4935883  37.3805308
  47.6765871  91.0155487  62.1248865  46.9801331  91.2455845  61.5098524
  47.2382498  90.4982471  62.8005314  42.1339505   1.5417298  37.6714468
  42.0443927   0.6824502  38.0835676  41.2517108   1.7545422  37.3671508
  27.4579453  91.9423962  42.7819252  27.3283768  92.2461510  43.6803532
  28.1926727  91.3315582  42.8392267  43.3192301  83.8634777  58.9752340
  44.2435408  83.6246014  59.0446949  43.3073425  84.8127651  59.0974998
  43.1514835 100.4546928  64.5601749  42.8860331  99.8988438  65.2928352
  43.6714649 101.1500072  64.9631643  48.0520432   9.7024545  26.8362856
  48.2482331  10.6383523  26.8791175  48.7885635   9.2827519  27.2808313
  75.7950096  18.1041535  65.7031393  75.3546076  18.9315995  65.8970737
  75.1710992  17.6222524  65.1602364  36.5526962  86.9461441  45.7339096
  37.3671699  87.3914242  45.5002737  36.8334460  86.0978603  46.0771608
  38.5765505  90.7491112  45.5514097  37.7967000  90.2014542  45.6415987
  38.8303137  90.9545612  46.4512014  46.1743355 103.2243061  39.1729164
  46.3581514 103.8500214  39.8735785  45.2191210 103.2035065  39.1148901
  18.8430154 103.2914829  48.2006884  19.3434596 102.9957771  47.4401951
  18.0966592 102.6936913  48.2434511  40.8345951  27.7422532  47.5199509
  39.9322419  27.9888352  47.3170042  41.3009711  27.8354939  46.6892719
  55.5328178 102.7707386  71.7975521  56.0760069 103.4568882  72.1853399
  55.9745312 101.9545174  72.0318460  81.8099503  20.6959733  56.1905670
  81.2781815  20.8997735  56.9599295  82.3798566  19.9817285  56.4756823
  36.5866542  95.8448124  74.7843933  36.7609787  94.9682903  75.1272583
  35.8432412  95.7271862  74.1930151 101.4209560   9.1970702  81.0584078
 102.0236424   9.8935386  81.3190464 101.9520763   8.4009763  81.0779623
 104.3261220  40.6192541  75.3845119 104.0392848  41.2046385  76.0854292
 103.9373710  39.7728562  75.6052160  85.3921250 105.1000023  46.9143391
  85.5303720 104.2262254  47.2799015  84.7235731 104.9748339  46.2408400
 101.4491280  35.9544921  35.8571219 100.6252619  35.8039284  36.3205934
 102.0027187  36.4070010  36.4935207 109.2790956  30.0956130  39.9489164
 110.0298437  30.6546807  39.7487831 108.7365180  30.1321578  39.1611934
  21.1870527  23.3260632  42.1570444  21.9726825  22.7805805  42.1953487
  21.2447095  23.8838601  42.9327822  10.2919698  22.5468779  36.2984252
   9.5131141  22.5306058  36.8546200  10.3033924  21.6874766  35.8770823
 106.2973543  27.9649496  40.1612234 106.5882879  28.4809899  39.4093657
 105.3502264  27.8874350  40.0464535  84.5915898  45.8659887  65.8936214
  85.0163730  45.1152563  65.4786587  84.9455484  45.8801317  66.7828608
   2.2960863   2.7465588  34.9602818   2.8896150   2.4362236  34.2764330
   1.4373058   2.4117944  34.7020936   2.0941544  48.2514811  25.9665632
   1.4103979  48.7805271  25.5556870   2.4971029  48.8369036  26.6077685
   4.9702325  56.1646509  31.1619878   5.5667496  56.8201494  30.8004332
   4.9090397  56.3834667  32.0918322   8.7449026  38.9479208  39.9786592
   8.2560873  39.6877170  40.3392029   8.2241672  38.1797218  40.2130461
  37.0654225  31.4028931  75.6538439  37.7158117  31.8443465  75.1076317
  36.9876814  30.5278325  75.2737665   0.7524684  31.3566637  65.6576014
   0.3916184  31.0715556  64.8181152   0.0875208  31.9438982  66.0170841
  91.3386508  54.0454817  61.2470913  92.2393640  53.9562178  60.9356785
  91.2422665  54.9786901  61.4370108  99.3923100  65.8098745  37.1915007
  98.8627394  65.0125694  37.2010303 100.2456328  65.5267143  36.8630290
  70.4069098  64.8527050  48.1251383  70.3929719  64.1695452  48.7954617
  70.4420670  64.3746233  47.2966242  83.7751444  58.9632034  20.3236771
  83.8210353  58.1025171  20.7400250  84.4692191  58.9478064  19.6646988
 100.7989832  42.3798275  29.7105193 101.2695732  43.2123184  29.7521996
 101.3139989  41.8434858  29.1077495   5.5374122  23.1642532  44.2202568
   4.8682648  23.8033271  43.9751863   6.3472581  23.5093141  43.8443375
   0.3915181  47.4996614  49.9083662   0.6145789  46.9306707  49.1716671
  -0.0958385  46.9349194  50.5081844 102.2596069  23.9292598  27.1646452
 101.9841161  24.6623898  26.6143203 102.8682318  23.4338474  26.6165829
  21.9403815  88.7934208  23.5158730  21.5836000  88.7922382  24.4040942
  21.2963820  88.3099461  22.9984331  95.5237588  29.2856145  29.1274261
  95.4478093  28.8792181  28.2641149  95.5528780  30.2254009  28.9480233
  34.9811029  49.5785856  13.8902009  34.9829149  48.8500166  14.5110202
  35.2838850  50.3293133  14.4010496 102.0575389  57.9239130  57.0005560
 102.3145845  58.1902933  56.1178350 101.1005708  57.9188967  56.9800997
  33.5077167  82.2280693   3.7689608  33.5926080  83.1247044   3.4448132
  34.3471861  82.0455074   4.1910890  32.5523617  72.5175202  84.0722851
  32.9739713  71.6653359  83.9615724  31.6421097  72.3695278  83.8158259
 110.7072794  46.3800955  45.4524231 110.3907002  46.3439274  46.3550329
 111.6531606  46.2525702  45.5250740  59.5079569  78.9234964  18.2582331
  58.7018672  78.5119954  18.5698712  60.1565853  78.7204710  18.9322460
 102.6921149  57.9681253  17.3229659 103.6337551  58.0114651  17.4893022
 102.5866916  57.2188377  16.7367172  25.0809479  59.3294525  47.7717829
  24.3490791  59.6607494  47.2513580  25.7967639  59.9395800  47.5940609
  91.3595315  40.3899717  38.5943508  91.1640748  40.2918053  37.6624727
  91.9924267  41.1070824  38.6320829  16.0803044  44.6367311  58.7092590
  15.2595377  44.8474407  59.1544247  16.2751019  43.7390184  58.9783287
 102.8461929  46.3762951  31.6272163 102.5922241  46.5415478  32.5351954
 103.2796212  47.1831560  31.3491035  82.3326620  63.8086176  50.3949118
  82.0606502  63.0283546  49.9117661  81.6334447  63.9511585  51.0328865
  11.7648232  54.1359615  37.2887707  11.2130177  54.7312212  37.7961230
  12.2016072  54.6998119  36.6503978  96.6783687  53.8337040  64.7129822
  97.6188477  54.0105295  64.6914577  96.6145667  52.9021645  64.9236774
   3.5881725  41.8177462  30.6802750   2.9642060  41.4198494  30.0731707
   3.0415189  42.2508335  31.3358951  10.9674633  68.9040709  34.1148162
  10.0249231  68.9061451  33.9479470  11.2406492  68.0045843  33.9344811
  11.2783051  79.3485689  27.1970654  11.8721676  78.9831018  26.5413237
  10.9056258  78.5836363  27.6354933 106.0699745  70.9025908  47.5872326
 106.5033828  71.2078810  46.7902470 106.5632888  70.1238012  47.8448391
   4.6129084  44.1914272  68.2870531   4.7259504  43.3460665  68.7215900
   4.4986722  44.8156834  69.0036297  99.6586827   5.8864757  90.5860068
 100.3463582   5.9180661  89.9209229  98.8814930   5.5890294  90.1130000
  38.0267739  98.0917645  80.7380009  37.8716850  97.1499634  80.8099747
  38.8060260  98.2476425  81.2715816 107.0404299  68.4467077  53.3405161
 107.4161028  67.9547119  52.6104164 106.2295403  67.9831028  53.5496998
 109.5496667  68.7004185  34.6126199 109.4139879  69.0312433  35.5005264
 109.7093094  69.4841623  34.0867972  11.6152334  42.1217966  14.4578373
  11.9041979  41.3527870  14.9491143  10.7167196  42.2705030  14.7524440
   0.9692513  74.7546673  21.8299341   0.6041983  74.1476917  22.4737859
   0.5127491  75.5800247  21.9931149 108.6697163  35.3989601  84.4251537
 108.1036132  35.3456640  83.6551380 108.2780086  34.7917247  85.0529003
  42.3273134  22.5728178  62.2755003  43.0549860  23.1898642  62.3528290
  41.8120098  22.9012871  61.5387487 109.0280478  25.0887346  36.6415191
 108.3298533  25.3934503  36.0619450 109.5604358  25.8672309  36.8050361
  76.5682038  61.2140942   8.2351160  76.3944086  62.0036840   7.7226943
  77.3369797  60.8233738   7.8197199   0.7278152  38.0916667  42.2579098
   1.1008482  38.6409092  42.9474115   0.7809676  37.2014904  42.6057529
  17.0180535  25.7949328  37.7947760  16.1936116  26.2771130  37.8582525
  16.7597294  24.9130487  37.5268579   3.7676698  14.4951975  22.3650241
   4.2148802  15.1792943  22.8632689   3.8812277  14.7522593  21.4500093
  18.3597076  43.0133724  16.4554322  18.1017399  43.4028769  17.2908795
  18.8693786  43.6965656  16.0198700   2.0285988  31.7985272  59.9192333
   2.7436945  31.3946223  59.4275713   2.2811574  32.7185178  59.9970865
  24.4919300  54.5854330  77.6530361  23.5649586  54.7309971  77.4639225
  24.5200038  53.7203836  78.0618572   7.7594966  49.5472956   5.7325029
   7.4592602  49.4360542   6.6345644   7.5844288  50.4670668   5.5335075
  28.8742781  53.3945799  46.4941835  28.8398147  54.0872288  47.1539402
  28.6903238  52.5910234  46.9806957  33.4928753 102.7379095  90.2951568
  33.7828564 102.2553503  91.0692891  32.8808003 103.3905995  90.6351391
 106.0015311  83.8273716  18.8778365 106.3032078  84.6098232  18.4163296
 106.6591912  83.6819649  19.5579612  12.3881888  78.7565994  21.3748312
  11.6874719  78.9654398  21.9925809  13.1931019  78.9867258  21.8389297
  93.1901940  40.7343006  55.0587368  93.1504532  41.4007044  54.3727636
  93.3777388  41.2250805  55.8588600  89.0221509  46.9267750  37.7089834
  89.3378695  47.6339912  37.1464872  89.8048338  46.4143419  37.9115963
   8.9944834  35.3364873  16.8526757   8.2084781  35.8792639  16.7908633
   8.8238418  34.6001148  16.2654197  96.6800650  39.8819780  73.3114862
  96.5877589  39.9172282  72.3593998  97.1023866  40.7094717  73.5419798
   5.1053357  29.2123604  41.2774611   5.5299318  28.9992332  40.4464817
   4.1757649  29.2828631  41.0602999 106.3673367  47.6349163  47.6081514
 106.7902287  47.0607948  46.9695807 106.1913141  47.0687580  48.3596230
  81.6636284  37.0948291  43.1247044  81.0957583  36.3925338  42.8076267
  82.5514325  36.7810369  42.9527521  36.1783361  34.6382403  53.6900187
  35.7910419  35.3930306  54.1333342  37.1227050  34.7774959  53.7608099
   5.0038350  22.9130745  20.1125407   4.1096458  23.2378936  20.2181363
   5.1421463  22.8958774  19.1655433   7.3275137  45.5144215  34.0292764
   6.6075146  44.9566174  34.3237042   7.1642447  46.3584042  34.4503069
   6.2004817  64.5828342  25.3176045   7.0670450  64.5088291  25.7173848
   5.8828032  65.4430866  25.5919862 102.2076317  61.7475605  28.7595272
 102.8541382  61.1695671  28.3543277 102.7248111  62.4621344  29.1311979
   2.1192996  65.1495266  33.1363750   1.5765314  65.8912039  33.4038568
   2.8710288  65.5485344  32.6982808  86.0116490  75.5732155  37.7674913
  86.3236412  74.6756697  37.8828454  86.6937526  75.9990072  37.2481966
  30.7219839  21.9350672   2.6431224  30.8509231  22.7800655   2.2123280
  31.5550113  21.4778852   2.5278687  89.4310840  56.6801643  70.5618858
  89.4648012  55.9362125  69.9605322  88.6279186  56.5453625  71.0648632
  78.5176548  73.3304548  64.4520330  78.6263212  74.0933609  65.0198364
  77.7218445  73.5146713  63.9530516  92.5317403  43.0226231  70.3802299
  92.8284081  42.1548700  70.1059580  93.0296632  43.2051945  71.1770821
  64.5439391  -0.1992503  30.1929069  64.6351175   0.0550851  29.2746282
  64.4408398   0.6289014  30.6616998 107.0892554  35.4133630  43.4628534
 107.9891547  35.2084756  43.7166929 106.7353254  34.5830441  43.1442118
  12.9468620  12.4807131  31.5214038  13.0145192  13.3626461  31.1555505
  13.7720954  12.0584714  31.2827945  22.4117637  56.3577271  38.7812996
  21.7123556  56.2238550  38.1416607  22.6133800  55.4791021  39.1031599
 107.9251622  67.4824238  44.2932558 108.7029042  66.9865227  44.0374565
 108.1622090  68.3966875  44.1378212 103.7654641  38.0158591  37.7705741
 104.5977052  38.1353593  38.2280970 103.1281402  38.4895349  38.3050656
 101.8426683  40.0677109  88.7346935 101.7749932  39.5974135  87.9037476
 102.7840134  40.1478481  88.8885784  84.6075908  94.4144980  44.4338417
  84.3045405  95.1780382  43.9425182  84.8832635  93.7911752  43.7617540
  28.1835818  51.8725395  43.7738609  28.8281322  52.2533560  44.3703270
  28.6291981  51.1172771  43.3901501  37.8566742  25.7726765  55.9767342
  38.4148264  26.3973427  55.5136061  37.1338463  26.3017082  56.3141870
  57.8435044  91.4399938   1.8480226  57.9385333  92.3625354   2.0849153
  58.1522994  90.9620337   2.6177236   4.9346581  53.0014133  56.9601583
   4.6796662  52.1866512  57.3930264   4.1159838  53.4880257  56.8641901
  77.0018633  28.4738350  45.0730324  77.9088029  28.2328963  45.2618217
  77.0671257  29.1202140  44.3700647  83.2978042  29.5066786  39.4873071
  84.0764674  29.9140811  39.1079187  83.2554539  29.8544264  40.3780985
  96.5451141  50.4031181  33.2501531  95.6401309  50.7147741  33.2398057
  96.7082151  50.1113272  32.3532200  11.0183001  32.6477027  65.7658863
  10.6643856  33.4856677  66.0638618  11.1248851  32.1343517  66.5667248
  14.3998826  71.0887718  26.5056205  13.5723197  70.6622839  26.2831807
  14.3403661  71.2507486  27.4471354 106.8387591  44.9466610  55.5302811
 106.3035747  44.2332029  55.8778334 107.0519405  45.4808187  56.2954378
  99.0794583  18.2002759  58.0901575  98.8390800  19.1250587  58.0333519
  99.2861231  18.0628729  59.0146255   0.7340063  55.1383877  30.5662966
   0.2963574  54.6392965  29.8766565   0.2619023  54.9066114  31.3660669
  83.2577371  61.2795943  87.1178181  82.9031180  60.3930729  87.0503271
  82.9112958  61.7351931  86.3505897   8.9014477  41.6990232  29.1852331
   9.3423998  41.7619944  28.3379865   9.5868593  41.8866873  29.8265004
  88.4882458  63.4195709  43.7513304  88.2494529  62.4949503  43.6858892
  87.6580103  63.8880539  43.6649084 110.1832142  45.3053474  35.9618282
 110.5603067  45.8275890  35.2538085 109.2774933  45.6081724  36.0266161
  98.8700911  34.7604704  18.9867675  98.9686795  33.8383293  19.2237687
  98.6518713  35.1973438  19.8100245   4.9520603  25.2761793  13.2594383
   5.0104684  24.5296812  13.8557291   4.2192572  25.0641322  12.6812792
   9.4978249  64.6622515  19.9825168  10.3705955  64.8951292  19.6658599
   9.5233655  63.7100315  20.0766301 100.2046398  11.8768235  79.7152928
 100.2298287  11.1958190  80.3874723 100.3823046  11.4126178  78.8972596
  18.8814974  32.1972227  66.7414093  18.3743644  31.6363025  66.1545420
  19.5381725  31.6140103  67.1220303  14.8142588  41.7258596  45.9639788
  14.2518556  42.4772501  45.7759714  15.5537486  42.0950413  46.4467716
  97.8939828  52.7030945  12.3654532  97.6943310  52.4731207  13.2729125
  97.1019586  53.1373024  12.0485985  24.0685940  46.7349529  33.7347889
  24.8234129  46.3133001  34.1455054  23.5077500  46.0088634  33.4618902
 107.9309946  51.2641525  45.6969929 107.8161254  50.7262707  44.9135923
 108.8278761  51.5923500  45.6327915  89.3535594   7.0571395  77.7638320
  89.8652700   6.2647744  77.9267529  88.5705987   6.9519731  78.3043364
  96.6778000  12.9652905  25.0088477  95.7635947  12.7087677  24.8877859
  97.1811851  12.2282553  24.6629930  23.2523346  76.2209654  37.9312778
  23.9533639  75.9303474  37.3479009  23.2483625  75.5775928  38.6400008
  86.4986142  65.2780056  34.9999976  86.0971173  64.6412945  35.5912971
  86.7258319  66.0178566  35.5632257 106.6115805  40.4887724  62.3331881
 106.4236736  41.0850286  61.6083479 106.4553960  39.6161413  61.9721413
   7.0708472  37.7384686  59.7922897   7.8267831  38.3220887  59.8569393
   6.7545629  37.8545594  58.8963413  36.2710834  28.6999750  34.5524144
  36.3364458  29.5232058  34.0684175  35.8878589  28.9467692  35.3941178
  73.7936024  18.8238545  85.7599012  74.1902713  18.7976762  84.8891542
  74.0184420  17.9796287  86.1510000  31.4853597  41.4260912  49.4735527
  31.4922762  42.3817825  49.5268440  31.4833617  41.1353588  50.3855276
  11.3312924  36.5522075  64.3393755  11.7932796  37.2415018  64.8165274
  10.7702732  36.1406016  64.9966955  80.5098811 104.5818731  47.5838661
  81.0958055 105.2912108  47.3197365  81.0092417 103.7830499  47.4142981
   5.6489336  50.0135279  52.5629377   6.3507611  49.6999693  51.9925404
   4.8714072  50.0198889  52.0046854  96.1446222  40.9596682  25.6022358
  97.0027562  40.8471298  26.0111046  95.5220541  40.8718538  26.3239908
  11.8655860  62.8424597  31.0266185  11.9002593  61.8966389  30.8836150
  11.1551929  63.1443977  30.4605722  41.3184643  13.5922432  24.7109675
  41.1413622  13.1330657  23.8899779  40.6090784  14.2304671  24.7862864
  22.5698853  50.9136438  31.9079137  23.0977201  51.6874170  31.7106795
  21.9511151  50.8539248  31.1800456  42.2018147  34.2600870  61.6115999
  41.7456770  35.0767946  61.4087105  43.1267500  34.4602418  61.4678383
  26.3995624  46.3572979  13.7498236  26.6393995  47.0540619  14.3607497
  27.1487427  46.2893629  13.1579244  97.5347718  40.8373404  44.0328074
  97.7276107  39.9113083  44.1794634  96.6061839  40.9255743  44.2476845
  80.0748976  64.1977215  36.8244743  80.0409969  64.5159149  35.9223437
  79.4995626  64.7897005  37.3090219  25.1580501  33.9508605  55.6386471
  25.8811331  34.2430925  56.1936140  25.4020190  33.0636644  55.3748417
  13.1152821  21.2125635  28.3446312  13.6336076  20.7725406  27.6708746
  13.1107163  20.6008816  29.0808749   4.8528475  41.9127369  52.9331064
   5.4358053  42.6697731  52.9904366   4.7900671  41.5901566  53.8321209
  83.8024219  53.3730793  55.9172297  82.9267939  53.2056952  55.5686808
  84.2959317  53.7142134  55.1713705  26.0560632  29.6302533  45.9228230
  26.6080308  30.3993082  46.0646534  26.1845088  29.0954733  46.7062378
  82.4612459  66.7103148  35.4651451  82.0427378  67.4734402  35.0667429
  82.6223548  66.1157560  34.7324967 110.7204004  54.2052841  33.0202770
 111.4131529  53.5656548  32.8553557 110.6544504  54.2462969  33.9743209
   2.6353624  43.6659431  39.4275451   3.4312350  44.1542006  39.6383142
   2.8180143  43.2656240  38.5774779 101.2768032  36.6039705  43.3728218
 100.7362743  37.2962022  42.9922009 101.5020927  36.0413241  42.6319408
  25.2856350  14.9482346  43.9410448  24.4486356  14.9878573  43.4783411
  25.5316639  14.0236402  43.9122963   9.5194888  41.7080021  34.3467045
   9.0069222  41.5654802  35.1424384  10.1522160  40.9898090  34.3375206
  10.3168166  70.7830715  14.7277856  10.3850639  71.6625881  15.0993073
  10.3131115  70.9227037  13.7808311  90.9237941  22.0974660  47.4180269
  90.3314360  21.8920684  46.6947317  91.7723831  21.7549539  47.1372890
  34.4574833  25.4666734  44.6185303  34.1248250  26.3586116  44.5184517
  35.0280881  25.5085588  45.3859234  11.6771352  48.1889391  68.1856775
  10.8875394  48.6410809  67.8884602  11.3644409  47.3383331  68.4937716
  20.5996442  52.5861645  22.1261358  19.7373247  52.2912550  21.8334484
  20.7603121  53.3878040  21.6283464  92.2710911 102.3155940  50.2784014
  92.4024180 102.9467486  49.5708513  92.8465430 102.6195197  50.9803391
 111.0050449  36.1455083  25.6467581 111.4019762  36.9765639  25.3859472
 110.1352919  36.3853908  25.9664726  20.9185982  28.6509657  43.6547089
  19.9901342  28.8629746  43.7508297  21.0331464  28.4963512  42.7170515
 102.6661297  34.5915937  53.3697462 102.5020470  35.4329944  53.7955999
 103.0393966  34.0428138  54.0594864  83.3483361  87.1748507  85.9308005
  83.9807843  87.2752750  85.2193550  83.8842534  87.0046317  86.7054305
  96.9192406  42.5915670  32.0159674  97.5354692  41.8591499  32.0083880
  96.7564639  42.7772045  31.0911560 105.4179605  52.2842598  75.6025171
 105.8755102  52.6005697  76.3815069 104.8031005  52.9848433  75.3848839
 103.7577709  98.0232811  35.0235677 103.1890627  98.3083057  35.7388043
 104.1058674  97.1807861  35.3155518 109.0334216  74.4687462  47.1990871
 109.8911395  74.5360470  46.7795372 108.9776389  73.5570288  47.4852467
  29.8781013  93.4484959  72.0892811  29.7616148  93.9175224  71.2630415
  30.6642342  92.9190636  71.9553804  31.1446524  36.8292141  56.7186832
  31.7807698  36.1646938  56.9832516  31.6766524  37.5878358  56.4784622
  13.3192599  18.8249993  18.0769336  12.7270615  18.6910665  17.3369372
  13.7023640  17.9624033  18.2362819  33.4179568  41.0906696  44.1605711
  32.5391841  40.7353973  44.0272522  33.3457470  41.6154003  44.9578667
  29.0950871  87.3030090  29.8987031  28.9360332  87.2052193  30.8375168
  28.5664010  88.0591202  29.6436930  35.3710079  36.2345672  70.9313917
  35.2102017  36.1007857  69.9973249  35.1935959  35.3823280  71.3294411
  46.6515636  68.7007236  54.1515112  46.1346912  67.9688263  53.8147593
  46.1357069  69.4775915  53.9356470  13.4325063  98.6869431  31.8684697
  12.5239158  98.9112568  32.0694089  13.4837508  98.7278938  30.9135199
  33.2474923  59.8537779  54.3832111  33.4365988  59.1083145  53.8133383
  32.7868319  60.4753351  53.8195753  36.2282181  20.3885317   9.8844117
  35.3549981  20.0063705   9.7968173  36.3040447  20.9857535   9.1402280
  18.7979436  90.0998020  67.0225430  18.2375765  89.9939823  66.2537622
  18.7284935  91.0285568  67.2435427   7.9942048  88.9286709  61.1149216
   7.4532974  89.3399525  60.4407597   8.8892084  89.0069771  60.7846689
  21.0873437  60.7518673  37.0409274  21.3015771  60.0739527  37.6818419
  21.5952134  61.5139055  37.3194885   6.5555161  75.4482889  55.0889349
   6.9966811  75.3084278  54.2510557   5.6414473  75.2203894  54.9193192
  10.4067802  67.3705578  60.5718803   9.7791153  67.2211981  61.2789583
  10.5640495  66.5011549  60.2035952  96.2218913  41.7426443  76.5308523
  95.7392844  40.9187651  76.4634800  96.3556608  41.8657017  77.4706364
  23.4283257  50.4269743  56.9243765  22.5943017  50.1204300  57.2802734
  24.0577054  49.7494698  57.1715546  42.3428297  48.5868645  53.1127262
  42.5496340  47.9918957  53.8334703  42.1364641  48.0097723  52.3774672
 110.0531409  90.0735188  33.3659935 109.3104214  90.6689167  33.4664774
 109.9736924  89.7402000  32.4722266  35.2057862  43.1038713  20.8236575
  36.1471915  43.1631851  20.6609607  35.0566483  43.6742306  21.5777659
 107.9708733  39.4003177  41.9370794 107.6310401  39.2941189  41.0485601
 107.2844266  39.0429282  42.5003672 104.0310796  39.8306203  48.8058233
 103.3095201  40.1657391  49.3380642 103.6090561  39.2652631  48.1589127
 103.6544349  76.0242987  32.7168441 103.9176335  75.7121563  31.8510938
 103.2285210  75.2700138  33.1241298   1.5543662  59.3561602  85.0053692
   1.4087974  58.4477901  85.2697659   1.1872583  59.4105673  84.1230488
   8.0309814  36.4737678  36.3536549   8.1555521  37.3187685  36.7857337
   7.3981774  36.0137367  36.9051647  46.2454462  70.6842279  70.6026411
  47.1150398  70.8423185  70.2351618  45.9889269  71.5251160  70.9812450
  22.1644759  40.2717876  31.8223405  23.1090617  40.2087402  31.6808677
  21.9669437  39.5662975  32.4383759  16.1417043  58.2121038  29.3351460
  16.1594403  58.1549454  30.2904725  16.7735970  57.5546598  29.0440965
   2.9394245  67.7856159  21.5777016   3.5449538  68.0202532  22.2809172
   3.4271923  67.9612970  20.7730579  89.6826347  55.5003071  22.5881147
  89.5886644  55.2882242  21.6594481  88.8729485  55.9590530  22.8121519
  26.5013361  61.5118790  50.5453062  25.8561730  62.1496773  50.2400017
  27.1126986  61.4209795  49.8144102 105.1365282  60.4045820  10.6230092
 105.8090027  60.0529623  11.2064242 104.9106046  59.6724892  10.0492287
  78.5124497   9.4777688  68.7322712  78.9404778   8.9304933  69.3906879
  79.0132813   9.3244943  67.9310846 107.0121389  96.9261265  33.8811302
 106.4175289  96.7775536  34.6163821 106.7996451  97.8080463  33.5756803
  22.1657515  77.1709633  44.0403271  22.7856207  76.9787359  43.3367348
  22.5405025  76.7467403  44.8122263 106.9242045  96.7058086  71.9062471
 107.7443629  97.1369743  72.1463823 107.0777496  95.7792091  72.0908356
  47.3895645  46.2763643  18.5592926  47.8729296  45.4573345  18.4507442
  47.9760170  46.8347406  19.0697062  21.0630918  55.1999950  45.4222965
  20.5113626  55.8625221  45.8380890  21.1177802  54.4947672  46.0671949
  77.8194293  27.6183391  53.5236359  77.0953115  27.3378491  54.0832853
  78.1713351  28.3950162  53.9585686  91.7663928  72.0263815  31.8379736
  91.0449704  71.3979435  31.8670845  92.4809881  71.5512228  31.4139366
   9.9110556  95.1407528  55.2794504  10.5423975  94.4613934  55.0425720
  10.3711820  95.6821918  55.9208250  23.8364863  88.2924843  26.5519834
  23.1350803  87.6425552  26.5089488  24.4010663  88.0852413  25.8073139
   2.3001903  58.0214834  66.6846180   3.2137847  58.1375217  66.9456005
   1.8687290  58.8315630  66.9563484  14.2846429  85.3772354  67.8237724
  13.9318645  86.1435604  68.2760143  15.1769447  85.6291771  67.5859642
 107.7778497  59.0900564  45.9370422 107.1138944  58.9900064  46.6192341
 108.4667640  59.6122551  46.3480616  23.4735894  91.1211967  23.0895519
  23.0379868  90.2702427  23.1381202  23.6909938  91.3311577  23.9977813
 109.9187971  18.3288097  41.8202877 109.2980000  18.8984323  42.2745705
 110.5247405  18.0418694  42.5034666   6.7104799  26.7709279  54.1348267
   6.2349659  26.9524622  53.3241701   6.3255841  25.9575891  54.4612741
 103.8887622  45.0278139  38.3536434 104.6936419  44.5498085  38.5534286
 104.1469099  45.9493828  38.3710289   5.0145775  63.2156086  50.4330301
   5.4686195  63.2446098  51.2751913   4.2252553  63.7399244  50.5683041
  18.1543291  55.4937172  22.2053218  18.8286340  56.1197996  22.4690700
  17.8273785  55.8310080  21.3713121   2.0721318  23.7352443  35.0442886
   1.7481405  23.3309031  35.8491325   1.3372239  24.2603350  34.7273970
   9.8783928  37.0627856  57.2789812  10.2155983  36.8366814  56.4121485
   9.1950691  37.7110553  57.1085501  23.1938457  81.7003536   1.5955035
  23.9752531  81.3471794   1.1701839  23.3470535  81.5627384   2.5302875
   8.2905638  76.2216330  33.2415366   8.4353018  76.8635130  32.5463581
   9.0967977  76.2410784  33.7571335 100.2918907 101.2078667  74.1900444
  99.6009978 101.7854404  73.8655329 101.0372206 101.3790417  73.6143589
 106.8868788  24.7440434  17.8613269 106.0642471  25.2077174  17.7047563
 107.5147986  25.4349446  18.0725253  19.7099268  89.8398781  33.9196396
  20.1857018  90.6561947  33.7663674  19.0994012  90.0476742  34.6269679
  19.5014811  70.4310036  19.0643513  20.0013351  71.1764908  19.3969560
  18.6095726  70.5818462  19.3773651 103.6571678  63.8163042  26.3154483
 103.5918757  63.3204508  25.4992986 104.5024046  63.5600519  26.6844201
  22.2882748  18.7090695  37.7291250  23.1288123  18.5165274  37.3136067
  22.4639225  18.6412263  38.6676216  14.7065806  47.8619957  39.7870016
  15.0368106  48.6235189  39.3102837  14.7309387  48.1261253  40.7067156
  20.4645729  88.6557579  50.1305771  20.5548954  88.7268639  49.1803074
  20.8012700  89.4866371  50.4660082  12.4601674  70.0130510  40.6856918
  12.7113891  70.0693941  41.6076183  11.5066171  69.9311304  40.7018614
  25.4896092  80.1879978  37.9911947  24.7809529  79.5877600  37.7593350
  25.2651882  81.0061359  37.5479078 110.4711338  56.3551855  41.9837236
 110.4614236  57.2254992  42.3820734 111.2599693  56.3487101  41.4415693
  14.7170484 102.6323032  58.0355549  14.6457195 102.3613262  58.9508247
  13.9021444 103.1031322  57.8609562  94.4852670  50.8848667  77.3414421
  94.4210299  51.0854244  76.4076996  95.0542291  51.5687561  77.6947260
  17.4596357  73.9560223  31.2689877  17.5321448  73.3784199  30.5091548
  18.2885849  74.4343328  31.2862229  28.3328795  34.0264726  39.3073416
  29.2588115  34.2350101  39.4314098  27.8779531  34.5587134  39.9600220
  99.9532660  80.3600883  30.8023500  99.3051847  79.8388910  31.2762403
  99.8696085  80.0762939  29.8920250 103.2421168  53.3626032  48.4612799
 102.4103364  53.5047531  48.0094337 103.8713940  53.1990099  47.7588034
  71.2851614   0.9481164  89.8579584  70.4316953   0.7813045  89.4579593
  71.6601095   0.0779792  89.9939797  16.7960405  65.6264830   4.7773075
  17.2713768  65.8627367   3.9807698  15.9690821  66.1042738   4.7133490
   1.2752560  34.8724747  57.2057295   0.7053484  34.1387701  56.9752645
   0.7310086  35.6488919  57.0745707   1.2795666  51.0482311  62.8671789
   1.9195743  51.2221289  63.5573864   1.3547966  50.1083899  62.7020550
  46.7294407  65.2917957  51.7740679  47.5584221  65.4936171  52.2079945
  46.0631752  65.4596424  52.4405098  15.9161007  67.3743725  77.0290899
  16.7210662  67.7118349  76.6361761  15.5667961  68.1114531  77.5300121
 105.6708302  31.8433666  47.5800848 105.7895567  32.7835870  47.7147007
 105.4839023  31.4981413  48.4530735  24.5015860  57.7883434  37.2110224
  24.3655801  58.6335659  37.6392007  24.0369463  57.1614790  37.7654386
  59.7741318  85.3828144  57.3937941  59.1255188  85.5673695  58.0731106
  60.4186535  86.0851192  57.4808931  15.3730106  48.2106066  62.7641821
  15.5085135  49.0232420  62.2768402  15.1562786  48.4967709  63.6515236
   6.8953419  34.0128422  18.2923698   6.6693604  34.6803379  18.9401460
   7.7907687  34.2268133  18.0303407   2.5299823  50.9456491  37.7072811
   3.1345481  51.1077881  36.9830966   3.0556950  50.4816198  38.3588433
  33.1252408  68.6535168  41.4498329  34.0246010  68.6259651  41.7763662
  32.5996399  68.8867903  42.2150469 104.8196157  76.5362120  51.6213512
 104.5379951  75.8612108  52.2388458 104.8727580  76.0836267  50.7795811
  23.6779642  60.4821730  77.2256279  23.2431340  60.2203512  76.4140844
  23.0430818  60.2810907  77.9131746  38.6135006  65.4460430  49.7876263
  39.5111060  65.7555199  49.6661377  38.1792760  65.6384182  48.9565563
  27.7608109  90.2590847  34.2673039  28.5948396  90.1217175  34.7164774
  27.4025416  91.0527039  34.6648502  74.7462784  20.8556148  88.4565683
  75.4914605  20.2565595  88.5020151  74.3296852  20.6564971  87.6180968
  34.2657328  62.3182344   7.8225064  33.9495492  61.7211580   8.5005617
  34.9633050  61.8327284   7.3821521   8.9433378  67.8199959  54.2243814
   9.3758392  66.9663191  54.2445660   8.0208606  67.6175117  54.0685987
  11.9964540  58.3241224  13.3884645  12.8084052  58.2469082  13.8894677
  11.9413543  59.2528248  13.1632888  72.1305344   9.6241892   4.0687772
  72.8819469   9.2726219   4.5462819  72.4500934  10.4422224   3.6880704
  20.6533527  62.4441910  42.2533989  19.7196627  62.4707413  42.0442343
  20.8552694  61.5116549  42.3297882 106.2929671  82.1857262  51.0444641
 105.8157846  81.3591003  51.1166906 107.2098561  81.9454384  51.1779261
  44.0979760   4.1214093  45.0140047  43.4659867   3.4337243  44.8044586
  44.7990595   3.6678895  45.4820061   4.6699584  32.5429201  19.0697551
   4.4851989  31.7790222  18.5233533   5.5400991  32.8303671  18.7932408
  38.2673407  53.7382650  50.8486891  38.4793711  54.1422749  51.6901445
  39.1063547  53.6832380  50.3912401  96.6923829  74.4323015  51.9951820
  96.2798520  74.4688845  51.1322165  96.9572803  73.5179663  52.0954561
  16.2157798  92.6447868  51.7477226  16.6493869  91.8645954  52.0934296
  15.9372866  92.3936272  50.8670425  27.7238178  85.3981876  45.4356623
  27.4029851  85.1545525  46.3039541  27.8169394  86.3501072  45.4731417
  22.0003748  70.0276899  57.3992586  21.6713905  69.9129963  56.5077209
  22.7587986  69.4460487  57.4513721  22.2954917  47.8103304  39.8548102
  21.3706183  47.6658344  40.0547218  22.3269987  47.8747177  38.9002991
  47.4595594  65.7071304  48.8247681  48.1480551  66.3098383  49.1057539
  47.6573658  64.8886108  49.2798805 106.1087307  50.0849724  60.2068663
 105.9846296  49.3096828  59.6593714 106.4373662  49.7413969  61.0376406
 103.6386564  36.1682081  44.9040842 103.3497413  35.5050468  44.2772055
 103.8159844  36.9420934  44.3693972  92.0753249  58.7091589   5.4655266
  92.9129895  59.1134071   5.2393997  91.5849074  59.4039726   5.9047985
   5.5413300  49.9599218  65.5181360   5.9943992  49.4542646  64.8433924
   5.4356521  49.3473482  66.2460184  20.0956488  75.7226610  51.0907841
  19.5933759  76.5338755  51.0140896  19.6808028  75.2515125  51.8133879
 110.6241638  32.1246052  43.2860708 110.9939921  32.8826714  43.7386131
 109.8990913  32.4819446  42.7734232  38.5244656  49.3533039  50.6402445
  38.1535625  50.0990248  51.1120033  39.0672207  48.9053535  51.2890768
  10.1285291  64.7292089  37.0395470   9.6622705  64.0466166  36.5569448
   9.4394410  65.2164507  37.4911928  43.5858618   4.1564759  34.2596698
  44.1447185   4.8059663  33.8329816  42.7566390   4.2044553  33.7839413
  39.5017982 101.8808842  47.5947714  39.9478722 101.0340977  47.6092243
  38.6486483 101.6954994  47.2023487 104.8974713  36.5367270  54.9275732
 104.9128755  36.6003251  55.8825350 103.9699873  36.5961552  54.6985006
 106.2125983  90.5778885  56.3320541 106.1224052  91.5308094  56.3257885
 107.1405204  90.4263115  56.5115404  92.6575562  76.4447975  34.6255636
  92.8942259  76.2201214  35.5254197  93.4176227  76.1835766  34.1056657
   3.5704640  78.8285971  81.5307522   3.8915771  79.3874645  80.8230877
   4.2829239  78.2092142  81.6888618  18.8552463  32.6435757  36.1695194
  19.5599222  33.1849051  36.5253687  18.3318055  33.2476425  35.6428838
 104.4511093  97.3411397   8.5712549 105.2636588  96.8857650   8.3507367
 104.5926441  98.2404021   8.2753965  37.1874452  48.1097507  58.5019875
  37.3755836  47.3334599  57.9745293  37.7685595  48.7844801  58.1508827
  11.0995090  72.3639011  37.9897213  11.9594443  72.4211216  37.5732231
  10.5403042  72.9360342  37.4641871  58.7984848  78.2655716  56.3722610
  58.6434031  77.9134512  55.4957962  58.4843779  77.5819492  56.9640636
  25.8476877  60.9735203  35.7000017  26.5825057  61.1578846  36.2850547
  25.1373816  60.7077694  36.2840176  36.8619156  84.3486500  40.2534056
  37.6942849  84.1046715  40.6582117  37.1091533  84.7478867  39.4193077
  94.7130486  49.3157244  59.3256474  94.5758685  49.1906452  60.2646732
  95.6383141  49.1118050  59.1895103 100.9206196  92.2482395  33.8669538
 101.8453022  92.2423553  34.1142583 100.7418176  91.3504887  33.5871196
  18.2382369  80.9010410  11.5471911  19.0264332  81.2475586  11.9654024
  17.6056135  80.8173466  12.2606432   7.0155537  54.7289467   3.4124699
   7.9562229  54.5779276   3.3199099   6.7756915  54.2622948   4.2130554
  46.5271978  12.8150186  24.6573281  46.6019683  12.5703534  23.7349486
  45.5852400  12.8235825  24.8272514  46.1892462  92.1166611  73.9575529
  45.6830072  91.3702011  73.6370039  46.3964844  91.8935490  74.8650265
   9.6439564  60.8230495  54.5231056  10.2331853  60.4483509  55.1778126
   8.7707102  60.7247686  54.9026012   9.4674766  20.2656770  55.3698111
   8.9655083  20.8745241  54.8279953  10.2953076  20.7174349  55.5336428
  28.3496571  74.7100878  68.0186987  28.7947106  75.4413128  67.5903654
  28.7462687  74.6647787  68.8886833   8.0983424  61.9698381  28.7924647
   7.1790826  62.2296047  28.8534021   8.5698318  62.6395655  29.2878389
  22.7944541  53.3958387  38.9489055  22.9081655  53.8910723  38.1377053
  22.7491140  52.4821091  38.6673403 103.7162670  80.0140476  53.6654377
 103.9628657  80.9340954  53.5709143 103.5337456  79.9097300  54.5992661
  17.4731195  58.5997868  21.7090273  18.4108567  58.6520767  21.8938136
  17.2287881  59.4901037  21.4563036  41.2661123  77.6380873  52.8020239
  40.3833485  77.4958944  53.1437016  41.6700745  78.2413864  53.4257889
  35.9640288  72.5578928  65.5150843  36.7480826  72.9535007  65.1343155
  35.4746890  72.2243834  64.7630548   6.5100014  46.3775349  38.7793517
   7.4146092  46.3771629  38.4664345   6.0026562  46.7231369  38.0449176
  19.2698336  43.0684757  65.1098871  19.5279348  42.3553562  64.5258665
  20.0887704  43.5210562  65.3117418  72.0868711   3.2692441  31.4605641
  71.1765318   3.2500371  31.1653590  72.1804957   4.1179189  31.8932486
  14.5528638  44.1731358  38.5443187  14.0338492  44.8891401  38.9106464
  14.9898481  43.7825155  39.3010831 108.6914247  55.2991295  58.8117504
 108.7705477  55.0654507  59.7366095 109.5889258  55.2716446  58.4801340
  50.7306235   7.1493348  74.3624020  50.5702500   7.1358022  75.3059721
  49.8577385   7.1895226  73.9716482   0.2346834  64.8372602  39.1345310
   0.5604192  65.3517008  38.3959651   0.7844514  64.0537167  39.1416430
  13.4743869  76.4659119  81.5452194  13.1812346  75.8029604  80.9200954
  14.3943000  76.6125774  81.3250351  13.4032285  99.4610023  29.1348982
  12.4746871  99.4563866  28.9024711  13.7440598 100.2653694  28.7436795
  91.7757615  59.2721176  44.1050482  91.2182053  59.8383045  44.6387100
  92.3271426  59.8774576  43.6092854 103.7315031  65.5880022  44.1641378
 104.1904881  65.8945656  43.3821011 104.3626835  65.7060289  44.8740053
   1.9990689  73.7792826  59.3790245   1.5256611  74.4368076  59.8887062
   2.9182166  74.0366220  59.4509554  13.7012208  64.5028210  33.5484314
  14.4759405  64.7839737  34.0352511  14.0283608  64.3057060  32.6707315
  18.8868237  51.2956858  68.0380678  18.4623587  50.9936476  68.8410807
  19.8171985  51.3358688  68.2594633   3.1711206  71.7945957  42.7988100
   4.1252255  71.8151093  42.8729343   2.9842490  70.9769964  42.3374653
   4.7341070  34.6327519  85.5742836   4.4928664  34.7909713  84.6615887
   4.0567195  34.0411401  85.9019566  71.4866868  47.7410305   6.8331357
  72.2699407  48.1065262   6.4218446  71.2892449  46.9582069   6.3188955
  32.8380704  49.6301460  43.4807158  33.2345486  49.8028278  42.6267767
  33.1589794  48.7613630  43.7225008   6.2052107  66.8293953  11.9300377
   5.4276448  66.4622831  11.5095007   5.9311658  67.6983690  12.2233236
  13.1251991  92.5273132  39.7325730  13.3695793  91.6291809  39.5092607
  13.1462407  92.5504303  40.6892633   6.5930015  66.1718082   3.1873611
   6.9736445  65.4023647   2.7639207   6.1717361  66.6532183   2.4753147
  15.5622303  40.6302547  37.9298925  14.9767542  39.8844028  38.0608535
  16.0371041  40.7101250  38.7571454  32.3559666  14.2273510  30.2724981
  32.8678155  14.0990424  31.0711098  31.4915299  13.8740897  30.4827046
  12.0422268  62.2544718  26.5558505  12.6522291  62.1796703  25.8220029
  12.2393656  63.1063557  26.9452953  23.2702136  55.2538586  13.1802583
  23.2450509  54.2969990  13.1751645  23.2866454  55.4979515  12.2548509
  52.8153610  57.7578020  44.2213058  52.9690456  58.4107828  44.9041176
  53.6862278  57.5649118  43.8739967   6.4672291  65.0761461  47.7250004
   6.1234367  64.3419933  48.2339811   7.3374468  65.2345657  48.0908632
  90.6848367  70.6080484  29.1378307  90.0356682  70.2711058  28.5203481
  90.2791675  70.4948092  29.9973893  18.5405636  52.6552486  36.1309481
  18.9305806  53.5195398  36.2617898  17.5978446  52.8191996  36.1058140
  29.2449212  24.6297979  10.8348775  29.5127511  24.3147302  11.6981459
  29.5749664  23.9692283  10.2258205  91.2401470  68.0361843  39.4234371
  90.6846222  67.2735453  39.5846987  90.7535966  68.5559177  38.7836123
 100.4984208  52.3034048  30.9924078 100.5367693  52.3101521  31.9488168
  99.8607155  52.9828405  30.7734752  26.3109350  74.1755533  57.1501541
  26.0546160  73.2718754  57.3342562  27.0710611  74.3280220  57.7115726
   5.6105655  19.6575832  40.3934240   4.7478393  19.2451799  40.3503084
   5.4928088  20.5047631  39.9637103  33.1311107  65.3298998  71.9641495
  32.7971387  66.1286640  71.5559006  34.0115333  65.5619526  72.2595119
   8.5646635  58.9053583  40.8226967   8.2688910  59.5070410  41.5058708
   8.8473201  59.4753122  40.1075172 109.2677616  65.9639931  36.6334701
 110.0447323  65.4124641  36.7249227 109.5028012  66.7830849  37.0694566
 107.9671817  72.8280544  64.1419983 107.9515373  72.2189617  63.4037638
 108.7600961  72.5973940  64.6260595  28.3121753  60.4445171  48.5723257
  28.6337185  59.9031591  49.2932844  29.0904808  60.8966923  48.2467413
  26.8867922  59.6082687  63.0490208  26.8675637  60.5650663  63.0691433
  26.8016410  59.3864441  62.1217775  22.3943639  64.9780464  28.5316610
  23.1763458  65.2911091  28.0769920  21.8466401  64.6082211  27.8392315
   3.7224057  53.6115170  31.9283867   3.7567329  52.8507328  31.3485050
   4.1425750  54.3120861  31.4294958  94.4832250  51.7254925  36.9687343
  95.2943190  51.2771320  37.2081709  93.9828583  51.7668581  37.7836919
   5.9509152  93.1558132   1.5645154   5.2733409  92.4979591   1.4084461
   6.4352620  93.2010174   0.7401389  17.8119504  50.1202965  39.7086835
  17.0025444  50.2047157  39.2047334  18.3239365  50.8932829  39.4707918
   4.6655092  91.1095142  42.8993130   4.0452799  91.2741375  43.6095572
   4.2534050  90.4221153  42.3759794   7.7394980  80.1266575  23.8808560
   7.1965349  80.4422474  24.6032310   8.6250621  80.0952625  24.2428255
  36.5001893  98.6720085  47.8979635  37.3825812  98.8573456  47.5766134
  36.1580920  98.0141640  47.2926188  99.8292287  57.2916412  39.0583539
  99.9351128  56.3635540  39.2673397  99.1364142  57.3109627  38.3981514
  26.5876651  70.3336859  60.8095074  27.1092153  69.5619488  61.0300541
  25.9747958  70.4250669  61.5390730 105.8313956  64.9202919  66.4570618
 106.4592686  64.2465878  66.1960411 106.3213231  65.7404184  66.3971090
  11.1677587  67.8809118  16.7435002  11.8082786  68.5887957  16.8133068
  10.3724957  68.2376146  17.1391702  17.0588529  82.4947643  18.9342546
  16.8153238  82.8961563  18.1001019  16.8794811  81.5623951  18.8128114
  98.4806772  36.5041828  21.2756634  98.1378039  37.2128415  20.7311726
  98.8626095  36.9474936  22.0331836  43.7477160 100.7385349  33.2699132
  43.9909506 101.3679409  32.5909996  42.8416204 100.5058384  33.0672526
  36.5298223  96.6574574  10.5981827  37.0775175  95.9960842  10.1752734
  37.1326256  97.1434498  11.1609161   0.2653818  76.4983892  14.4314790
   0.2603245  76.3047075  15.3688657  -0.4618603  75.9866524  14.0772486
  14.6302950  68.8657713  39.6979976  14.2611587  68.0302382  39.4118857
  13.9906061  69.2091703  40.3217793   7.5005597  61.0079002  42.6451159
   7.6718962  61.9373655  42.4935389   6.5853214  60.8885908  42.3914671
   5.8261591  86.9641018  32.2264290   5.3502655  86.8093777  33.0424047
   5.1478541  87.2053432  31.5956068  16.2955284  64.9574423  47.8495741
  17.2452903  64.8485994  47.8979206  16.1595643  65.9031582  47.9076529
  44.5570230  71.8876743  52.5807905  44.3922806  71.4246750  53.4022093
  44.9311447  72.7267075  52.8496504   1.7280154  58.1205988  23.9108181
   1.5657192  57.5738955  24.6795893   1.6620933  59.0181112  24.2369390
  17.9080856  94.4993496  46.5387917  18.5769153  94.0960312  47.0921755
  18.2799315  95.3462219  46.2923050  12.0040846  85.5295849  73.4460115
  12.7469933  85.9471703  73.8818359  12.3912263  85.0684166  72.7019215
  35.6898546  61.3030243  55.3845406  35.8271003  62.0636320  54.8198557
  34.9995804  60.8028793  54.9490976  25.9156346  74.9363375  37.2880960
  26.1115074  74.8108101  38.2165933  26.7733383  74.9651194  36.8641305
  38.4305310  84.2550278  51.9915104  38.3866096  83.2989788  51.9749641
  37.8052258  84.5351219  51.3230991  28.7786436  52.3640680   2.4744837
  28.9151406  51.8431807   3.2658625  28.3475566  53.1608438   2.7835780
  37.4409795  83.1405163  48.7880850  37.0615506  83.8481998  49.3090963
  37.5310469  83.5111904  47.9101753  99.2222711  95.4065895  52.2611284
  99.9204990  94.8735142  52.6413250  99.2197474  95.1715660  51.3332319
  81.1369690  68.9872789  72.8519964  81.9527181  68.7115860  73.2700586
  80.5026420  69.0272856  73.5677195  30.5488157  83.4165478  21.6723466
  30.6363964  84.1286182  22.3060012  30.5203176  82.6227570  22.2064996
  55.1125002  82.0420265  29.1117954  54.2496204  81.7011547  29.3473530
  54.9281883  82.8490543  28.6312008  27.7189732  87.4975777  61.8799114
  28.2218647  88.3006668  61.7443228  26.8297338  87.7227783  61.6064739
  12.3147655  75.3088808  64.5773363  12.8399146  75.1345491  63.7962770
  12.5350904  76.2087107  64.8181581  38.8733840  80.6952953  40.3182411
  39.6042728  80.3642845  39.7962570  39.2463231  80.8400726  41.1878347
  39.0231276  76.1162329  39.3718219  38.1611085  76.0220575  39.7771454
  38.9295578  76.8633223  38.7807798  49.8534346  87.9306412  43.3095980
  49.4027758  88.3777714  42.5932074  50.6606054  88.4299850  43.4335184
  32.7882719  54.5867062  61.0716724  33.6643267  54.9469614  60.9339142
  32.2793412  54.9023771  60.3249645  14.1779566  66.6451931  43.1233120
  14.3384767  65.9968281  43.8089418  13.6004221  66.2000513  42.5031996
  30.1574779  96.0914803  80.0405121  29.9094677  96.9036579  79.5988369
  29.9491215  95.4024601  79.4095755   7.5895911  73.4318447  38.6899900
   8.1621325  74.1679049  38.4740114   8.1533289  72.8212357  39.1649508
   8.2266152  83.6328697  28.0377507   7.5228667  83.8847828  28.6356735
   8.5657990  82.8137589  28.3986425  26.8448424  86.4780140  71.2555122
  26.7310405  87.0957184  71.9778109  26.1228633  86.6726208  70.6579304
  20.2725911  96.7958069   7.5163621  19.9503374  96.0175896   7.9710776
  20.6623602  96.4578819   6.7100644  39.4604611  68.6981726  52.1288729
  39.3333054  67.8069496  52.4541140  40.4106092  68.8122511  52.1080494
   1.2918116  79.1983271  42.3700619   1.5023573  78.2664347  42.4290419
   1.5708947  79.4517088  41.4902067 102.7331855  97.2570705  37.7331161
 103.0725541  96.4709663  38.1610179 102.0459487  97.5717163  38.3204269
  15.0896180 101.7110538  49.5553207  15.2907789 102.0983315  50.4072475
  15.3293061 102.3876286  48.9220476  28.5848975  91.0985470  56.3497210
  28.3510327  91.0137844  55.4254103  27.7603292  90.9689808  56.8182659
  81.9534782  15.4827376  72.1830896  81.1124120  15.9394475  72.1990946
  82.5309131  16.0615893  71.6853634  36.7896080  86.8868732  25.3390956
  36.9348097  86.0334206  24.9307323  37.6653028  87.2640228  25.4236698
 110.5822331  89.2421627  71.8350410 109.7071420  89.2115307  71.4483786
 110.4416099  89.5802402  72.7194405  33.8333178  76.2832260  74.1775656
  34.7434592  76.3290882  73.8846970  33.6763525  75.3508139  74.3265724
  72.0523481   8.3586511  41.8756771  72.2988038   7.5463113  42.3179340
  72.5223212   8.3297452  41.0422945  19.2611492  82.2835350  41.5578794
  19.8510635  82.7856922  40.9956789  18.4089267  82.3450851  41.1264133
  21.5263414  84.8921776   6.5401179  20.8295894  84.7357655   7.1775371
  21.1767960  84.5544720   5.7154959 109.3155076  90.5939007  81.1893463
 109.3968647  91.3555241  81.7633915 108.5670524  90.1098537  81.5382576
  36.2930202  98.5336399  32.7248693  35.6098270  97.9239750  32.4459648
  36.8028879  98.7009335  31.9322276  19.4380796  57.7827644  55.6052303
  20.0895858  58.4395456  55.3594446  19.4911480  57.7383280  56.5599251
  22.9507379  12.0972737  74.0270948  22.1446423  11.6905698  74.3449593
  23.2301824  12.6671227  74.7436190   7.7855539  88.0738449  57.5501442
   7.0213854  88.5059547  57.9316664   8.0363888  87.4151039  58.1977272
  21.0927606  55.8139944  21.4422035  21.9433141  55.7597208  21.0064912
  20.4872322  55.3813553  20.8402157  24.7418404  88.6519146  50.7519674
  24.1222835  89.3028736  51.0815477  24.2819476  87.8171253  50.8406448
   5.9053040  67.3622847  70.5537176   5.1056027  67.2432280  70.0413370
   6.5392661  66.7700100  70.1493216  51.7634678  80.2427673  39.0794826
  51.2722015  81.0489273  39.2375779  51.8242598  79.8267841  39.9394202
  87.5772651  69.4793320  28.8007569  88.0122384  68.8069439  29.3250871
  86.8177136  69.7365046  29.3234158  34.4720292  75.7746458  42.5285864
  33.6266875  76.1078882  42.2276211  34.2763138  74.9048471  42.8769779
  35.0589168   6.9233521  16.5581238  35.2807911   7.1278104  15.6497192
  35.7014281   7.4078282  17.0764780  44.9309444  83.4664154  13.2317531
  44.4417191  84.2235184  12.9097557  45.7000113  83.8426113  13.6598194
  12.9027081  76.6682339  48.0387974  12.8773427  77.5354528  48.4431648
  13.7665725  76.6200590  47.6293468  24.6970558  58.0711031  58.4806681
  23.9547563  58.6469650  58.2973576  24.3604469  57.4423075  59.1190624
  13.0270731  65.2582645  41.2644482  13.6143327  64.9449968  40.5765343
  12.2865033  65.6387806  40.7922268  19.5187449  76.2702990  18.7248206
  19.1846108  76.0401297  19.5917737  19.6543992  75.4288054  18.2892489
  14.6999526  54.9234772  49.2480087  13.8011348  55.0780058  49.5386648
  14.6067727  54.5282841  48.3811951 110.2878699  81.5530682  69.0902901
 110.2404971  82.2544384  68.4406233 110.8097006  80.8705425  68.6682796
  26.4064217  78.7881613  60.8550262  25.7959318  78.5570049  61.5550995
  26.1495423  78.2316780  60.1197910  34.9433303  83.8088799  74.3240499
  35.6325507  83.2361317  73.9876556  34.2125106  83.6854935  73.7183189
  47.5611734  71.3590479  66.8185711  46.8184042  71.8671560  66.4924622
  47.2064066  70.8625364  67.5560331  31.6431618  81.3534069  57.8981686
  31.2364054  81.4078808  58.7629318  31.5423727  82.2313499  57.5303459
  18.4433866  77.9681349  41.9927931  19.1638601  77.7483606  41.4021587
  17.6688778  77.5890970  41.5772247  47.8555064   1.8127355  14.4662666
  46.8989866   1.8453607  14.4816732  48.1264381   2.3928651  15.1778018
  26.4978099  49.1923904  47.5952959  25.8347821  49.6336555  48.1262493
  26.0545969  48.4145784  47.2564697   1.8368186  30.0729823  43.2973719
   1.0310426  30.5588245  43.4732008   2.1612221  30.4371977  42.4737549
  21.1983633  82.1948624  39.4505453  20.4374433  82.0551682  38.8868785
  21.6605330  82.9316235  39.0507817  34.0958338  23.2152852  57.8054142
  34.2900984  22.2906789  57.9590416  34.4229077  23.3851727  56.9220161
  17.7880085  44.5414209  21.3736558  17.0974779  43.9678431  21.7059350
  18.5798478  44.2494726  21.8253088  33.0995433  20.8105668  42.1379280
  33.1198891  21.7152795  42.4498892  32.8651215  20.2960977  42.9103231
  33.4249258  81.4649868  10.8857250  33.8638067  81.8537235  11.6423655
  33.9668179  81.7180824  10.1383781  11.4822912  66.3758850  29.4352603
  10.9276354  66.8526983  30.0527048  11.7448747  67.0339489  28.7916517
   2.6998372  49.8038407  81.9485924   3.2805438  49.3929120  81.3081620
   1.8223734  49.5182343  81.6941980  13.7835109  61.8570375  59.5561171
  13.7843537  62.1861553  60.4549551  14.6091259  62.1693611  59.1859198
  10.0057630   6.4909181  71.6489124   9.0754251   6.5771016  71.8569422
  10.0596719   6.6758737  70.7113028  31.2694025  97.9726124  29.5962262
  31.2146258  98.9002228  29.8259091  31.6743636  97.5604248  30.3593373
  20.8249307  79.0661526  30.6806612  20.8148575  79.2918396  29.7505045
  20.2089119  79.6787834  31.0824537  42.9557467  73.6633396  26.8655229
  43.1932926  72.8254747  27.2627497  43.7892199  74.0384960  26.5812564
  48.0669658   9.9051198  49.3202543  48.2582431   9.1064843  48.8284969
  48.8105099  10.4806527  49.1409874  46.7982531  86.1411858   2.7523887
  47.4998474  85.5667686   3.0590400  47.2385263  86.7768764   2.1882130
  57.8827047  87.7540779  61.3738728  57.0463133  87.9321384  61.8039608
  58.4756470  87.5239372  62.0891953  25.0798249  94.6447372  33.4032655
  24.7081566  94.2118645  34.1718411  24.3677521  94.6500397  32.7636099
  14.0422416  82.5627422  45.7971764  14.8590183  83.0592155  45.8483791
  13.3903182  83.1311989  46.2071562  29.6428108  99.8417664  44.3264008
  29.8764634 100.1098728  43.4377193  30.1263666 100.4429913  44.8929071
  36.8504596  63.9099741  58.1464338  36.2883449  64.4868231  58.6636400
  36.9212389  64.3438625  57.2961617   1.9565076  76.9402361  44.1608858
   2.7977198  77.2709513  44.4758797   2.1882099  76.2680149  43.5200548
  47.8597021  73.0793238  35.8966684  47.6809597  73.3669853  36.7919540
  48.0782795  73.8835430  35.4258299  32.2596645  89.2431259  26.3932514
  31.3343573  89.4608784  26.5056038  32.4353456  89.4142056  25.4679942
  79.7213491  75.3149462  39.4826555  79.9729045  75.1592445  38.5723209
  78.9042576  74.8284721  39.5919132   2.9105502  87.6539326  50.1904297
   3.3328104  86.7988873  50.1078892   2.1019076  87.5715160  49.6849203
  20.8299565  72.2664165  64.0308619  20.6708336  71.8982220  64.8999691
  21.4248228  72.9999447  64.1867447  19.2201495  55.6104088  47.3731709
  18.4092021  55.1415062  47.1763897  19.6278977  55.1004267  48.0730915
  17.1617711  35.5263829  25.6410170  16.6065884  35.1226449  26.3081002
  17.2703266  36.4308047  25.9350729  25.2847667  27.8505536  81.7525104
  24.5659013  28.1842156  82.2892896  25.8680816  28.6011048  81.6400531
  41.9277287  91.6002750  11.8756855  41.6794825  92.4994850  12.0901954
  41.1311626  91.0903072  12.0228243  15.2058125  91.8354321  49.0294456
  15.0324094  90.9039021  49.1651821  15.8583617  91.8580818  48.3295155
  97.1215347  47.2620889  66.5548638  96.5753559  48.0474397  66.5210847
  97.5107244  47.2033044  65.6823329  18.5970104  78.6032772  34.4131017
  17.7046299  78.6432457  34.0691662  18.6847150  77.7110434  34.7484398
   6.7528492  81.9508743  65.6453705   6.4737821  82.7543640  66.0843945
   7.2701401  81.4858913  66.3029718  18.9136815  96.8992996  34.4465327
  18.6200798  97.1818161  33.5803843  19.6538711  97.4721050  34.6471524
  41.1601257  60.2843904  43.9664316  42.0523262  60.5617094  43.7583303
  40.7054901  60.2882624  43.1240988  63.3245754  75.5451202  58.0961275
  64.0596819  75.3978491  57.5010157  62.5713491  75.1633406  57.6454306
  96.4746018  78.8458824  49.8699808  97.2500070  78.7659836  50.4254913
  96.8197747  79.0855074  49.0099382  96.2109307  55.7535859  76.1461571
  95.2687649  55.7519456  76.3151303  96.2871078  55.5581494  75.2122215
  34.3319750 102.7146816  33.4277916  34.8097372 102.1780205  34.0602231
  33.4284043 102.4038506  33.4841108  25.2445793 102.3374081  56.5099764
  25.8443260 101.9709301  57.1597672  25.2969623 103.2839203  56.6426373
  63.7838840  90.8692265  48.9058590  63.4306765  90.0496674  48.5597467
  64.5853806  90.6112576  49.3611526  61.0435581  98.3629322  40.0100088
  61.0819054  97.8631020  39.1945720  61.0916567  99.2778015  39.7326469
  22.7800894  56.0855293  34.4964170  23.6413312  56.4869165  34.3807268
  22.2127247  56.5556240  33.8854027  14.5026982  75.2004719  31.2734413
  14.8582339  76.0890770  31.2590694  15.0075531  74.7297525  30.6102824
  11.3264406  97.0195961  35.2186441  11.2478912  96.7146015  34.3147421
  12.2211778  97.3538017  35.2817607  10.0617032  10.9170255  44.6824837
   9.3126778  10.8385381  45.2732706  10.7926135  11.1553201  45.2527618
  40.7408990  17.1905812  47.1492243  40.3091560  16.3641080  47.3654890
  40.1636215  17.6010808  46.5054274  34.3643665 104.2461205  60.9886503
  34.5013905 103.8190937  61.8342924  35.2103209 104.6428490  60.7808018
  16.9930756 105.1117516  40.8179998  17.8741932 105.1778698  41.1860943
  16.7173254 104.2167664  41.0159922   5.3057969  52.7644253  52.6091099
   5.4309177  51.8263340  52.7525234   5.8141440  53.1828403  53.3039093
   1.6005178  21.8919059  88.5346772   1.0927744  21.1653682  88.8960243
   2.0545001  21.5152665  87.7808378 109.6314148  38.1829282  73.5123042
 109.5621995  39.1375752  73.5213379 109.3858603  37.9333993  72.6214210
  75.3122529  22.8775712  90.3043353  74.6448386  22.7231999  90.9728846
  75.0157198  22.3708077  89.5483654 110.9751393  58.0576849  61.3333273
 110.5074693  57.4471617  61.9032192 110.4213434  58.8381433  61.3126802
  15.3162038  62.9348660  55.8232403  14.7142196  62.6422739  55.1389599
  15.9393072  62.2144699  55.9181452   1.0674205  76.0601854  71.7040825
   0.8572587  75.4863358  72.4408054   1.1470079  76.9308424  72.0937681
  44.3517017  49.5059013  51.5970182  44.0953207  50.0229454  50.8333683
  43.5667419  49.4815159  52.1442604  66.6628794  21.6981706  23.3484650
  67.1202831  21.1603555  22.7021194  66.5753178  21.1301145  24.1138864
  95.3332468  74.6456099  67.5118542  94.6709498  75.3337765  67.5752878
  94.9150630  73.8746595  67.8952503  68.2852221  94.6643066   4.6193704
  67.3459339  94.5168400   4.7299251  68.6311626  93.8134766   4.3498537
   8.6902916  98.7681675  30.7322311   7.9329526  98.1907463  30.6359982
   8.4080940  99.5990658  30.3498721  39.6113896  36.7439675  76.5751982
  40.3884315  36.2831974  76.8916368  39.8178005  37.6710868  76.6938257
  26.4653826  76.6602087  44.4260406  25.9942460  76.1464024  43.7700939
  27.3073912  76.8578768  44.0159416  27.1080112  85.3678322  32.7920842
  26.2207556  85.4483986  32.4420571  27.4112010  84.5144653  32.4821210
  79.1095686  87.8459835  63.8370419  79.1385698  88.5056877  63.1440973
  78.4228134  88.1512928  64.4298172   5.0946206  80.2577114  38.3059216
   4.9862495  81.1979771  38.1630969   4.3234262  79.8631477  37.8987241
   7.4819165  91.7567253  35.7799125   8.2716632  91.7312908  36.3201785
   7.3871499  92.6778507  35.5374622  29.6163440 103.2125187  30.6569242
  29.6723771 103.4550476  31.5811920  28.8042307 103.6171055  30.3519464
  14.8653495  90.7344532  23.3187199  14.6824980  91.2430096  24.1087627
  14.0020573  90.4822731  22.9910564  16.5104687  57.3386860  43.3194590
  16.0002851  56.5537834  43.5191345  16.4745128  57.8584290  44.1224575
  24.3344712  66.1920261  50.3395605  24.7576594  66.3414669  51.1850262
  24.0943933  67.0667791  50.0339460  18.0215120  80.4506874  31.2464857
  17.3211598  80.2502251  31.8674135  17.5714862  80.8328533  30.4930544
  94.7691830  66.9620657  29.8150682  93.8494583  66.7388535  29.9582934
  95.1452728  67.0036840  30.6943059  23.4112859  81.2972069  44.6107578
  23.0522847  81.7746353  43.8628197  22.8571486  80.5204964  44.6874666
  52.6437187  63.7854958  30.7765961  52.3985863  64.7037220  30.8906484
  53.1299257  63.5668707  31.5716028 108.1699776 101.9964123  53.9237261
 107.8682175 102.6575565  53.3007765 107.8022730 101.1748791  53.5979748
  44.8036289  19.6741807  61.4197540  44.1017056  19.8450291  60.7917786
  45.2978086  18.9500713  61.0354567  18.5823333  77.3782587  52.9180098
  17.6612937  77.6384497  52.9328394  18.9359581  77.7937365  52.1315241
  11.6569257  69.6469355  37.9808044  11.3019049  70.5294371  38.0875230
  12.4048698  69.6159029  38.5773325  19.8965442  71.2504768  26.1886358
  19.8092043  70.8696222  25.3148222  19.5853102  72.1502686  26.0899305
  28.4003973  74.0747643  20.5588269  28.4350467  73.1255150  20.6769848
  28.0099630  74.1942692  19.6930838  26.7038178  35.2032685  36.4683127
  27.0019817  34.7466493  37.2549701  25.8108163  34.8868585  36.3316846
  26.1472821  55.1487923  17.3868573  26.0557008  55.1263618  16.4343131
  25.2867365  55.4230738  17.7038169  17.5598896  62.2369242  42.3890257
  16.7556489  61.9079208  41.9875479  17.6267564  61.7605019  43.2165432
   7.9787856  48.2452440  43.5092878   7.6241326  48.8534069  44.1578150
   8.8895690  48.5179186  43.3981419   8.7349081 102.5512505  38.6537743
   8.3766502 103.3278370  38.2238960   9.5768058 102.4055576  38.2222509
  16.0840011  53.9660311  51.6934013  16.9589031  53.6946583  51.4156675
  15.5780363  54.0099955  50.8820438  20.6941843  46.2889862  47.2429037
  21.4985061  45.8557892  46.9571686  20.6591558  47.0939875  46.7262077
  18.1935513  81.6115761  53.7429285  17.8551316  81.6294956  54.6381283
  17.4920583  81.9915867  53.2140303 108.1099143  37.4196076  76.1218405
 108.3479353  37.9925323  75.3929138 108.9396577  37.0360780  76.4058542
  24.4454312  30.7750154  35.4652858  25.1116347  30.1463032  35.7430029
  23.9815044  30.3337669  34.7537374 109.8728459  63.4880590  62.8684711
 110.4640015  63.4600782  63.6207914 110.4009371  63.8610983  62.1626425
  13.9948976  86.5798855   4.7377741  14.6008289  87.0101070   5.3410923
  14.1475344  87.0111275   3.8969633  61.1159229 102.2808170  26.1874795
  60.5349731 102.0224380  26.9029975  60.6381464 102.9717922  25.7286644
  77.3622283  96.1148262  16.6186583  77.2023042  97.0026684  16.2986767
  78.2729062  96.1267948  16.9132018  84.6211676   6.5598020  24.0843248
  84.9300866   6.9126901  23.2498980  85.3766875   6.0929402  24.4413447
  36.6434169  85.1392746  15.8373094  36.6783476  84.8471451  14.9264455
  37.0350766  84.4210911  16.3343561  98.7303976  54.2295857  69.5584086
  98.7270788  53.8837071  68.6658910  98.9607123  53.4786340  70.1054457
  20.5153131  76.3695621  29.6495056  20.6274438  77.2309542  30.0515771
  20.5178189  75.7589912  30.3866839  17.2986138  92.9943943  10.7371891
  18.2479036  93.0825043  10.6516469  16.9645452  93.8846016  10.6269431
  13.3468974  71.5250254  82.6430702  13.1443059  72.3313189  83.1174850
  12.9897356  70.8275175  83.1927490   4.2507440  39.0818501  49.7043085
   3.4786960  39.1496730  49.1425514   4.6553028  38.2506227  49.4560623
  47.4231291  77.0213938  63.9078808  46.8473244  76.4066505  64.3626070
  47.5697708  76.6225386  63.0501842  59.8539448  93.0692863  13.9869809
  59.9218178  93.7718964  14.6334815  59.6966648  92.2805786  14.5060432
  33.4034872  88.9646339  20.5663991  33.9032054  89.7678185  20.7127333
  33.1628156  88.9976215  19.6405363  33.0739570  89.9491215  23.8936734
  33.0036402  90.7265759  23.3397365  33.9926767  89.6891117  23.8260007
  13.9907038  74.1086912  53.4645081  14.1610301  74.9707222  53.8441372
  14.8565316  73.7098932  53.3776951   1.7855974  83.2928181  49.1992378
   1.2523112  82.6020145  48.8060141   2.4591079  83.4773922  48.5446024
  33.3535099  64.3234301  51.9047499  33.2529926  64.0410852  50.9956789
  33.5933828  65.2480459  51.8432426  29.4297051  79.3486929  80.5860806
  29.1826224  79.8265600  79.7943544  30.3708363  79.2010260  80.4928112
  36.5727212  18.7717446  14.1536701  36.7754932  18.1762704  14.8751390
  36.9268095  19.6159753  14.4331861  14.2042530  62.6668119  62.1436882
  13.6822379  62.5506115  62.9375601  14.9367595  62.0594788  62.2476721
  35.6598973  61.4127541  57.9743433  36.3745499  62.0251942  58.1487751
  35.6388259  61.3346529  57.0205688  12.6205850  38.5923910  54.7027540
  13.0310321  38.1545901  55.4484701  12.4652267  37.8916693  54.0694427
  27.1582079  88.0769920  39.1843963  27.0089817  87.5675201  39.9808908
  26.9986629  88.9836407  39.4465995  46.7228937  89.8175812  31.0310435
  46.7097330  89.2516518  30.2591777  45.8548069  89.7119999  31.4202809
  16.1514366  53.6242485  34.0960336  15.5790484  52.9004049  34.3502951
  15.7328558  53.9999056  33.3214998  83.7473938  17.3277732  82.5820056
  84.1399447  18.0086204  82.0355830  83.1577942  17.8016969  83.1685201
  78.9765215 100.3386307  20.0321555  78.5349798 100.2247715  19.1905451
  79.5763826 101.0710239  19.8907673  58.8976245   2.1320542  56.1078167
  58.3504348   1.8723592  56.8490124  59.1394977   3.0391034  56.2948704
  97.0017036  95.3220272  46.7644072  96.7971142  94.6767998  46.0876036
  97.9144367  95.5595016  46.6008425   2.7960899  73.7168884  34.9004292
   2.0460781  73.1235218  34.8600507   2.4381831  74.5316648  35.2529573
  55.1530790  77.8716850  48.2039928  54.3062735  78.1029510  48.5856581
  54.9500227  77.6266956  47.3012304   8.4378856  85.3435898  48.8191557
   7.6593149  85.8556652  49.0378761   8.1000847  84.5869541  48.3399630
  80.3071313   4.4725140   9.4918680  79.9020486   5.3388699   9.5313638
  80.2207522   4.1269883  10.3803420  17.0855010  95.8054352  27.1579528
  17.6504767  96.3665104  26.6266918  16.4610827  96.4080715  27.5618935
  22.8082466  75.1524496  21.8716192  23.2549000  75.3925657  21.0597825
  22.5057483  75.9852076  22.2338963  13.5135913  75.4862499  45.2828407
  12.8617895  75.8202219  45.8991623  13.1467855  74.6588326  44.9712944
  31.7182994  94.8643684  53.0634785  32.2236776  94.0545464  52.9926443
  31.6571641  95.0269794  54.0047789  38.6294563  20.7364568  43.5263062
  38.9693236  21.4114770  44.1137266  39.1579397  20.8213147  42.7327442
  17.2147989  83.0659676  39.5853901  16.9677496  83.6902905  38.9031720
  16.4074981  82.9172897  40.0777197  24.3190479  53.3690834  31.9686508
  23.8024402  53.4592676  31.1678910  25.2133703  53.5819054  31.7019510
  21.6681361  52.1825027  24.7428131  21.1606932  52.4716806  23.9844537
  21.9538569  52.9935884  25.1632214 102.5487908  66.3442850  69.8192692
 101.8796428  66.9571924  70.1239300 102.0705249  65.5328655  69.6486950
  18.0612385  88.3740902  15.2868891  17.9670155  87.8832531  14.4705403
  17.2464168  88.2087517  15.7611883   6.6797090  47.0661926  81.9848728
   6.0842609  46.4791918  82.4508190   7.0544416  47.6201820  82.6696396
  84.6842532   5.2320012  48.2561207  84.0368895   5.9351167  48.2033062
  84.2496209   4.4760999  47.8612232  40.1695967  87.4231243  12.0034659
  39.2730379  87.0890617  11.9748926  40.0780201  88.3302593  12.2949469
   2.5992870  91.5556335  30.3235388   3.0523798  91.4881134  31.1640024
   1.8067414  92.0558357  30.5182052 105.4277285  87.8144264  42.9378080
 105.1448854  87.2538853  43.6603260 105.3990509  88.7011337  43.2971954
   9.8205733  84.4968224  30.4508495   9.0917337  84.2649269  29.8753095
   9.4569916  85.1532364  31.0451293  26.8655300  42.3643064  31.5846372
  26.0539818  42.6447535  31.1615872  27.3743248  41.9594765  30.8821607
 100.6116530  59.2370129  59.8694897 100.0551756  59.7348356  59.2705393
 100.0510975  59.0582895  60.6245184  44.1690736  27.6911839  13.0160654
  44.3349485  28.6324986  12.9647470  44.5452510  27.4271115  13.8557041
  52.4733071  16.1898812  41.5678120  51.9750433  16.4216718  40.7840824
  51.9736163  16.5698728  42.2904062   9.9716860  78.3911180  41.3010406
   9.9610847  77.4369764  41.2253666   9.1170883  78.6671638  40.9698391
  23.2303214  63.3827114  40.2820301  22.5728846  64.0712738  40.3815031
  22.8548527  62.6261902  40.7325077  35.9618115 103.4107876  57.7339268
  35.9999418 103.7712955  56.8480301  35.0435042 103.4991360  57.9891443
  74.6791105  20.0014981  30.1162601  73.8052850  20.2993974  29.8634505
  75.1149421  19.8063191  29.2866898  35.5618024  73.0696630  59.4087982
  35.6485057  72.6388216  60.2591467  34.8855996  73.7334299  59.5444489
  60.5457287  22.8307637  18.2038498  60.6286268  23.0241116  19.1376472
  60.7781248  23.6506471  17.7679443  15.8360660  80.9544373  29.6845150
  15.0447750  80.5874252  29.2903185  15.5129313  81.5437031  30.3661156
 109.7691735  28.1331587  65.0316048 109.3836796  27.2631264  64.9282932
 109.0886920  28.7341809  64.7283792  47.1626091 102.1249008  36.7754245
  46.8000078 102.5945187  37.5265622  48.0048370 102.5491905  36.6115117
  20.1926136  72.4828196  51.7263937  20.8034801  72.3289967  51.0056877
  19.3453026  72.6090956  51.2993670 104.8397239  82.3321819  34.1718984
 105.0403550  82.1060562  35.0801086 104.5743313  81.5040493  33.7719083
 108.2621991  66.8335295  65.4058456 109.1563419  67.1162748  65.2140236
 107.8368568  67.6118898  65.7656717  29.4916916  70.3694344  54.6035242
  30.3323460  70.8230925  54.5424461  29.4484782  70.0662518  55.5104113
  12.2321177  81.5368652  11.3305259  12.1579599  82.0107365  10.5021656
  11.6695547  82.0212746  11.9347632  45.4104042 104.4335365  28.4491801
  46.1767960 104.0531540  28.8783407  44.8378229 103.6864471  28.2753038
  45.9963179  83.2146454  58.6787271  46.5841913  83.3784103  59.4161701
  46.4986134  83.4802914  57.9084253  45.2448259  18.4353169  18.6529291
  46.1742006  18.4806165  18.8775253  44.8238389  19.0544328  19.2493343
  71.5801172   7.3303899  34.1827488  71.6558533   8.2141503  34.5425534
  71.3511782   7.4650010  33.2631302  30.4573822  76.4080572  37.4856162
  30.9787273  76.7557478  36.7620564  30.4536724  77.1095419  38.1368756
  26.9775867  83.3855820  64.2597628  26.7832780  84.2936420  64.4919252
  27.7893353  83.1874275  64.7266960  38.5520345   2.7021703  83.0417728
  39.4089250   3.0749234  82.8343487  38.5914590   2.5188359  83.9804268
  18.2083452  86.4184666  50.1166630  18.8179433  87.1279240  50.3198719
  18.5317743  86.0533047  49.2930841  14.0109837  76.2590361  39.3261480
  13.9301980  76.7995644  38.5403132  13.3665812  76.6220045  39.9337935
  10.5735731  82.8046227  53.5480833  10.2039051  82.2498131  52.8612328
  11.3137162  83.2436180  53.1289148  54.5150232  86.4847660  48.0619574
  54.0796709  87.0114994  47.3916960  54.2285395  86.8677902  48.8910866
  24.2400789  92.6094341  39.7324824  24.3086505  92.0124722  38.9873910
  23.3496451  92.9567146  39.6799898  53.3886623  93.1855488  14.4356990
  54.2612743  93.3473969  14.0771163  52.8832912  92.8516579  13.6945212
  63.3139086  82.8503132  28.6973715  64.1703081  82.9015827  28.2728863
  62.7601385  82.3924923  28.0649376  16.9618058  93.4748363  17.2761440
  16.2676632  94.1339207  17.2736275  16.6171980  92.7619934  16.7382407
  47.9708529  75.8658409  45.2870226  47.6560593  75.0132036  45.5872679
  48.1859493  76.3384676  46.0911274 106.8146514 103.1586170  26.1474586
 107.4021172 102.6108456  26.6680932 107.3938506 103.6268234  25.5461740
  50.9582472 101.5724659  51.2500811  51.2809753 101.5808678  52.1511984
  51.5392208 100.9641743  50.7932615  63.1435447  11.1715421  27.7942038
  64.0654044  10.9155473  27.7647352  62.6656537  10.3427228  27.8244042
  26.7293811  90.8432674  72.3593521  25.9106231  91.2256718  72.6749992
  26.8319058  91.1936474  71.4745045  98.2255177  10.4467591  33.2438087
  98.3514361  10.2788075  32.3099089  97.3455767  10.8187016  33.3037663
  45.4649930  10.9919747  53.4976721  44.6363227  10.5358800  53.3509779
  45.5839633  11.5301808  52.7151108  24.0649104  98.3221054  50.6549263
  24.7413731  98.9781475  50.8229494  24.4674373  97.4921227  50.9105444
  53.7503433  83.2285881  11.7100263  54.2240667  83.0825615  12.5288641
  52.8328323  83.0711174  11.9327664  43.6501585  22.2601422  65.8938313
  43.2830887  21.4407453  65.5620527  43.0141072  22.5623521  66.5421677
  33.4761453  82.8013515  50.8894444  33.2901597  82.2452927  51.6460419
  34.2819691  83.2620811  51.1231279  35.2918315  91.7821121  12.2695589
  34.5509696  92.3775291  12.1562886  35.3184533  91.6092205  13.2106388
  95.8724742   1.3385209  23.8166666  95.1462130   1.9493588  23.9417815
  95.9551339   1.2560758  22.8666115  30.3395367  81.8906689  28.8237286
  29.7955441  81.8174648  28.0395436  29.7617555  81.6305447  29.5411777
  97.7283927 103.5683346  74.1274405  97.0300981 104.2229462  74.1175795
  97.4023100 102.8789806  74.7059727  50.3932481  19.9895295  48.4413481
  49.9542527  19.1480073  48.5652304  49.6868388  20.6347951  48.4706688
  79.8781729  93.0322838  19.6330738  79.6272659  93.4147835  20.4738927
  80.8150864  92.8565502  19.7199357  31.0932016  84.1251755  43.9622593
  30.9367895  85.0503826  44.1513729  32.0356369  84.0689564  43.8045025
  50.1336765  76.6915846  54.1198254  49.2955303  76.4661074  53.7162161
  50.4556513  75.8655500  54.4807005  42.9771614  95.8359814  71.4935541
  43.2832432  95.4117775  70.6919384  43.1536627  95.1977253  72.1847153
  22.1338058 103.4541130  43.6895990  22.8447485 102.9624748  44.1008043
  22.3047733 104.3656731  43.9263439   6.0290408  76.2643147  38.8811064
   6.2368971  76.8289852  38.1366777   5.5461484  75.5317163  38.4985495
  64.0883398  94.7189999  52.8075933  63.4052896  94.0503120  52.7572966
  64.9057007  94.2232609  52.8564882  28.4504579  25.2316960  43.7937593
  28.5329519  25.8344850  43.0547905  29.1307430  24.5751008  43.6443472
  23.6388206  92.1529770  46.0539293  23.8740373  93.0257797  46.3687563
  22.8470159  91.9275475  46.5422583  25.3806186  79.9479771  74.8010397
  25.1524878  79.0200472  74.7451162  26.3174510  79.9764395  74.6066999
  53.7197208  91.8911552  41.5047836  53.8114643  91.7879391  42.4519682
  54.6169329  91.8613529  41.1725855  33.2277846  94.2924595  35.3201985
  33.5138273  94.1321945  34.4209051  33.9621305  94.0011024  35.8606362
  80.1984029  27.6338967  11.9720840  80.9524350  28.2042416  12.1216750
  80.4926877  26.7684182  12.2559381  25.8809738  36.6975221  66.0878944
  25.7003944  37.3387154  65.4005051  25.1196353  36.7454060  66.6660833
  70.4351740   1.0473546  32.7655745  70.3327756   1.9924745  32.8773046
  70.9835486   0.7771214  33.5021138  37.7747273  69.0502310  83.7443542
  37.0026135  68.7656307  84.2333031  37.4204564  69.5228577  82.9911232
  33.8201857  65.8425713  46.1035299  33.3298349  65.6514359  45.3039932
  33.7714291  66.7943668  46.1926413  46.9876003 101.4553547  53.4184647
  47.4186516 102.2132111  53.0234098  46.0533667 101.6572762  53.3667850
  84.7011237  10.8169087  28.1862020  84.0007405  10.2666959  27.8355360
  84.8351769  10.4948529  29.0775728  31.1329365  80.0970745   7.8082579
  31.0825038  79.3796873   7.1765584  31.6427398  80.7734585   7.3623490
  17.0040262 103.4996700  36.8570948  17.0242250 102.5477695  36.7585492
  17.2292542 103.6502552  37.7751517  46.0990047  91.4912605  12.9095209
  45.3584242  91.7809486  13.4422994  46.5878677  90.8989334  13.4808195
   9.2389435  91.6553688  15.3348994   9.9771506  92.1524906  14.9825430
   9.6232682  90.8271408  15.6222212  29.2080164  77.6165867  43.2362556
  29.4821525  76.9627047  43.8793087  29.7173238  78.3967161  43.4558821
 100.9494877  48.1862640  57.1071577 101.8682003  47.9196978  57.1408749
 100.6121445  47.9943609  57.9821491  44.7082710  84.6566868  54.2746067
  44.0095854  84.0055943  54.3389893  44.7608948  84.8599911  53.3407307
  59.2800379  86.2919998  63.3751011  59.3503952  85.5511284  62.7731037
  60.1532459  86.3725662  63.7588310  30.5204892  84.5897675  33.5558939
  30.4560542  85.4764271  33.9107442  30.8680773  84.7101212  32.6721931
 108.6678914  86.6317578  90.8880664 108.6935095  86.0819074  90.1049717
 107.7878407  86.5035649  91.2420512  49.3741179  66.0776424  25.3832078
  49.2045307  66.5586138  26.1932325  49.1013384  66.6760874  24.6877313
  31.4553428  57.0470905  48.6942339  31.7753458  56.2209415  48.3318710
  30.6084371  57.1829176  48.2693434  26.4649296  85.5835438  24.4487286
  27.0771551  85.8486652  25.1351118  25.6190491  85.5229092  24.8926234
  31.1579418  98.2050133  25.1819444  30.8119988  98.9822388  25.6206608
  30.4846525  97.9709721  24.5430875  34.0835333  79.0807915  49.9285555
  34.9079657  79.5392418  50.0909328  33.6538696  79.5953703  49.2453098
  19.9162900  51.1909962  44.5650291  19.6345127  51.9971371  44.1326284
  20.4422045  51.4886141  45.3073740  13.2154126  39.5671197  80.7408575
  13.0932374  38.7232324  81.1757699  14.1315694  39.7906896  80.9048817
  65.2708559  19.8692426  35.9559107  65.2110295  18.9239510  35.8178568
  64.5979671  20.2379426  35.3836179  49.8739271   8.8638982  61.4934874
  50.7632642   8.6871632  61.8002081  49.8988824   8.6630353  60.5579329
  39.5342922  64.3624735  60.2450228  39.0828586  63.9715576  60.9931040
  38.8592672  64.4377756  59.5705605  15.9764957  98.1605625  19.5942056
  15.2793539  98.8044548  19.7191954  16.1076331  98.1304550  18.6465096
  59.2019939  69.7599983  25.7053876  58.5562611  69.7362661  24.9992013
  58.6850595  69.9049950  26.4978433  47.2711325  98.8623905  71.7049980
  47.2865152  98.3549213  72.5164604  46.4426804  98.6239052  71.2890339
  75.1753073   0.2573213  25.0678492  74.5155792  -0.4353515  25.1024342
  75.2759533   0.4458531  24.1348124  53.9618521   2.9022607  40.7133913
  54.6501427   3.4215650  40.2976894  54.2693918   1.9983968  40.6449604
  86.7557875  55.0421353  84.5975599  87.7074758  54.9400731  84.6078107
  86.6147081  55.9832593  84.7005639  61.4118557  36.7412194  75.5941582
  62.1807389  37.2984227  75.7148838  61.7451744  35.9687432  75.1376438
  46.2075424  86.1094093  24.1509247  46.8022633  86.1030388  24.9009228
  46.1325407  87.0334244  23.9125633  24.0002656  94.6865368  47.7891588
  23.5004544  95.4964066  47.8917789  24.9027491  94.9350834  47.9891157
  56.1615722  24.0530785  48.2314062  55.7454734  23.7913617  49.0527487
  56.9364981  24.5456227  48.5018110  23.9801097  65.9132624  55.9236336
  23.9780354  66.7707968  56.3489103  23.1138587  65.5512857  56.1102200
  50.5793667  82.0527363  32.7711320  50.3854275  81.4898396  33.5206461
  50.0135183  81.7245102  32.0723367  24.5361304  89.0832329  35.3581047
  24.9359035  88.2294273  35.5237174  23.6900425  88.8783932  34.9601007
  79.5020060  12.3908338  37.1221900  79.1984277  11.8842896  36.3688731
  78.7411408  12.4386319  37.7010036  53.4517908  74.9420500  53.3869457
  54.3679571  74.6648407  53.3822393  53.3329773  75.3619385  54.2388916
  32.5375819  96.1874866  50.6830692  32.5427675  95.6435871  49.8954296
  32.4982309  95.5615234  51.4061499  21.3159060 103.4410000  24.2105246
  20.8130646 103.2368469  23.4220433  21.6397166 104.3298721  24.0646338
 110.2699988  97.1519089  30.3789330 110.6169304  96.4237213  29.8635483
 110.6302875  97.0179462  31.2555623  32.7133656  76.9197178  21.2802339
  32.3843551  77.3641062  20.4988861  33.5163927  77.3904991  21.5032649
  58.4031873  10.5157384  26.0621285  57.5613146  10.3207406  25.6504726
  58.3372264  11.4356908  26.3181829  36.0764599  76.1678076  40.3989029
  36.0866523  77.1160841  40.2688885  35.6074047  76.0442257  41.2240982
  53.1374836  78.3265781  11.9229734  53.3243275  79.2355490  11.6882539
  53.9996433  77.9227018  12.0219684  29.7783566  89.0122986  40.7382822
  29.5840502  89.3050575  41.6286564  29.2048621  89.5396996  40.1822329
  11.1434603  82.0491600  20.7281351  11.0885119  81.4637280  19.9728274
  11.8801308  81.7130375  21.2385964  21.4847708  97.2864151  67.8575706
  21.1354089  96.8182945  67.0992565  21.0522079  96.8813229  68.6092520
  55.0989628  73.3123875  50.9111357  54.2561817  72.9555035  50.6308126
  55.0140142  74.2569971  50.7817841  60.3898191  88.2157421  71.3931751
  59.5360136  88.4213448  71.0124063  60.6597662  87.4090195  70.9543657
  87.9510073  17.9401502  21.2182903  87.9730658  18.3932313  22.0611787
  87.1354775  18.2318791  20.8108211  11.4765298  68.0555916  20.0495219
  10.7841158  68.1726599  19.3990684  11.9202876  67.2499084  19.7845960
  30.3781605  97.0940399  44.2265320  30.1015162  98.0072594  44.1507769
  30.7377028  97.0252800  45.1109695  29.4628978  77.0471764  32.1760178
  30.1472425  76.9208097  31.5188003  28.6636329  77.1815681  31.6667581
  64.6706676  72.7018452   0.7843890  65.0188351  72.1852493   0.0576599
  64.5395088  73.5755157   0.4159697  14.0763116  81.3094330  48.9004564
  14.0070212  81.4610863  49.8430252  15.0174224  81.3135529  48.7257481
  22.5090504  84.8520565  26.8362212  22.8078365  85.1608372  25.9808755
  21.5542412  84.8992443  26.7877555  84.7249799   1.1778268  69.2298174
  83.9069276   0.8381947  68.8669443  85.1227860   1.6653546  68.5085058
  14.8906934  95.9511852  89.8689842  15.6837833  95.9947681  90.4031563
  14.2435098  96.4580917  90.3593159  40.6540632 101.8890762  33.8105273
  40.2874327 101.4294243  34.5658612  39.8976994 102.0791435  33.2555366
  41.0759544 104.2043018  38.6934996  41.8251610 104.2025757  39.2892504
  40.3116989 104.2089462  39.2698002  49.7559309  98.4347153  40.4133129
  49.6333408  97.5452423  40.0815916  49.0904760  98.9529610  39.9607396
  25.0030565  87.9028606  18.7677836  24.7775173  87.9940033  19.6935582
  25.4775691  87.0730782  18.7174344  63.4648228  77.7979183   7.1308833
  64.1824245  78.0690098   7.7034128  62.9502869  78.5941076   6.9983685
  42.6796150  96.9532204  56.3323021  43.2514524  96.9061089  57.0984745
  41.9180679  97.4496746  56.6319847 100.0998072   1.5383824  53.1026077
 100.6333594   1.1200723  53.7783051  99.5654397   0.8288106  52.7459812
  41.8338680  64.6246624  20.8168936  42.3569059  65.4053211  20.9991884
  41.6522741  64.2512560  21.6793442  35.6393147 104.3101788  65.8339596
  35.1890612 104.8845100  65.2145576  36.5697837 104.4589424  65.6656456
  58.1015544  11.9278249   0.7668207  57.2023682  12.1837529   0.5613997
  58.5457759  11.9123277  -0.0809159  39.6829963  73.9044476  59.2835283
  38.9666677  73.6523914  58.7007952  39.6766853  74.8615408  59.2707253
  76.5004330  16.5081605  48.4744406  76.9888215  16.7497071  49.2614365
  77.1698289  16.4132604  47.7968454  34.1085505  81.4414215  68.2157230
  34.3108344  81.5268707  67.2840500  34.1495991  80.5000973  68.3843756
  69.3323730 100.9813320  81.1949698  69.6062015 100.0962317  81.4354882
  69.4214081 101.4873612  82.0025823  56.6014957  83.9597511  72.3380566
  57.2198009  84.4884109  72.8424835  56.2160969  84.5734882  71.7127323
  75.3485392  30.8884069  85.8397481  74.4832083  30.8861085  85.4305670
  75.9389914  30.5783959  85.1530961  51.6718578  82.0056725  62.3182201
  51.1837196  81.5928078  61.6058254  51.6831684  82.9359627  62.0931482
  59.8876076  22.0488175  39.9248934  59.5079784  22.9169473  40.0607395
  59.2771511  21.4503964  40.3555584  14.4025409  68.3554316  64.1787386
  13.7941015  67.6422310  63.9853954  14.6196711  68.7238073  63.3223629
  15.0098825  86.5127277  40.6465578  15.9582293  86.6197109  40.5729055
  14.6849346  87.3899269  40.8494329  67.1935177  89.5057011  34.0306664
  67.0039320  89.3227768  33.1104350  67.6335239  88.7162971  34.3460679
  48.1236045  26.3049230  40.7872391  48.3982723  26.7735394  41.5753937
  47.7793591  25.4725942  41.1112022  44.0229082  99.8668957  57.6296520
  43.0843592  99.9729919  57.7849007  44.3148851 100.7277393  57.3297739
  23.1419230  92.9517555  43.4694004  23.4226656  92.7386379  44.3593407
  22.1856999  92.9475212  43.5124254  20.4758477  68.3949041  47.2477484
  19.9116814  69.0202475  46.7928934  21.3648844  68.6544752  47.0059490
  52.4328852  79.0174866  36.5122581  52.2399473  79.6045828  37.2432327
  53.1055832  79.4754887  36.0083270  74.9385552  10.8474168  26.3136220
  75.0012641  10.1812180  25.6291652  75.5372624  11.5385922  26.0306859
  90.9313779   3.4852036  49.4922972  90.4965119   3.9487847  50.2079868
  90.6260733   2.5814923  49.5718288  48.1930272  42.2382363  28.1813884
  48.0732410  43.1056413  27.7947640  48.2053237  41.6419324  27.4327207
  28.7226129  88.7386417  36.7821050  28.3537722  88.1992245  37.4815464
  28.2978439  89.5900059  36.8869138   6.4412732  56.0688516  83.9084974
   6.2794109  55.8581468  82.9889128   6.1495681  56.9757768  84.0013460
  24.2687249  88.9448643  54.1468668  23.5421491  88.3224392  54.1168880
  23.9973617  89.6578121  53.5686827  35.8842063  74.6388340  26.2464118
  35.6920099  74.1849756  25.4258585  35.0444055  75.0096893  26.5173888
  29.5536590  57.8885508  53.6773634  28.8087988  57.9151726  54.2779493
  29.1779804  58.0916262  52.8207064  16.1839831  95.6028366  63.6863089
  15.3102386  95.6338692  63.2966471  16.4710402  96.5158176  63.7037039
  74.7599602 102.7252865  46.8433189  75.0394106 101.8976212  47.2346020
  74.3998528 103.2265759  47.5749445  28.3097993  13.3674916  50.5623579
  27.7176462  12.6161488  50.5296278  28.2135289  13.7097844  51.4510584
  17.3147225  91.9125462  22.1452022  18.0055571  91.6832638  22.7668214
  16.5550566  91.4069271  22.4341488  15.4139280  49.5396852  36.2205052
  14.9548614  48.7498331  35.9347987  16.2871838  49.4613314  35.8364272
  84.7097878   0.7905301  34.5224929  84.4336467   1.1835679  35.3504419
  85.5944876   0.4677781  34.6938729  21.3532186  46.8319607  58.8751554
  20.9839630  47.4798679  59.4752359  20.5927372  46.3636827  58.5307503
  40.7014751  80.6386852  43.4052181  41.0902643  81.5003395  43.5556746
  40.2132893  80.4528332  44.2073154  38.2864094  96.5389729  44.6605301
  39.0775013  96.4087868  45.1834631  37.6845980  95.8589554  44.9632502
  33.8058901  73.3629894  43.3815336  33.0228877  73.0099630  42.9590273
  33.5920811  73.3700180  44.3145227 109.2229323  17.8524503  14.6398473
 109.0863280  17.2387132  13.9181089 110.0538544  18.2814225  14.4354486
  42.8620625  84.9365234  19.5676792  43.3579206  85.2108669  20.3391004
  41.9457531  84.9985409  19.8374188  47.5102966  33.8463982  62.1904421
  48.2320278  33.3924779  61.7553711  47.3413222  33.3284577  62.9774714
  13.3778822  79.1428614  30.3036761  12.4622512  79.2048740  30.5757189
  13.4464490  79.7369480  29.5562887  81.5239911  11.3231095  33.0065989
  81.9967370  11.7001733  32.2645974  80.9534030  10.6613645  32.6157618
  49.8141424   2.1607026  48.9458036  50.1921909   2.2424706  49.8213720
  50.0390773   2.9827603  48.5100746  41.2172318  88.1032562  39.5086432
  40.2909565  88.1391525  39.2699933  41.2848806  88.6528683  40.2893972
  57.8931856 103.5886574  35.2149367  57.9684067 103.2902241  36.1213112
  57.0430374 104.0268517  35.1768255  43.5854340 103.2239056  15.7796073
  44.0616703 103.3072758  16.6057312  44.2038536 103.5273170  15.1149762
  32.9816914 100.4232311  54.5956659  33.6578345  99.7460079  54.6162605
  32.5959349 100.3500748  53.7227011  39.4980931  83.8183689  40.8001947
  40.2534771  84.4062710  40.7986116  39.8184514  83.0156708  40.3887749
  82.5360493   8.7355908  23.4769392  83.2205825   9.3982610  23.5692358
  82.9932504   7.9019460  23.5875392  40.8743286  75.0656557  37.6591635
  41.6897678  75.5512047  37.5345159  40.3559256  75.6150341  38.2471013
  70.2038388  -0.1227561  54.7035027  70.0993662   0.6833085  54.1979599
  71.1478906  -0.1974193  54.8428679  25.4233599  98.3375931  28.5495043
  25.9846234  98.3048725  29.3241954  26.0326886  98.3221722  27.8114581
  25.4163027  74.9111652  67.8685522  26.3696814  74.9793768  67.9199982
  25.1240754  74.9476480  68.7793207  61.6805935  87.9878998  57.4859762
  62.5785208  87.6563644  57.4792671  61.7714882  88.9217472  57.6754475
  14.3431389  81.7030525  25.6639910  13.9282799  82.5521183  25.5116868
  14.1000569  81.4752293  26.5613437  22.0432210  53.3940792  41.8993807
  21.7346430  53.1867695  41.0173225  22.9337859  53.0445242  41.9299030
  17.0958579  76.4564991  55.3338337  17.4482691  75.9727764  54.5868063
  16.7012024  77.2386122  54.9481058  39.3612313  59.3823242  51.3260269
  38.4911466  59.7321749  51.1342287  39.3996549  59.3465471  52.2817850
  10.9084737  65.6932449  34.3158984  10.5265486  65.8115721  35.1855898
  11.8454087  65.5840921  34.4785929  78.7584500  33.7816247  32.4288702
  77.8637461  33.9841470  32.7022147  79.3000226  34.0318498  33.1774139
  31.0377693  92.2405529  62.6583958  30.4740977  92.5657940  63.3603334
  30.8188772  91.3114929  62.5864840  43.0482101  83.7735271  63.6253881
  43.8884830  84.2145824  63.7504482  43.1907463  82.8876495  63.9587736
  46.7186499  80.3785324  11.7664719  47.2125101  79.7729635  12.3193014
  45.9288549  80.5735016  12.2708941  40.7135487  71.9875479  26.0932207
  41.3237619  72.5596809  26.5585494  39.9499559  72.5392437  25.9235525
  65.9049511  94.0415764  45.4075909  65.6063652  94.9493027  45.3517580
  66.4935732  94.0290546  46.1623096  26.2263465  87.2890472  53.0690908
  25.6158662  87.9902267  52.8412914  25.6675005  86.5756702  53.3773470
  45.4002927   4.4552525  60.5088854  45.2977882   3.7688168  59.8496962
  44.6064560   4.3972024  61.0405684  19.3904817  94.8100090  38.3297586
  18.7767172  94.6230507  39.0400910  19.1392434  94.2060280  37.6309609
  44.3822813  74.4435549  43.3470678  44.9900961  74.3466949  44.0801525
  44.7416306  73.8799286  42.6619244  37.4296403  82.6010227  20.0111938
  36.7833066  82.8560066  19.3528104  37.5440955  81.6594601  19.8823929
   4.0384057  88.0815411  30.6381917   4.3510738  88.9484692  30.8968687
   3.0937099  88.1127453  30.7892132  64.9117689   0.5744752  65.9089708
  64.9250917   0.7159432  64.9623728  65.1961641  -0.3327838  66.0195780
  32.5183439  88.0709362   8.0655742  33.2822061  87.7634239   7.5775349
  31.8247581  88.1355000   7.4090689  21.8011022  74.7254276  65.0565195
  22.3091173  75.0307226  64.3048906  21.3501716  75.5076027  65.3744650
  27.7519059  64.0001631  35.6437254  27.0394993  64.6187687  35.8050680
  27.3379278  63.2747650  35.1761174  10.9445234  24.5854016  88.2667444
  10.4702993  23.7573691  88.1911967  11.5258594  24.5987149  87.5064120
  70.2055550  75.8628511  37.0306659  70.1986885  75.6556082  37.9651356
  69.6323919  76.6252422  36.9501972  47.5784683  75.7240343  58.7515211
  48.4243536  76.0660839  58.4621763  47.0043802  75.8320570  57.9932404
  34.0169287  61.7285919  65.5336237  34.3720841  61.0897589  64.9155760
  33.2283711  62.0626974  65.1060915 109.5055311  76.6739416  28.6741757
 109.4236664  75.9329319  28.0738163 110.2034859  77.2105742  28.2985210
  44.4942379  33.7652373  68.6091042  45.2255583  33.9287233  69.2046499
  43.7206364  33.7700105  69.1728020  32.4203420  73.5752058  45.6820393
  32.7055836  73.1223106  46.4756107  31.5250874  73.2678843  45.5395412
   2.6195855  29.1448995  86.4964697   2.2738571  29.4309064  85.6509492
   2.9184337  28.2487126  86.3422773  71.4558172  90.5498886  37.7518392
  70.7473755  90.4509354  37.1157980  71.4494276  89.7306442  38.2468534
  25.3410769  50.0370407  25.4126024  25.8093452  50.5489540  24.7531295
  25.0251436  50.6869078  26.0403681  88.5739856   5.0288781  61.2431526
  88.3838801   4.6202954  62.0876312  89.1300015   5.7775220  61.4590502
  52.9301064  18.8061150  54.2043304  52.3247485  18.2715234  54.7181273
  53.6837916  18.2358369  54.0527582  68.1460719  19.4241628  17.7536094
  67.5980763  18.6904344  17.4750912  67.6809339  20.2014455  17.4442434
  46.6112471 101.9032383  16.8950105  46.6608000 102.8540802  16.9933975
  47.2818995 101.6944599  16.2447274  44.3457031  89.3994713  35.9755945
  43.7429285  90.1197433  36.1602736  45.1920938  89.7060776  36.3009334
  77.8475814  14.9348840   7.1299863  77.5727658  14.0581044   6.8617260
  78.7351470  14.8148354   7.4676996  48.4877639  34.2916688  29.5527792
  47.6168995  33.9341840  29.3794727  48.7857048  34.6186837  28.7039423
  99.5957466  93.9350700  38.2168484  99.1736194  94.6906757  38.6256289
  99.2702468  93.9367962  37.3166919  66.3510923   7.4430665  39.5317602
  66.4412360   8.0854901  38.8279128  67.0305257   6.7933663  39.3515038
  49.8571587  74.6666956  51.9401073  50.5464363  74.6137142  51.2780523
  49.3485785  73.8645649  51.8210936  39.3396759  97.5642586  17.2520065
  39.1825771  96.6321754  17.1011221  40.0002432  97.8040981  16.6021132
  74.0506368   8.3487042  47.0227194  74.0972142   7.6765260  46.3428402
  73.1763344   8.7263307  46.9266748   6.1802240  46.4757176  90.6552802
   6.3293786  45.9616109  89.8617582   7.0393081  46.5235063  91.0747137
  85.1131443  28.4441491  86.2496582  84.4388167  28.8068028  86.8241165
  85.8819214  28.9923020  86.4069552  29.4280577  74.2949486  70.6879854
  28.8534832  74.7037840  71.3352489  30.2921486  74.6660852  70.8664131
  89.1818003  19.2315205  29.8250914  88.5744147  19.8939999  30.1543713
  88.6269097  18.6126431  29.3504190  79.5360665  28.5312566  51.2896395
  80.4396062  28.2358941  51.4019299  79.0705590  28.1702527  52.0441008
  91.6629987   8.3327969  68.9903784  91.6762643   7.3766431  69.0331221
  90.8190589   8.5429963  68.5906124  94.1095691   1.7820271  65.9296608
  93.8249116   2.5334176  66.4498663  94.6901326   1.2930879  66.5128613
  45.3325462  86.4966297  27.1252036  45.3007507  85.5511284  26.9794583
  44.4150543  86.7694473  27.1285629  88.8677506  16.8523606  88.3887196
  89.5874839  16.2571057  88.1792068  88.5567765  17.1610269  87.5376892
  34.4911456  98.7871933  29.5709801  34.9506140  98.8271332  28.7322164
  34.2174292  97.8734493  29.6508598  74.0091562  86.2528801  62.4299145
  74.6516991  85.7507706  62.9311657  73.6654472  86.8923759  63.0537224
  58.4439850  96.0150909  58.1771612  58.2555389  96.6887474  57.5237799
  58.2997084  95.1881886  57.7171040 106.3914802 102.6208591  36.2353158
 105.8460351 103.1637955  35.6661582 106.5031778 103.1433582  37.0295119
  54.3288040  97.8144550  40.3778601  55.2200794  97.9784870  40.0697279
  54.0507889  97.0322418  39.9013376  65.3883696  82.0083523  43.9561462
  65.8121347  82.8594494  44.0669775  65.9165096  81.4075661  44.4818354
  98.9697079  19.6844396  17.5395131  98.9063411  18.7302884  17.5819457
  99.8583417  19.8789510  17.8373802  84.3101597  75.6466866  40.3059006
  84.9706459  75.6543303  39.6131325  84.5302773  74.8822403  40.8382559
  39.2869854  80.9728336  29.8416448  38.8622022  80.9491920  30.6991005
  40.1929045  80.7176113  30.0160289  30.8140087  93.2691002  14.2651010
  30.4393387  94.1488838  14.2222381  31.6765285  93.3560562  13.8592339
  68.6741595  17.0297536  55.6705570  68.7365322  17.9360970  55.3690815
  69.2736344  16.5464219  55.1020002 100.5883984  26.0158643  22.9792929
 100.9321885  25.1310929  23.1026149 101.3660149  26.5733823  22.9523993
  61.9471455  89.0280056  20.5785513  61.4461660  88.9327431  21.3885999
  61.4803934  89.7033310  20.0862932  46.1348057  86.0368443  48.8200283
  46.3206625  85.6470776  47.9657602  46.7843866  85.6492329  49.4065714
  40.5124378  63.7641096  52.7626276  41.1259365  63.3008862  52.1922970
  40.3242588  63.1432533  53.4664440  65.0452356  35.3312310  22.5927854
  65.5672817  34.7993668  23.1934643  65.2931599  36.2334832  22.7945423
  72.1675253  98.1887436  11.3296878  72.6770735  98.6373997  10.6549275
  71.2565994  98.3901501  11.1154723  56.9923544  72.6923990  48.8605595
  56.4074898  72.2883272  48.2195520  56.4451694  72.8233051  49.6349525
  89.1720347  21.6570100  39.1285968  89.2309003  22.5948724  39.3107080
  89.5006471  21.5655908  38.2342315  68.9097691  97.4686527  18.9412677
  69.6759176  97.4686813  19.5150709  69.2665148  97.6163101  18.0653882
  72.6891713  31.4701661   7.0905858  72.6347236  30.6701764   7.6133382
  72.8107672  31.1617192   6.1926425  25.5133025  27.5483331  32.7468562
  25.7732241  26.8990907  33.4004259  26.3153021  28.0374345  32.5629878
  17.4200368  90.5084324  64.8272896  17.3644376  89.9037361  64.0873671
  16.5685189  90.9453201  64.8440790  23.0180025 101.7787361  36.8804336
  23.9303684 101.5425014  37.0477962  23.0564833 102.3593807  36.1204267
  55.8639662  33.7024697  29.4076967  55.4465954  34.4220647  29.8812079
  55.4337423  33.6969861  28.5526466  86.5145211  30.6654557  36.0274529
  87.3934417  30.8826550  36.3381863  86.0926537  31.5136250  35.8900666
  89.6603870  95.1831722  62.7574444  89.7200298  96.0005379  62.2628880
  89.7902203  95.4447556  63.6690044  47.2103167  87.3896027  58.5353899
  47.4464321  87.5209808  57.6171207  47.7548313  88.0142879  59.0144491
  33.4189749  87.2586727  57.4632311  33.3366537  86.8133259  56.6199589
  32.7005911  87.8912067  57.4711752  40.5629969  94.9493694  88.1085587
  40.8354139  95.8103848  87.7912712  39.7561288  95.1177216  88.5952282
 101.2540436  77.2601223  85.9414673 100.8249092  77.5485611  85.1359367
 101.8091869  76.5295887  85.6687450  98.9594703   0.2401265  64.4727993
  99.8529630   0.5272588  64.6611023  98.6300616  -0.0831977  65.3113604
 105.3306918   8.9983376  70.9178686 105.4297595   8.1220158  71.2899923
 105.9829717   9.5282658  71.3760662  67.4278002   5.9888181  29.7655606
  67.0816331   6.6936883  29.2182350  66.6516356   5.5785760  30.1470065
  30.5117393  96.4986992   1.0318644  31.3367033  96.1758518   0.6693202
  30.7715535  97.0188332   1.7922544  88.7922573  71.7047215  51.9220352
  88.3961296  70.8888817  52.2281790  89.5076942  71.8688965  52.5363874
   5.9180733   6.2679204  32.9192400   6.5722176   6.2276086  33.6168766
   5.0865790   6.0935410  33.3601952  90.2908854  27.0051202  47.1695995
  90.6527762  27.7189168  47.6947355  91.0340600  26.6818818  46.6602421
  39.5122075  88.6631775  17.8521991  39.0427065  88.9863873  18.6211848
  38.8658285  88.6931133  17.1468413  37.2725320 102.0390224  30.3030801
  36.4076281 102.4367332  30.4030609  37.1255708 101.2872982  29.7290230
  75.7274728   0.3959569  34.6146965  75.3284602   0.9646043  33.9561701
  75.5244808  -0.4916373  34.3193841  61.7620735  15.5239495  33.0237293
  62.2383075  14.9273213  32.4462605  61.3485889  14.9521645  33.6705041
  77.5567107  32.4931344  20.9311128  76.6660600  32.2042474  21.1299086
  77.5247388  32.7514275  20.0099754  26.9622755  90.3031254  51.2187481
  26.2277007  89.6953392  51.1337614  27.1996450  90.5195332  50.3170538
  91.7916207  28.3702382  31.7094088  90.8894353  28.6514481  31.5570569
  92.2720294  28.6803349  30.9417653  88.4549141  92.5383091  38.7354326
  87.6896000  92.9893589  39.0919042  88.6925507  91.9009781  39.4089079
  41.6565037  85.5414200  41.1956787  42.5782061  85.6659317  41.4219284
  41.4325523  86.3104057  40.6715202  37.9261780  88.8613224  33.5849786
  37.9711294  87.9565430  33.8941455  38.8366437  89.1565990  33.5751629
  57.2479153 100.8207321  15.1979351  57.6550674 101.6538715  14.9605823
  57.0365953 100.9134769  16.1268997  15.2198793  47.7296245  11.0577413
  15.4602529  48.3344067  11.7596551  16.0441257  47.3109901  10.8095475
  88.1098752  28.3264169  44.9329948  88.1330638  28.5093221  45.8722687
  87.2131257  28.5342893  44.6705723  22.4889898 102.9196167  39.5139217
  22.5502229 102.3170185  38.7727284  21.7335606 102.6092434  40.0131559
  92.1865229  10.5314549  64.6431208  92.7703147   9.7748479  64.5886087
  91.4595322  10.3156003  64.0590620  30.0172853  93.8643265  20.1793957
  29.0964127  93.7231827  19.9596155  30.0019598  94.1837978  21.0815811
  16.9248402 102.2945023  41.0059595  17.5046766 101.5958500  40.7027960
  16.1047709 101.8493843  41.2194872  77.2863250   8.0262479  27.1132374
  77.9511266   7.7592763  27.7480626  77.7859502   8.3004102  26.3441849
  90.9335713  13.7272080  22.3365498  91.8802266  13.7961778  22.2127843
  90.5930047  14.5771798  22.0576406  63.4920316   1.9725427  22.2481227
  63.0730300   1.8810376  23.1038666  62.7654557   1.9775018  21.6249895
  41.5242052  85.7341003  69.3273878  41.6659880  86.5475941  69.8114920
  42.4026299  85.4487228  69.0760756  92.3550034 100.1382637  19.7959292
  91.4271927  99.9861145  19.6163726  92.6402283  99.3534851  20.2639008
  60.8795552  31.0951241  64.0794420  60.6461410  31.8105229  64.6710062
  60.0531773  30.6408700  63.9151812  92.3081784  44.3356332  60.3414202
  91.9134145  43.5209569  60.6523705  92.1778350  44.9544629  61.0599566
  65.6506348 104.2033482  46.6804314  66.1312056 104.8644352  46.1821890
  66.3304996 103.6995792  47.1279049  53.0753565  92.0805550  58.3181143
  53.7266636  91.3832283  58.2421827  53.1883764  92.4181366  59.2066526
  53.5965633  89.6267986  16.0552120  53.9922619  90.2483368  16.6662288
  52.7160549  89.9694061  15.9017158  48.2261324 102.1924019  86.0409451
  48.0206251 103.0919361  86.2955856  49.1689444 102.1120358  86.1854267
  23.0861235  74.8578358  55.1607084  22.1785641  75.1303005  55.2961111
  23.2796860  74.2903519  55.9068537  25.9983587  90.4201889  41.0270643
  26.3358426  91.1300945  41.5732908  25.1065516  90.6899834  40.8076954
  83.8538890  12.4095925  46.5238094  84.1813521  11.9987306  47.3239279
  83.2579903  11.7614087  46.1483145  70.5672722  18.8872250  14.7372019
  70.9394698  18.3972844  14.0039492  69.7824673  19.2994222  14.3760788
  94.8206525   7.1206674  25.1018381  94.0757661   7.0266351  24.5080924
  95.1173453   8.0215653  24.9730730   5.1987787   8.0869397  60.7401276
   4.6083924   8.4395417  60.0742865   5.9708496   8.6512288  60.6987000
  56.6260879   9.9040135  44.6181822  57.1936207  10.6053170  44.2983055
  55.7412498  10.1891908  44.3902206  71.8970776  91.0188961  50.3251982
  72.6840067  91.5308094  50.5120468  72.1596527  90.4236984  49.6230412
  53.4570789 101.3060570  18.4919453  54.1570950 100.7213020  18.2016408
  52.7940083 100.7217884  18.8596475  87.4088530   6.9202813  17.8715575
  86.5712743   6.6775521  17.4768817  87.9889684   6.1851224  17.6734567
  82.6352267   7.0080193  47.9271126  81.7444663   6.7293366  47.7147198
  82.5222068   7.6783189  48.6010265   2.0245042  81.8127251  43.8827753
   2.8593287  81.3451004  43.9078569   1.4306605  81.2182426  43.4243250
  59.0562534  79.3542051  45.9731293  59.0164423  78.8188553  45.1806307
  59.1871262  78.7239695  46.6815805  78.9455418   6.8504056  28.7964129
  78.6264615   5.9893426  28.5262418  78.9846902   6.8024453  29.7516084
  63.9117889  24.8983487  45.1516581  64.6268611  24.4750985  45.6268072
  64.3449454  25.5404672  44.5892668  58.7445717  22.1954163  47.3616552
  59.6426015  21.9946011  47.0981264  58.8217168  22.9910478  47.8882122
  66.6307692   7.8420743  25.9537601  66.1951332   7.0670136  25.5991650
  67.5649171   7.6475533  25.8778143  66.1132889   0.1613912  54.5433998
  66.5893988   0.0303754  55.3633881  66.3552217   1.0445031  54.2644358
  79.5222764  26.1532315  35.6368589  78.8287215  25.6629666  36.0782790
  79.1927771  26.2868127  34.7481394  49.1417694  82.2240353  12.2373891
  49.5469999  82.4544334  11.4013660  49.2021322  81.2695980  12.2778416
  72.4591069   5.7420358  42.6682043  73.4075193   5.7088479  42.7932882
  72.0965056   5.5241593  43.5268593  29.3843985  82.2784519  44.0311718
  30.0746727  82.9415035  44.0415716  29.0689206  82.2469521  44.9343395
  66.1006737  85.2252293  52.3696470  65.9579420  85.4109383  53.2977486
  65.2736378  84.8468876  52.0711422  96.2552075  12.2282800  81.4873219
  95.4574065  11.7039117  81.4181232  96.9462972  11.5904817  81.6657639
  29.9168634  77.7575397  25.6978989  30.6439471  78.3800459  25.7062340
  29.2245173  78.1912327  26.1966944   4.9617282  75.7276773  21.3126636
   4.3023095  76.3481331  21.0021353   4.5524350  74.8691559  21.2047148
  30.7993150  98.1611538  15.5444109  30.1972961  98.4887695  16.2125993
  30.7467508  98.8051414  14.8381925  87.0827203  11.9543942  29.4666314
  87.7434830  12.5053128  29.0469694  86.6437106  11.5115842  28.7403965
  83.2864432  29.3095788  43.3637905  83.3170419  28.3613881  43.2364178
  83.6059098  29.4417676  44.2563725  52.7342181  11.4185914  57.8970528
  52.9621379  10.6553658  57.3662281  52.9463177  12.1686849  57.3415327
  62.7750349  94.0438747  42.8012466  62.4759054  94.9391651  42.6424694
  62.9147005  94.0022469  43.7472868  94.5509677   7.6138123  77.0981836
  93.6336617   7.8173551  77.2808170  94.9740414   7.6237401  77.9567528
  78.5817103  14.8928746  24.1819811  79.1596942  14.1335782  24.1069055
  78.9774184  15.4280099  24.8699331  85.5047421  28.4730348  29.0307164
  84.6900086  27.9781064  29.1172004  85.2705722  29.2272099  28.4897685
  12.1076620  72.2321796  55.9159660  11.7708039  71.8481016  55.1064968
  12.0782685  73.1766653  55.7632780  90.5169015  17.3646649  39.7281003
  89.6613316  17.4040421  39.3006897  90.4613690  16.6032418  40.3055000
 101.4300923  18.2090577  26.8828535 101.3116841  17.4442300  27.4460983
 100.5720572  18.6331757  26.8713379  86.7295985   3.4559831  14.6992099
  86.2629466   2.7263936  14.2915761  87.6300149   3.3691605  14.3862474
  28.2644844  94.9040222  42.0288420  27.5334811  94.3247700  42.2440958
  28.4991813  94.6699238  41.1308718  76.3802645  59.6696778  82.2030095
  76.1718368  59.5430776  81.2773946  77.2648231  59.3169328  82.2997574
  41.0673332  62.2097397  59.9818039  40.5514002  63.0159760  59.9769020
  41.7730522  62.3731899  59.3561220  63.6874251  18.8431939  43.7191725
  63.7700705  17.8903970  43.7589359  63.3651857  19.0920171  44.5854712
  51.9943397  15.4055890  62.1159506  51.8963330  15.1327619  61.2037086
  51.1249070  15.7170876  62.3675108 108.8983874   3.0892381  27.5473094
 109.0539126   3.8841351  28.0573821 107.9590802   3.1025037  27.3635697
  58.2933950 102.1853352  63.8097572  58.7482691 102.8618336  63.3080864
  58.7975645 102.1081066  64.6197462  42.3674679  98.1387424  30.5299711
  42.8663349  98.4518051  31.2845302  41.6343546  97.6556301  30.9112597
  68.7513924  81.2018299  58.4437704  68.0804205  81.5719032  57.8701210
  69.2156792  80.5710888  57.8934622  51.0339785  74.6681261  45.2863550
  50.8866405  75.5133486  45.7107639  51.7560053  74.2761183  45.7775164
  69.3352489  20.9238633  24.8766565  68.8393645  20.4319962  24.2221355
  70.2463560  20.8489903  24.5929122  67.9519801   8.1789788  65.0101900
  67.2078519   8.0375680  64.4249487  67.5795202   8.6337956  65.7656050
  40.9501076  85.7091808   2.5164387  41.6790056  86.2997246   2.7066910
  41.3673162  84.9081230   2.1994622  32.2581148  80.8428764  37.9395509
  32.9473066  80.2103615  38.1424570  32.1406960  80.7734585  36.9921184
  81.4889912  20.1289853  59.1272545  80.9645085  20.8915433  59.3715000
  82.3954730  20.4210004  59.2234516  57.1977949  76.4143324  43.7982225
  58.0212975  76.0603905  44.1340828  57.4036837  76.6949987  42.9065561
  35.4300764  14.2931088  56.8784618  35.8676399  15.1135739  56.6512966
  35.3436162  13.8292035  56.0456610  18.6524570 101.7706776  50.7910681
  18.5186100 102.4664688  51.4346504  19.3099344 102.1226788  50.1910257
  65.6992579  96.4923763  56.9780064  64.9083042  96.0038185  56.7501163
  65.3975296  97.1656704  57.5878191  49.9368477  93.5178947  28.8557482
  50.3068638  92.6557827  28.6657596  49.0083456  93.3498573  29.0166140
  82.9156494  70.8188105  36.7453814  83.1349468  71.6081572  36.2503386
  82.0773697  71.0216522  37.1605778  88.3651833  33.5378179  33.5561228
  87.7875714  33.1164369  32.9197025  87.7752642  33.8644799  34.2354751
  53.2567398   5.1054486  39.1597176  52.7852087   4.2730531  39.1278243
  54.1546171   4.8816213  38.9148664  24.3542476  29.3535253  89.0372716
  24.2199750  29.8839589  88.2518787  24.6685786  29.9742337  89.6946502
  63.8705878   0.7375821  52.8846502  64.5704226   0.6149777  53.5260820
  64.3224006   0.7763013  52.0416832  89.7530227  11.7945966  17.2403955
  90.0441031  10.8835801  17.2009540  88.8287310  11.7404088  17.4832547
  55.1114206   3.2684335  24.5212126  55.2842026   2.3344907  24.6401191
  54.2363720   3.3028230  24.1347671  49.2738581  71.7139244  39.9497795
  49.5241261  72.6094770  39.7226548  49.0093756  71.3208914  39.1180301
  24.1534758  95.5365658  58.4969473  23.3692694  95.3310490  57.9880095
  24.8805594  95.2650547  57.9367161  52.3283272  34.7999486  11.4191484
  53.2211857  34.9960812  11.7029941  52.3952870  34.7005948  10.4694760
  64.7513247  90.6788063  70.7437134  64.8458433  91.5461445  71.1374426
  63.8266802  90.6248951  70.5021429  84.5937781  16.5752705  53.2383156
  84.4252162  17.4991235  53.0530643  84.6069341  16.1569032  52.3774910
  10.0217625  43.9005193  19.0823841  10.6728550  43.3722695  18.6205745
  10.2781197  43.8456735  20.0029850  29.5304894  63.3003092  50.6437683
  29.0575552  62.7202892  51.2405443  30.1176953  63.8002014  51.2108088
  49.0946007  97.2836590  46.3022518  48.7526608  98.1775951  46.2886953
  48.6900568  96.8841267  47.0722914  65.8474498  12.2282800  86.7812061
  65.3677826  11.4064893  86.6772652  66.7408089  11.9588288  86.9946003
   7.8390213   1.0717687  54.3347931   7.8011700   0.5927476  55.1626444
   7.1853825   1.7646798  54.4289160  68.9082432  93.1323433  66.6058111
  68.4263134  92.7049255  65.8977938  68.4207535  92.9062271  67.3979378
   7.8758985 102.5464916   7.4087977   7.0100313 102.6373959   7.0109993
   8.0065346 101.6012955   7.4847871  47.8160667  95.2084255  44.4073629
  48.5212612  95.6102276  44.9147940  47.5488377  94.4503880  44.9271727
 109.9060349  11.7251595  47.2259808 110.3711610  12.2013577  47.9138231
 109.9107222  12.3211011  46.4769363  32.1923585  78.9458486  86.1788881
  32.4974771  78.1329366  86.5817607  32.7281470  79.6288510  86.5822089
  20.0286003   4.8677644  36.3037491  20.0915905   3.9323243  36.4966464
  19.2365547   4.9499806  35.7725859  16.8835636  22.2658833  30.7597518
  17.7656647  21.8962964  30.7989192  16.3286492  21.6058263  31.1752510
  93.9008959  11.6571176  28.2738662  93.2922956  11.0332346  28.6696005
  94.7548708  11.4215076  28.6364198  79.8418006  55.6350422  16.9197953
  79.0671786  55.3064394  17.3760986  79.4914135  56.1345625  16.1822712
   2.1064261  50.1170778  14.7775924   2.1593492  50.4238081  15.6827700
   2.0060164  49.1680527  14.8517776  92.1522144  93.7158886  35.4542351
  91.6630951  93.5396544  36.2579370  92.6886967  94.4805912  35.6631565
 111.4544282   0.3932472   7.5550389 111.3755824   1.1736878   7.0064706
 110.5956040  -0.0258488   7.5001615   8.6635255  81.7939531  86.9085792
   9.0702938  81.0566914  86.4533684   8.1649136  81.3909542  87.6193619
  19.8745239  17.6576185  30.3878355  20.5951357  17.0520210  30.5616307
  19.8973691  17.7914500  29.4403124 107.3295327   4.9922231  12.7642739
 107.8732010   4.7050560  13.4978890 107.9498493   5.3659117  12.1383381
  28.2022524  12.2316444  17.7620745  27.4250340  12.1076179  17.2172964
  28.1570506  13.1467783  18.0390537  95.8046671  13.7267625  16.2321651
  95.4549225  14.6092248  16.3553286  96.4462372  13.8195336  15.5278838
  72.8550219  58.2656675  73.9365247  72.0073174  57.8242492  73.8837913
  72.6403498  59.1699457  74.1654984  41.7192078   6.8672949  13.1256962
  40.9770870   6.7571712  12.5312543  42.3404980   7.4061263  12.6359093
 105.5289056  47.9924393  24.5959187 105.3541484  48.3427811  23.7224483
 106.4073824  48.3073044  24.8089194 108.2234278  51.0126972  11.5766203
 108.8327294  50.3420782  11.8852448 108.7676271  51.6162300  11.0708237
  42.0738125  74.5758200  30.9344101  42.5510263  74.0643072  31.5877509
  42.6589966  74.6030760  30.1774120  17.4324191   9.3634605  20.1242733
  17.6579475   8.6243445  20.6891418  17.9754233   9.2438668  19.3451226
  45.5599260  32.2525215  40.9492397  45.2070808  32.9018664  41.5575838
  46.3586712  32.6540041  40.6071186  32.6241155  79.2619550  78.5012761
  32.3789455  78.5672533  77.8901211  32.5051292  78.8720595  79.3673328
  33.0423832  44.8937702  71.5175772  32.3468232  44.2854214  71.2679005
  33.7227297  44.7639036  70.8569002  20.1276278  34.3524575  45.4970455
  19.5782065  34.2461848  44.7204638  19.6524847  33.8953662  46.1909723
  99.7094747   4.8921365  59.3905354  99.3698104   4.8227817  60.2827501
  99.1179617   4.3520987  58.8664150 108.1029796  22.2711110  22.1688223
 108.4283882  22.1094537  23.0543780 107.4109980  21.6213369  22.0455956
 105.3685697  50.9327126  37.4045420 105.1932432  51.8164873  37.7277112
 104.6985217  50.3889179  37.8187346  97.6621560  96.5005455  59.8672628
  97.0956901  96.4687756  59.0963268  97.3853329  95.7541773  60.3988028
  28.4553957   8.1373262  38.3512044  28.4298825   7.8405178  37.4415421
  28.7404490   9.0495229  38.2976031  50.5967196  30.5071735  38.5665345
  50.1353654  29.9120712  37.9755712  50.3239306  30.2340722  39.4424534
   4.3986633  49.9671555  60.9072208   4.3158823  50.3137970  60.0188398
   4.8072237  50.6761360  61.4038610  13.2731950  18.8867152  43.8650608
  12.7543235  18.6039460  44.6180868  12.7342677  19.5537066  43.4397221
  15.9662747  19.5562124  31.7332172  15.8339775  19.0880835  30.9088492
  15.8255959  18.8940215  32.4099326  15.5723751  24.9425960   5.0639462
  15.9197021  25.8337069   5.1028734  15.1757920  24.8778462   4.1951758
   4.4150519  31.9282126  35.4450369   3.4813112  32.1241307  35.3677344
   4.8227519  32.7742004  35.6302857   1.3538870  67.9835749  39.6915984
   1.1951455  67.0478678  39.5671535   1.8021515  68.2588959  38.8919163
 100.6420120  16.5891755   8.8904607 100.7204064  16.6353440   7.9375941
  99.8186620  16.1247206   9.0408194  20.8977008  42.1938276  20.5883026
  20.9443617  42.7181101  19.7888148  20.8428860  42.8379297  21.2942481
  94.1286095  32.7692890  32.5345373  94.2574402  32.0262861  33.1240964
  93.2639142  32.6234245  32.1507955  13.5035598   8.1382895  13.3537900
  12.9283512   7.4385852  13.6632740  13.0025756   8.5723662  12.6632667
 109.7604460  28.5104322   8.5809213 110.0314146  29.2067480   7.9826319
 109.8070810  27.7116442   8.0555695 100.1054391  64.0684557   7.1098202
  99.2532452  63.6473131   7.2222316 100.1061150  64.3688822   6.2009877
   0.2440907  30.8880854   8.6157823   0.8993632  30.2164507   8.4266919
  -0.0712518  30.6745338   9.4939548  22.6652002  38.0620790  33.7867284
  22.7564120  37.2864699  34.3402123  22.0244670  37.8082728  33.1224418
  89.3248209  56.2294006  12.2017777  89.6760186  56.0544729  11.3286841
  90.0477012  56.0270309  12.7956831  33.8265705   8.8801986  47.2811317
  33.1764960   8.4914339  46.6959000  34.4438028   9.3190312  46.6957426
   2.0119636  22.8531599   9.5219278   2.5794557  23.5204864   9.9077481
   2.5968724  22.3279715   8.9757663  27.0235753  26.0367727  34.7039509
  26.9887543  25.7206392  35.6067681  27.7204609  26.6929579  34.7066617
   0.5456481  34.6448588  47.6420879   0.1191449  33.8545609  47.9733801
   0.9661762  35.0302362  48.4107685 101.0046526  21.0379434  71.2428331
 101.4456179  21.6590261  70.6631470 100.1008555  21.0169196  70.9282827
   4.3936619  47.9650450  37.2684360   3.8799363  47.1643972  37.1621919
   4.2695948  48.4400368  36.4467192   0.7344354  41.5025854  39.5659065
  -0.0679761  41.3392162  40.0615644   0.6191681  42.3823261  39.2067313
   3.1300437  50.6967163  26.9524288   2.2897255  50.5352974  27.3814297
   3.3813199  51.5742970  27.2404242  24.2867708   9.8280644  32.7995753
  23.7817812   9.7563887  31.9895864  23.6288166   9.8087728  33.4945273
   3.6054170  14.0176666  54.4464684   3.9941856  13.5187709  53.7280035
   2.6850978  13.7545514  54.4502783 100.2806696  46.5160799  30.0036764
  99.6964189  46.1858416  30.6861901 101.1020597  46.6994905  30.4596472
  97.4857827  53.7147379  25.8286333  97.8474482  52.8476048  25.6455755
  96.8700489  53.5706234  26.5471983  29.1931081  16.8293417  37.3114467
  28.3356881  16.4504313  37.5050640  29.5989275  16.9544291  38.1692910
  87.1072181  64.5913172  37.9200196  86.9257625  65.2305603  38.6089849
  86.2713774  64.1463566  37.7799702 103.0029836   8.5590369  43.2823849
 103.8586809   8.2009697  43.5186052 103.0498507   8.6861891  42.3348236
   7.5456011  57.7084684  22.7293038   7.8457910  57.8159380  21.8267679
   7.1587878  56.8331623  22.7504373   8.9837623  22.0716500  40.5714035
   9.8021340  21.8877554  40.1102304   8.4849989  22.6192451  39.9650979
  12.2397578  40.7403374   1.7621313  11.8965709  40.7135534   0.8689699
  11.6444016  41.3258886   2.2300145  24.3689966  12.3559856  25.8225417
  24.4251275  12.0257115  24.9258804  25.2747989  12.3642766  26.1318731
  44.8599386  32.7632046  11.9425607  44.4724751  33.4135652  12.5283372
  44.8267174  33.1705189  11.0769844  15.9971035  10.2140009  25.0936413
  15.9699428   9.6582580  24.3147659  15.5651069  11.0246980  24.8246050
  11.3415587  27.0939922   3.4529084  10.5009019  26.6368222   3.4758127
  11.1111259  28.0216980   3.5028264 110.0449498  43.7520123  44.4042349
 110.3764015  44.5586824  44.7987747 110.0496946  43.1159925  45.1195574
   6.7637253  49.4369984  39.2188907   6.8304718  48.5748148  39.6292782
   7.0641232  50.0468874  39.8927045  12.8899205  60.3736067  39.9802661
  13.5159612  60.0957394  40.6489182  12.5246072  61.1909151  40.3190708
  46.9962549  43.8942671   7.9512912  46.5868855  43.9490604   7.0877850
  47.9351234  43.9568186   7.7756596  21.0886669  53.7090302  33.8976979
  21.9326687  54.1593838  33.8648796  20.8142567  53.6475611  32.9827380
  76.7311493  85.7364813  44.0358639  77.6790250  85.8243266  43.9356279
  76.4539993  85.2391747  43.2663774  16.2372124  20.2982569  21.0251856
  16.2720215  19.4705951  20.5456090  15.6361735  20.8438826  20.5179596
  16.9995832  11.0765755  39.7373629  17.6502943  10.6014860  40.2541733
  16.5089011  10.3921354  39.2823839  12.7320953 101.0189376  42.2303820
  13.4564824 101.3585076  42.7559137  12.9036565 100.0795341  42.1646500
  59.4952439 103.0949223  72.6524869  60.1066302 103.0731976  73.3886687
  60.0327729 102.8860962  71.8884948  42.4167728  37.9802275  21.1835551
  41.9691515  38.4004211  20.4491806  43.2571077  38.4346175  21.2435269
  77.8307298 101.1105717   0.2150711  77.2056172 101.8233654   0.3469465
  78.0300257 100.8002922   1.0983828   5.7631570  35.4915810  20.5572963
   5.5060154  36.3322115  20.1785493   4.9384177  35.0210047  20.6781030
  90.3059252  35.1493931  33.0186892  90.3584775  35.0676274  32.0664358
  89.5638951  34.5975614  33.2658792  79.0421188  94.0204505  26.9533968
  78.4455374  94.7575787  27.0836425  79.7880814  94.3958250  26.4855671
  90.8135542  20.1197100  40.3871202  90.2446087  20.7884502  40.0059080
  90.7527741  19.3803596  39.7822237  65.6553793  33.5017276   9.0082508
  65.9048414  34.2649865   9.5292491  66.0460711  33.6602497   8.1489104
  28.9900112  31.0896492   6.7501879  28.3990526  30.8657002   7.4691081
  29.5946503  30.3494525   6.6977340 100.1340743  34.9243212  48.1656551
 100.1491746  34.1264486  48.6942434 100.5914506  34.6860790  47.3592567
  85.1923088  94.9786917  23.0004478  84.9435583  94.4416562  23.7527418
  84.5572511  95.6948767  22.9969716  11.7265463  36.0304475  35.9361911
  11.3830853  36.8071222  36.3778234  11.0201383  35.7551289  35.3518796
   2.8778234  34.1417646  10.2374589   3.3608219  34.0357065   9.4178879
   3.5570446  34.2372632  10.9051192  14.9264705  13.3998668  27.9276657
  14.4591033  13.9027703  27.2606683  15.5691159  12.8887618  27.4357200
  22.9748082  37.9866338  41.6232157  23.2849216  38.8538265  41.3623810
  23.5064626  37.7618051  42.3867798  25.4315758  55.0648260   9.2162979
  25.1648641  55.8654976   9.6679866  25.4699898  54.4021988   9.9059969
  50.4464160  98.5995543  82.0365814  49.5815777  98.2284128  82.2113416
  50.4946481  98.6555063  81.0822365  89.3184129  85.6950346  32.5405574
  89.8968891  86.4171961  32.7856708  89.6587256  84.9413506  33.0226135
 101.7473402  57.0787954  47.8439093 100.9104677  57.0501852  48.3076525
 101.7182007  56.3281822  47.2506428  30.5743241  46.8347979  45.2007771
  29.6892452  47.0729113  44.9247932  30.5380750  46.8458080  46.1572266
  98.8060804  30.3466558  38.9931607  99.2954167  30.1341629  39.7879124
  98.2002123  31.0370922  39.2623329  27.8998089  23.5062218  40.9553194
  28.3629823  23.5120678  40.1176596  27.1319532  24.0585017  40.8082867
 107.6501896   8.3631134  16.9039321 107.9870816   8.1248081  17.7676141
 107.1208375   7.6114058  16.6375589  23.4275055  21.9041038  38.8957429
  23.2433295  21.6594291  37.9888558  23.8206410  21.1205578  39.2800999
  12.5998807   0.9323119  35.9644485  13.0650628   0.1824874  35.5935025
  11.9619155   1.1743759  35.2931523   3.9588633   6.5034503  14.0684235
   4.8197570   6.6962624  13.6970520   3.7754419   7.2448087  14.6454644
 106.9870213  99.6910504  20.2888131 107.4290160  99.0621964  20.8592629
 106.6693715  99.1659829  19.5542145  17.7148139  13.2377064  47.9520702
  17.9931509  14.0630376  48.3490419  16.7826116  13.1743205  48.1599426
  13.1644452  19.5018768  46.9988918  12.4559462  18.8599396  47.0455837
  12.8987563  20.1015449  46.3017273  22.4162006  15.3146446  40.4084158
  22.2909045  14.3999147  40.1558256  21.7342877  15.7897985  39.9335980
  26.4712358  46.0947275  35.0316644  26.1140203  45.2827883  35.3913713
  27.3517370  46.1539507  35.4023933   8.1918138  31.3955283  17.1366823
   7.4087405  31.8432307  17.4569786   8.8583547  31.5748334  17.7998602
   3.7162590  19.1023028  37.3829603   4.5123562  19.5680463  37.6389766
   3.1249195  19.7895646  37.0760083  18.5120022  49.9390841  14.3483806
  18.6427867  49.0591049  14.7016048  18.4162760  50.4956198  15.1212561
   0.8341391  55.4841995  38.0816483  -0.1224995  55.5105877  38.0621982
   1.0602303  54.6661949  37.6389456  34.0647602  54.7947311  55.2692270
  34.2233849  53.9033651  55.5799198  33.7863851  55.2743435  56.0494280
 104.5406427  55.6888437  42.3815012 105.4278191  55.5832291  42.0379972
 104.4862094  55.0604868  43.1015253   4.6319750  50.1989031  18.7394106
   3.9667261  50.4718494  19.3712151   5.2515870  49.6805763  19.2528760
 107.6040470  76.6323519   5.0722623 107.5275930  77.4407625   4.5654470
 106.9507905  76.0468626   4.6892622  84.8685440  41.4937687   6.1611861
  85.7208689  41.8842173   5.9679878  84.7026642  40.9045649   5.4252791
  43.3594513   4.7150913   6.0519207  43.6594868   5.6187940   6.1495566
  43.1734896   4.4266024   6.9454664  56.2673616  18.3437121  32.9385900
  56.6737890  18.9768696  33.5303354  56.9852924  17.7690518  32.6729393
  16.0751271  48.7009716  27.8516960  16.9687521  48.9742851  28.0589771
  16.1816788  47.8865814  27.3601246  92.0167991  24.3190145  52.8978491
  91.6279932  24.9495769  52.2916698  91.6486176  24.5486188  53.7510490
  13.5130298  35.4532599  16.8265438  13.0555749  34.6781468  17.1523774
  13.5644519  36.0368848  17.5834906  90.7896265  35.9679055  47.2848940
  90.6749066  36.7114782  46.6931438  90.0499710  36.0267138  47.8896093
   8.7748331  39.4296360  13.9634645   8.9191490  39.2998028  13.0261552
   9.3912882  38.8314557  14.3858314  18.5622525  23.7572241  26.5086746
  17.8438783  24.2191434  26.9408798  18.3059657  22.8354216  26.5374303
  70.7350778  49.0746992  90.1407125  71.5473889  49.2669957  90.6091170
  70.7276629  49.6931931  89.4102043   7.9200453  52.6392221   9.0262997
   8.4563398  52.8207636   9.7980917   8.5300779  52.6996183   8.2911503
  18.5955095  40.5938148  27.6122427  19.1390383  39.8311114  27.4145198
  19.1800559  41.1894417  28.0810285  37.9070449  28.0416727   6.9060582
  38.0482936  28.5319519   7.7159387  36.9574118  27.9333162   6.8541968
  26.2887692  10.3533709  39.0687275  25.6796956  10.0628293  39.7475839
  25.9332371  11.1904931  38.7703061 103.0978688  65.0123358   0.6597018
 103.3719780  65.4832602  -0.1272707 103.7139382  65.2957964   1.3352296
 109.6569637  25.7932591  60.5013847 110.0618364  26.6559219  60.4112530
 109.1777716  25.6668377  59.6824694  52.2319317  43.3471394   6.8942171
  51.7924356  42.6891899   6.3555336  52.9451132  43.6700964   6.3434911
  14.6409273   6.9109946  25.7346606  14.0400803   7.6319653  25.9228539
  15.0724185   7.1655089  24.9190211  15.2729321  30.7620883  58.5640621
  14.6647418  31.3262391  59.0416336  14.7684479  30.4465389  57.8142929
  56.9845246  93.1153595  67.1603969  57.3069881  93.4596169  67.9933075
  57.6081490  92.4273574  66.9280676  19.0898275  64.3568325  50.2106142
  18.8931787  64.9809885  49.5120525  18.9883471  63.4981012  49.8001099
   9.3128401  35.3642917  29.0404296   8.6042494  34.8047376  29.3582845
  10.0361478  35.2020550  29.6460176  25.1303792  13.3890927  36.3222146
  25.9760714  12.9736543  36.1535430  24.4871688  12.7013600  36.1503625
  32.7932620  40.2373600  21.5040302  31.8952847  40.4052067  21.2182069
  32.8234434  39.2928958  21.6566896  38.6268258  45.9508657   4.0450251
  38.8231468  46.8123960   3.6769849  38.4084010  46.1255884   4.9604449
  16.0627687  45.9080887  26.2546253  15.7534719  46.1436510  25.3799391
  15.4144359  45.2822351  26.5774369  95.5157574  53.1162453  46.3907862
  95.8963629  52.4167681  45.8596563  95.8032902  52.9229259  47.2830772
 100.7501253  65.0058126  48.8533974 101.4953538  65.4693222  49.2355299
 101.0073026  64.8463821  47.9452848  16.9350493  76.1920404  13.0827188
  16.1961186  76.1572075  13.6901724  17.2738385  75.2969551  13.0661035
  12.5557888  73.4677362   9.1019958  12.5956273  73.4585667  10.0583231
  13.2291257  72.8449106   8.8282448  19.7917974  37.4921608  28.9416599
  18.9198339  37.0992088  28.9029312  20.1437426  37.2113705  29.7863626
 102.8351089  44.0867472  30.1202679 103.5799976  43.6341429  30.5158997
 102.8113427  44.9373436  30.5586219  94.0332671  31.9639182  29.4693398
  93.6775085  32.8482556  29.3820882  94.5668431  31.9976592  30.2633095
   3.6518812  45.0890446  63.0782318   3.0668697  44.5023870  62.5988293
   3.8373396  44.6268845  63.8956976  29.7090006  17.4969363  64.6318913
  29.0832496  16.9191837  65.0687790  30.4971647  17.4492574  65.1729584
  97.0864626  60.8586025   4.5047241  97.0636054  61.7533922   4.1655228
  97.6866170  60.8999586   5.2492619 104.7205170  61.9587183  38.1205153
 104.5993193  61.5689039  38.9863014 105.6380745  61.7885399  37.9075384
  82.1065482  17.5884163  34.6511340  81.3348707  17.0298648  34.5575118
  82.4609049  17.6578891  33.7646604  22.7277350  35.3463125  31.8901968
  22.9025006  36.1599541  31.4172506  22.1007800  35.5941796  32.5696945
   0.9321246  22.6020408  45.3372955   1.3803954  22.0076418  45.9389353
   0.1640476  22.1117783  45.0441504  30.3260612  51.8773603  79.6458006
  30.3974795  52.3449850  78.8136625  29.3843412  51.8154526  79.8056936
  19.1381693  25.9886169  35.5967569  19.9418163  26.1524796  36.0902476
  18.4398437  26.3274789  36.1568856  96.6991170  61.8551493  50.9361267
  97.6430305  61.9270229  50.7943773  96.3642486  62.7364206  50.7704401
  24.6113324  32.0770907  27.3148251  25.3336596  32.6466751  27.0501566
  24.8204517  31.8276572  28.2149816  23.1947184  35.7453823  54.5462084
  22.6216078  34.9787235  54.5490885  24.0759945  35.3852582  54.4467449
   5.5538827  51.4535999   7.5608158   6.2800121  51.2570143   8.1526959
   4.9972141  50.6758070   7.5980717  81.2671264  58.3782005  36.7467499
  80.5484041  58.2029390  36.1393356  81.7727550  57.5655603  36.7603827
  14.1365516  31.4068818  27.4983191  13.5554731  31.8186259  28.1378865
  13.7692285  30.5324674  27.3690581  10.0949895  12.3216641  28.8877559
  10.7081389  11.6315269  29.1407180   9.7519100  12.6532161  29.7175741
  34.9861860  37.9453683  42.8794289  34.3011999  38.0555940  43.5388803
  34.8039198  37.0924640  42.4850130  43.6047649  93.8174438   6.9397402
  42.6990891  93.9852047   7.2001898  43.9094639  94.6513271   6.5819246
  59.4635916  17.3529160  42.9989338  59.8502111  18.2132816  42.8360510
  58.5623789  17.5410259  43.2609653  38.9655161  55.5858660  14.7925508
  39.6793151  55.2045155  14.2813802  39.0699434  56.5308905  14.6818590
  12.7773666  21.8480349  16.0035503  11.8727112  22.0688891  15.7820702
  12.8286874  21.9707870  16.9514585  25.4989862  79.6853590  22.5132394
  26.0310364  80.3934765  22.8761864  25.9442306  79.4432592  21.7012191
   7.7311987  32.4106503  59.3886614   7.3877537  31.7007136  59.9311256
   7.4628323  33.2098222  59.8420238  47.8388977  43.8845444  36.9365287
  48.1122303  43.4495592  36.1288714  47.9414988  43.2168722  37.6147032
 108.3704066  39.0931630   7.7460134 108.0028563  39.9385548   7.4882358
 108.1308880  38.9989591   8.6679620  79.4260654   6.8140288  87.4497530
  78.7764523   7.4338599  87.1180291  79.0421492   5.9530231  87.2838852
 107.1699812  57.8984499  15.1147664 108.0767458  57.6324177  14.9623322
 107.1564462  58.8328457  14.9075162  15.7341731  60.7985592  11.8467283
  15.4843736  59.9643135  11.4494097  15.0708199  61.4174080  11.5414107
  37.0220757  48.4418392  35.9229898  36.1109519  48.6658573  35.7335067
  36.9687343  47.6357126  36.4363599   1.1575492  46.5809107  21.4456320
   0.6737389  47.2869301  21.0170388   1.6844510  47.0218372  22.1121049
  25.9509993  24.5476365  22.7991533  26.6075230  24.1587734  23.3770776
  25.4084396  25.0824571  23.3786631  52.9292201  68.4269547  84.1186753
  52.5995385  68.9438176  83.3835599  52.7262091  67.5212442  83.8847825
 100.6127640  29.3214226  36.9252253 100.2969833  28.6038208  36.3760781
  99.9427041  29.4179058  37.6019406  67.3432931  23.1284952  18.4447455
  66.9827374  22.3373914  18.8452268  67.2843321  22.9683638  17.5028789
  14.8663843  22.3436117  19.3879342  14.3456459  22.4658895  20.1817298
  14.5075667  22.9767966  18.7661958  15.0865471  20.6718040  14.7807062
  15.6932569  21.4120293  14.7665524  14.2924082  21.0207248  15.1854658
  21.6731954  24.0227580  46.3233232  22.5279617  23.9006329  46.7364693
  21.0919690  24.2677164  47.0433235  36.2139225  67.7755260  38.2787037
  35.5992603  68.4663343  38.0312920  36.1975598  67.1650982  37.5415874
  20.0432587  44.4947624  52.1395588  20.5544066  44.6243668  51.3407087
  19.2577553  44.0314484  51.8487740 102.5397082  12.3966360  11.4581716
 101.9317194  12.6377010  10.7592654 102.8654721  11.5329421  11.2049091
   4.9996921  14.6170723  57.8797007   5.6017011  13.9683926  57.5149679
   4.3170714  14.0979373  58.3048582  25.3754520  58.6760902  30.4580283
  24.7978544  57.9143524  30.4093719  25.5219507  58.9242887  29.5452476
  27.8104138  16.3122296   8.0475754  27.5945115  15.8909082   7.2156459
  27.5026369  17.2129846   7.9468489  25.0128818  24.2992949  64.4700480
  25.0889754  23.3459878  64.5106316  25.7374239  24.5736909  63.9079332
  87.1162637  30.0884271  18.3112383  86.3251027  30.6153655  18.1988454
  87.3837789  29.8648596  17.4197876  39.9583650  22.2365189   1.2516642
  40.7599068  21.9151282   1.6645409  39.5716214  22.8218651   1.9028398
  78.1642965  95.8129606  20.7245994  78.7193332  96.5437428  20.4523444
  77.5279898  95.7184515  20.0157881  33.8715768  53.8727617  10.3731859
  34.0714931  53.2973146  11.1115146  34.4464707  53.5693789   9.6705562
  32.1639490  49.3128347  60.2802038  32.9677081  49.7707272  60.5262518
  31.7253733  49.9084663  59.6726608  34.8564553  40.4961681  30.1341081
  34.8816752  40.3181934  31.0742807  34.5552802  39.6760273  29.7430873
   7.0546168  17.7758992  16.8043792   7.7200288  18.2582200  16.3136387
   7.3980057  16.8841946  16.8607605 110.7040232  81.4188099  25.1329613
 110.3753875  80.9700012  25.9119344 111.2408599  80.7633686  24.6874976
 109.1743914  87.6233482  38.4691381 108.9570490  88.4350204  38.9275980
 108.9446274  87.7951717  37.5559473  41.5971279  56.5080070   8.5533214
  41.9762182  57.1334314   9.1708702  42.0913315  56.6406441   7.7443731
  22.4627638  21.9977689   7.1992433  22.9986334  22.5072885   7.8070819
  23.0643249  21.3472772   6.8370068   6.1724025  16.2119567   1.9671674
   6.4240074  15.3278947   2.2343048   5.3058296  16.3411367   2.3526490
  19.9222183  40.3797722  23.3583927  20.5349350  39.8474073  23.8657355
  19.4833076  39.7550559  22.7810526  26.1289072  67.8703308  22.6894403
  25.3734493  68.1628799  23.1992745  25.9814191  66.9336414  22.5587082
  40.0018311  44.0177345  38.8010025  40.1742601  44.7453976  38.2035041
  40.6491375  44.1219282  39.4984007  10.0480580  56.5460634   2.9237813
   9.6063977  57.3114061   2.5557920  10.5198574  56.1631584   2.1841724
   4.2436643 100.2102611  33.4067392   3.3112474 100.4263369  33.3945727
   4.2738767  99.2697546  33.2313347  31.0914159  47.5468683  41.9520283
  30.7403231  48.4140396  41.7495871  31.4370918  47.6299191  42.8407574
 111.1302444  42.1872854  22.8916740 111.5487785  43.0437183  22.9787374
 110.3411879  42.3574972  22.3772335  94.7450467  44.7216034  14.9733341
  93.9734491  44.5709515  15.5193853  95.0222679  45.6116104  15.1907563
  96.3376554  74.7867680  36.7742419  96.8038031  74.3047905  36.0911369
  96.8388673  74.6167898  37.5718164   0.4326100  49.3339252  20.4547048
  -0.0764271  49.8279428  21.0974026   0.1445265  49.6746922  19.6078789
  21.5019321  50.8411503  29.2548108  22.1091080  50.2949238  28.7556076
  20.9252548  51.2240410  28.5936999  86.9234279   9.7657033  86.0352964
  87.1511511   9.2726298  86.8234918  86.2586526  10.3896543  86.3268218
   9.2943001  44.0758944  32.7344751   8.4106505  44.2849636  33.0372691
   9.5746356  43.3523846  33.2949924  32.1891928  33.7258554  14.5229471
  31.3184309  33.3334494  14.4595265  32.2245312  34.3489742  13.7972009
  89.6858629  74.0945244  30.9973884  89.3147906  74.1841412  30.1196051
  90.0390466  73.2051134  31.0184646  16.1490262  26.3404965  15.7769096
  16.3735509  27.2701001  15.7361639  15.3579092  26.2615871  15.2438629
  59.9506263  13.8478871  70.3022269  59.0194837  13.6395904  70.3785018
  60.3257004  13.5789224  71.1408023   1.2254325  83.6211300  35.6684637
   1.1212690  82.9622078  36.3548970   0.3913575  83.6117840  35.1989293
  57.3327326  97.8398430  87.3559931  57.2007035  98.6534512  87.8426609
  56.5518235  97.7588856  86.8084005  23.2953429   8.3234030  21.3726425
  23.2135439   9.0955639  21.9323826  22.4295306   7.9160529  21.3984680
   5.7052571  82.4934101   5.0066334   6.1019927  82.9153061   4.2445073
   6.2042028  81.6843414   5.1193017   9.2354029  14.6322656  46.2758017
   9.9779058  15.0228131  46.7366648   8.5178041  14.6628833  46.9085312
  10.3865266  46.8958712  25.6345963  10.8420265  47.7319956  25.5363512
  10.5892193  46.4168406  24.8310566  13.4218180  40.0223303  47.7444935
  13.9622927  40.5821419  47.1870661  13.5103333  39.1484737  47.3640060
 105.5886956  23.2289648  76.5291500 106.1862936  22.9961705  77.2397232
 104.9593928  22.5083137  76.4996624  27.8413534 103.8989067  21.9274282
  27.5729895 103.0090714  22.1563411  28.3034062 104.2167568  22.7031302
  37.5937843   5.1907444  43.9850760  38.3198476   5.5677855  43.4881830
  37.7777886   4.2515618  44.0026855   8.6382854  66.3577938  42.7432966
   8.0113411  66.4337778  43.4626007   8.1207287  66.0292101  42.0081806
  10.5929804  52.5890541  19.7737837   9.8986095  51.9597483  19.5787013
  11.0991323  52.6461029  18.9633596  96.1507042  21.6892719  21.6399765
  96.8761273  22.2459888  21.9229245  96.5041824  21.1915898  20.9026837
  99.5839556  18.7585342  52.9495049 100.0725897  18.4819841  52.1742725
  98.9695259  19.4160748  52.6233959  83.7906178  29.1960788   9.9363887
  83.9585336  28.2587242   9.8394191  83.5842069  29.4952893   9.0508956
  93.8616371  73.5781956  16.4320827  93.6469364  73.2888126  17.3188698
  94.5510674  72.9794025  16.1450744  19.5754361  42.6133776  34.2909718
  18.7506747  42.8511906  34.7145796  19.3124926  42.2172213  33.4602165
   7.8575516  59.8430395  12.3479998   8.3470887  59.4558668  13.0737269
   7.8087467  59.1464090  11.6933608  49.5532846  29.1925979  19.0943527
  49.0411806  29.0385246  19.8882318  49.3346786  28.4572887  18.5218453
 104.7581478  55.8054304  64.5493174 104.0904596  56.2813997  64.0554762
 104.8116549  54.9521685  64.1188335  20.3991628  21.5701938  45.9981680
  20.9538269  22.2559643  45.6262779  19.7096479  21.4404726  45.3470373
  24.4512868  57.3092413  51.9153404  25.4022717  57.3871517  51.9914150
  24.2765093  56.3766479  52.0416451  17.0752037  43.0667830  63.5937405
  17.6476955  43.3269024  64.3154192  17.5426114  43.3434391  62.8055620
  52.6448773  89.1747033  85.9403384  51.8672394  88.7803423  86.3352958
  52.3001670  89.8458421  85.3512899  10.6003904  25.3493190  39.4038987
  10.2270079  24.5429921  39.0480161  10.6795263  25.1824665  40.3431177
  30.3704906  30.0574613  44.7670507  30.6643844  29.6494699  45.5815458
  29.5047188  29.6808982  44.6093464  57.3087004   8.1923600  87.9748309
  56.4526407   8.3034202  88.3884252  57.8941432   7.9584332  88.6950851
  40.3509378  21.6813254  64.2007208  40.3309298  20.7257056  64.2519093
  40.9778118  21.8707132  63.5025835  36.2077308  13.1406796  33.2129025
  35.5864620  13.5803378  33.7933826  36.4663553  12.3529983  33.6913419
  32.2735834  39.3687487  28.7083554  31.7067409  39.0040779  29.3880153
  32.9474378  38.7020731  28.5753345  16.4298129  59.3956900  18.5034764
  16.3789976  60.3457928  18.6081588  16.9550586  59.2695475  17.7132630
 110.5519184  27.4658346  16.7369854 110.8719444  27.3431087  15.8432555
 110.1191074  28.3194518  16.7213094  19.6484816  70.2492905  45.2531004
  19.7472239  70.6253719  46.1277676  19.2741060  70.9572649  44.7288418
  21.4308476  32.6587439   8.7461358  21.1433315  31.9491911   9.3206781
  22.0929575  33.1260300   9.2555344 106.2148651  54.8005581  35.3690553
 106.2852576  54.6542883  34.4257212 106.6234048  54.0293264  35.7621574
  76.1475228  78.1863057  83.7124333  76.9825005  77.7187335  83.6918834
  75.5222939  77.5452435  84.0506009  25.4111052  46.9118309  46.1738205
  25.9431195  46.3019180  45.6627417  24.9035192  46.3523674  46.7616844
  37.3609972  63.7306070  12.4542034  36.6480732  63.8761568  11.8322837
  37.1491718  62.8948927  12.8700745  35.8439589  42.6613045  28.5702229
  35.4977131  41.9159985  29.0610051  36.6386628  42.9104137  29.0420508
  17.9939532  26.1333871  21.6655898  17.5927687  25.3236508  21.3499808
  18.8791978  25.8771133  21.9242334 105.4308762  20.9364343  18.3808088
 106.0270967  21.3409257  17.7506173 105.9644189  20.8040500  19.1644144
  11.6337800  62.2593880  41.5285110  11.7346406  63.1952524  41.7023516
  11.4953911  61.8690300  42.3914719  33.0942655  12.3988199  70.6969786
  32.3497868  12.9045022  71.0229683  32.8343940  12.1311176  69.8154831
  42.9029512  59.9856997  48.7437057  42.1561480  60.5256081  49.0025902
  42.9119301  59.2691851  49.3783379  86.4577969  62.3695135   3.9468718
  86.4295872  63.1215858   3.3554146  86.0780748  61.6518021   3.4399873
  24.2361546  40.0178719  51.3151073  23.8849115  39.1345263  51.4271832
  23.5266662  40.5952835  51.5969753  21.2709761   7.4083775  49.6107578
  22.0741916   6.9948357  49.2944288  21.2414074   8.2513916  49.1583347
  31.5433908  70.4288006  62.9584694  30.9959078  69.6860361  62.7039194
  31.0386324  70.8769131  63.6371756  31.0210276  55.2480650  18.0195868
  31.8900251  55.3924656  17.6451230  31.1561084  54.5735741  18.6852026
   2.8322589  26.7122149  51.7638302   2.2930157  26.0458922  52.1898127
   3.6071151  26.2372065  51.4635038  10.3537142  49.0980005  42.4778938
  10.4103839  48.2749844  41.9924450  10.6488228  49.7634792  41.8563795
 107.9072230  16.4297175  40.3048325 108.3686202  15.5944824  40.3805017
 108.3928617  17.0242751  40.8765745  13.6437964  32.8105450  60.0735617
  12.6931310  32.8687859  59.9782944  13.7876487  32.7686787  61.0189629
  23.0092955  43.9029360  45.1768112  23.6343622  43.9247465  44.4522095
  23.4681392  44.3273115  45.9017944   4.5936385  50.6352329  34.4209433
   5.2545172  50.4038715  35.0735855   4.3004131  49.7948933  34.0686893
 105.0222041  16.4080727  48.3429050 104.7223552  15.6258368  48.8059711
 104.3631288  17.0725894  48.5435820   5.9117258  31.7312622  49.2565727
   6.1475736  32.5862908  49.6164846   5.9874469  31.1302710  49.9977255
   5.1688421  59.0634012  19.6264684   4.9612096  59.0846062  18.6923003
   5.0219584  59.9609470  19.9249065  28.2743478  16.7010212  22.9939437
  28.6938000  16.6816497  23.8541293  28.3635807  17.6089907  22.7043533
  88.3255712  24.1287728  64.8107055  87.9917697  24.7352382  64.1496400
  88.9081088  23.5435887  64.3265132  17.7480400  23.8935351  15.1081753
  17.4150872  24.7575235  15.3508568  18.1906688  23.5775113  15.8958554
  21.7730618  59.5462179  42.5361204  21.1667871  58.8333273  42.7372456
  22.0754290  59.8519373  43.3913040   9.3679404  43.7714720  77.4610472
   9.9344867  44.4566059  77.1062946   9.5547509  43.7684631  78.3998346
  44.8740387  41.8528891  33.3522487  45.1699734  41.3947010  32.5656629
  45.2992964  41.3893509  34.0737176  90.0070766  12.4081107  82.1223966
  89.5553139  12.5760385  82.9494051  89.7721294  13.1507417  81.5660421
  10.0250638  37.6841593  74.5441198  10.2908349  36.7820215  74.3659496
  10.8440816  38.1423664  74.7324991  20.0535941  42.7198076   5.7717007
  20.7653713  43.1287813   6.2639844  19.8537636  41.9205046   6.2589586
  87.6068076  73.1074524  33.0648541  87.3011311  72.4982548  32.3927855
  88.2600220  73.6471939  32.6196313  80.7541522  13.3185601  23.6831903
  81.3960847  13.4640956  24.3781543  80.5683645  12.3803401  23.7213898
  47.5249910  53.7749290   0.8857651  47.8134060  53.1341505   0.2358029
  48.3107948  53.9675856   1.3972582  20.0916910  10.2307427  18.9927566
  20.8955407  10.0525045  18.5046089  20.0844860  11.1815000  19.1033947
  73.8387426   2.9208362  50.8704233  72.9799088   3.3393785  50.9292507
  74.2643770   3.1295809  51.7019844   8.4224516  54.1734362  18.7466574
   9.1280752  54.7954082  18.9240861   8.2592881  53.7495756  19.5892441
  95.5211314  19.4247448  50.1303148  96.0938581  18.7482238  49.7690153
  94.7989484  18.9392841  50.5290747  77.8037638  87.6891938  12.8673339
  77.0683593  87.0919481  13.0041182  78.3498291  87.5789431  13.6457229
  30.7434069  23.0990991  44.0932894  30.7679211  22.8222951  45.0092649
  31.6459821  23.0023393  43.7896013  92.8132053  71.5789700  18.7982750
  92.6521619  70.7178974  19.1840947  93.6958798  71.8098545  19.0877724
   3.6005843  45.9055090  22.6043940   3.9305454  45.8187056  23.4987211
   3.4558702  46.8450785  22.4926305  14.1762841  53.2347584  28.9646125
  13.9678001  53.1740236  28.0323672  14.3501425  52.3318052  29.2304802
  11.2162173  51.5287495  37.2154236  10.2677751  51.5011930  37.0892191
  11.4282346  52.4619722  37.2348881   6.2979984  25.6143928  28.8363647
   7.2101140  25.7639265  28.5875344   5.8496845  26.4272380  28.6028528
  20.9974957   6.9789678  19.0392113  21.4122462   7.6490390  18.4958696
  21.6799283   6.3206738  19.1702425 103.7988766  38.7020230   7.4829435
 103.6831310  39.6520829   7.4681747 104.0049662  38.4717369   6.5770036
   4.7539532  39.5952082  27.7863455   5.3834599  40.2939177  27.9645586
   4.4553691  39.3153930  28.6516690  11.9874239  72.8526640  12.1356976
  12.5122368  72.0856190  12.3647094  11.1735964  72.7414656  12.6271772
  73.9090967 102.5089311  30.5387974  74.6476166 102.3431272  29.9528527
  73.1768124 102.0387540  30.1401424  28.4580016  25.5236220  26.4920068
  28.0353284  24.8141837  26.0079861  27.9131818  26.2908983  26.3168240
  34.4210052  24.7668791  34.2935419  35.1682353  24.1955400  34.1161895
  34.0172267  24.3964410  35.0783801  25.4806423  52.4424982  39.9747920
  25.5703592  52.6388836  40.9073257  24.5810342  52.6916742  39.7630167
  39.0997481  70.1168966  24.9029589  39.5599914  70.4929924  24.1526556
  39.6360135  70.3579569  25.6582999   2.7552563   3.8092223  22.4671960
   2.5539625   2.8792840  22.3626614   3.5324195   3.8247415  23.0257750
  28.5903525  21.4037609  44.3950319  29.3676376  21.8521309  44.0618229
  28.9226627  20.8284116  45.0840712  84.5077161  83.5345117  38.2202792
  84.4259921  84.4881860  38.2126856  85.3676442  83.3647410  37.8356576
  24.3980074  41.6007948  74.6907520  24.0288424  41.5992403  73.8076019
  23.7314963  41.1747408  75.2297020  44.8825979  12.5481439  19.8775077
  44.8318624  13.4903312  20.0385737  45.5404329  12.4581051  19.1880310
  46.7123938  40.9605122  23.7315822  47.4098682  41.4474010  24.1705585
  45.9060383  41.3969469  24.0064406  93.5549625  75.0585175  20.8417273
  93.4951504  75.9985399  20.6713891  92.7932771  74.8651981  21.3882589
  12.6710498  65.3153229   3.2034254  12.0677066  65.3286505   3.9464137
  13.1985843  64.5279217   3.3373666  36.6369862  13.9001759   5.6452233
  36.8496687  14.5433053   4.9689266  36.4189263  14.4254311   6.4151466
  27.0433831  57.1608782  12.3406196  26.2112164  56.8565035  12.7026784
  26.9016409  57.1757126  11.3940895  52.5074053  33.6398196  65.4775763
  52.9393768  33.5655737  66.3285255  51.5723228  33.6159396  65.6807566
   8.8812554  89.1514874  25.9420753   8.0772924  88.9890289  25.4486346
   8.6078662  89.7134781  26.6670990  13.9954734  68.5092640  59.0470171
  13.6702859  69.2547226  58.5422707  13.4438539  67.7761984  58.7739515
   1.9474331  56.2501431  71.0401344   2.0221560  57.1609116  71.3250017
   1.3388152  56.2792540  70.3019142  26.4323711   0.6292637  26.0574389
  26.8842745   1.1858539  26.6916490  25.5889249   0.4359045  26.4666367
  22.5450039  27.9709411   4.7718686  22.0335150  28.7565398   4.5783514
  23.4539104  28.2711434   4.7729167   8.7152106  65.8080387  11.5296721
   7.9299980  66.2528467  11.8487656   8.7830579  65.0227690  12.0727932
  50.3998232  39.1809821  16.8681693  49.5492601  39.3397784  17.2775042
  50.4187298  38.2365084  16.7137659  23.3324289  51.6606379   6.9482672
  24.0423894  51.4284515   7.5468332  23.6138129  51.3197041   6.0992557
  22.6543641  42.8380299  52.5986719  21.8856525  42.2700691  52.5464058
  22.5932026  43.3958292  51.8232059  62.4170160  59.5607090  26.7152095
  61.5601540  59.3325329  26.3547206  62.2260237  60.2033997  27.3983669
  23.2529759  48.0597544  44.6218204  23.6734533  48.7434912  44.1003466
  23.8829637  47.8665352  45.3160954  12.5206304  33.9708090  20.7439971
  13.3258486  34.4859171  20.7941914  12.5383902  33.5832429  19.8689485
  16.8353164  23.4037352  40.2433300  16.6798007  24.3056583  39.9630094
  16.1254799  23.2182240  40.8581066  38.4586072  70.8339500  44.8863173
  39.1330481  70.5422831  44.2728853  38.8989854  70.8512163  45.7360220
   4.9863708  50.1230669  16.1659670   4.6596536  49.2257595  16.1002350
   4.9724296  50.3149557  17.1036327   7.8805108   6.0422393  74.3729035
   7.7547212   6.4535209  73.5177675   7.0669408   6.2184640  74.8454324
  12.0059931  46.6510057  30.7757521  11.5006495  47.0910215  31.4593053
  12.8369737  47.1253538  30.7493472  36.8851137  59.5910931  66.0950708
  36.4851451  59.5551062  65.2261829  37.4516058  60.3621244  66.0662174
  35.1007986  69.8847151  45.1584148  34.4181132  69.7017622  44.5128918
  35.8162880  69.2934704  44.9244595 103.3582547  53.3156061  54.1399860
 103.0934849  54.0968513  53.6544132 103.1251665  53.5077000  55.0482845
 110.6314039  30.7996154  60.1301146 111.5490027  31.0043645  59.9503374
 110.1388689  31.4635897  59.6476460  16.2299490  51.5520573   7.8859317
  16.9143593  50.8835125   7.9153132  15.8988297  51.5954256   8.7829888
  51.1657523  94.4450962  81.1318926  52.0491790  94.7267878  80.8943192
  50.9562277  94.9506580  81.9172195  27.5916362  28.8324142  32.1364379
  27.5800014  29.7370052  32.4491835  28.5145092  28.6530352  31.9565511
 107.1091887  78.1957436  11.2729895 106.9787811  77.4825668  11.8979704
 107.1622067  77.7614403  10.4216349  17.7898204 101.6230679  33.6538839
  18.4720361 102.2671604  33.4642506  18.0742705 101.2051392  34.4666934
  37.1485758  32.8225756  43.4392500  37.9922986  32.4936557  43.7493706
  37.2964454  33.0286646  42.5162697  17.1349180  66.8185091  11.1090899
  17.7577269  67.3778248  10.6448662  16.8709373  66.1650038  10.4614174
   3.9263317  67.0700169  35.4606104   4.2764926  67.7116871  34.8426485
   4.1708091  67.4087381  36.3218498   1.0133739  24.0086814  86.8347827
   0.6995602  23.1627770  86.5150890   1.2806316  23.8391467  87.7381456
  14.0114081  19.7497928  25.9169769  13.5799670  18.8961554  25.8796549
  14.5622551  19.7741640  25.1345396 107.3184112   5.9262010  86.7903227
 106.6612915   5.4790851  87.3237238 107.7137355   5.2307960  86.2646202
  21.7693901  42.7833414  42.5024939  21.0046864  43.1193066  42.0349598
  22.1929693  43.5634422  42.8606176  96.8043307  17.3619100  73.1114069
  96.1564306  16.7267343  72.8064362  96.2881974  18.0400916  73.5471908
  19.5389152  62.7432013  19.8092782  20.2170253  62.9796505  19.1764343
  20.0042105  62.2526598  20.4868460  39.5977831  22.3635316  38.8814187
  40.0836849  21.7026138  39.3746948  39.0721178  22.8162003  39.5409632
   9.9177307  63.5990763  47.0599699  10.2076328  63.0276203  47.7710438
   9.3455440  64.2382812  47.4845314 110.8627180   5.6075784  84.8964039
 110.7151083   6.5514155  84.9564931 111.3600925   5.4940244  84.0864936
  44.8748207  83.7768745  26.8620896  44.3347502  83.2438946  27.4456024
  45.7099104  83.3112431  26.8168044  21.1262941  82.1777344  31.5836596
  21.0466194  81.7277718  32.4247432  22.0204639  82.5192928  31.5785098
  20.8862472  53.7925768  31.0264611  21.7175984  53.7704611  30.5525422
  20.5208802  54.6549940  30.8290505 109.1771402  55.3968525   7.0862114
 109.3173834  54.4984341   6.7872006 110.0412573  55.8050013   7.0319009
   8.9840728  77.9846859  16.5486097   8.4108722  77.2511578  16.3258815
   8.5312921  78.4344292  17.2620201  13.9372504  46.2095547  19.0996516
  13.8925779  45.2552176  19.1585886  13.6661243  46.4071131  18.2031620
  47.2543383  37.5203800  29.0752769  47.0568275  37.0248389  29.8700476
  47.1026373  38.4336400  29.3185377  26.7507720  64.0379858  45.3935719
  26.1768103  64.7686195  45.6237411  26.1634707  63.2855988  45.3213310
 106.6317480  37.0781517  38.2110572 106.9538202  36.7419577  37.3747087
 107.3764720  36.9927287  38.8063049  22.0417309  44.5937443  50.1732063
  21.8182802  45.5180693  50.0640011  21.2892056  44.1216803  49.8167086
  28.7639165  16.7425740  40.6524086  27.9130030  16.7373192  40.2140570
  28.7444139  17.5246894  41.2039042  39.8485088  70.9410191  13.2911634
  39.3459535  70.8404064  14.0995860  40.3236771  71.7640591  13.4053910
  24.8591161  66.0224724  53.1935692  24.2867708  65.4162455  52.7233171
  24.4171572  66.1691952  54.0298605  13.8247216  39.2188454  26.6327071
  13.4546649  40.1006794  26.6733932  13.0748987  38.6526394  26.4499259
  35.6621909  68.4145784  10.4102337  35.5660009  68.4975529  11.3589668
  34.8620534  67.9726696  10.1261091  25.3030896  45.5261183  17.8725421
  25.0108075  45.7243919  18.7621999  26.2006950  45.2114487  17.9798687
  31.6636848  84.8804760  31.1313605  31.6751170  85.2582359  30.2519298
  32.0711422  84.0205193  31.0279536  78.2856915  10.0371190  72.3994712
  78.4130923  10.4037543  73.2744435  78.6971424   9.1737767  72.4393049
  30.3265996  22.4494668  90.2584079  30.2398248  21.8451091  89.5212150
  30.4414315  21.8822785  91.0208677 107.0152759  28.4521484  25.7208395
 106.7255994  28.4188318  26.6325450 106.7230710  29.3082237  25.4078174
  18.6178970  76.1807108  27.1877980  19.0209174  76.3544226  28.0384612
  18.0780578  75.4036665  27.3327303  28.6681318  52.2626829  20.9107900
  29.5118093  52.7117348  20.8579588  28.1139827  52.7187538  20.2774262
  69.7927043  25.4700538  87.6343522  69.5469386  24.8336717  86.9628996
  69.1216800  26.1502286  87.5767506   4.0093490  32.2385335  54.5034647
   4.2249382  33.1560993  54.6702814   3.9130461  32.1841598  53.5526752
   0.0134986  72.5565147  54.7494364   0.0904967  72.6154423  53.7971592
   0.8098976  72.9718685  55.0802851  19.2051029  40.9308147  54.4467640
  18.5223448  40.3728056  54.8191833  18.8241959  41.8089581  54.4486046
 105.5980202  29.6137834  13.8961673 106.0658517  30.2459145  14.4418538
 104.6724554  29.7946763  14.0599942  41.0826349  82.8783417  14.9307311
  40.6310987  82.0383453  14.8485088  40.4218721  83.5295391  14.6950066
  14.9084449  62.6087856  31.2975097  14.8862350  63.4626102  30.8654022
  14.0706420  62.2044134  31.0721159   7.9625320  61.8985558   9.4959652
   8.0874979  60.9511995   9.4400001   8.1859732  62.2215939   8.6230677
  96.1976985  38.0102082  79.8207883  96.9679931  38.5543557  79.6571532
  96.5238956  37.2889634  80.3589681  12.7367890  83.6507320  48.3352280
  13.2532954  84.0433311  49.0390158  12.8745925  82.7086544  48.4338713
  37.0134139  35.4156160  66.1145973  36.8165445  34.5370197  66.4394712
  37.8783512  35.6151867  66.4727688   8.3248562  50.6401730  28.7124515
   7.9822129  50.9077597  27.8596759   8.8864082  51.3663960  28.9835382
  10.2453840  67.2162676  31.7477703   9.8159695  66.4959240  32.2092199
  11.1704719  67.1307182  31.9782615  39.4724560  66.6830254  21.4438391
  39.6379685  65.8307219  21.0408306  38.8515878  66.4982319  22.1485400
  95.7074360  21.4893409  77.4498216  95.4501013  22.3313685  77.8253154
  95.5363635  20.8545466  78.1455258   2.3794138  71.0462332  32.7604270
   1.8233463  71.3100529  33.4935164   2.3723309  71.8003416  32.1709371
  21.9162512  66.1602402  47.9162264  22.2730756  66.2505150  48.7998295
  21.2771702  66.8690157  47.8424263  16.2363112  91.5666771  27.5930595
  16.7772400  91.0669804  26.9815588  15.6195819  92.0406055  27.0351434
   4.1120872  21.9260049  67.5471497   3.8452280  21.7070842  68.4399462
   5.0289595  22.1885157  67.6287842  25.2017236  63.6285019  38.2807970
  24.6167135  63.4531212  39.0178442  25.0463629  62.9045534  37.6741719
  18.5910773  22.6002383   5.8630639  19.0829599  23.0606198   6.5430152
  17.9199386  22.1131873   6.3411713  26.7403412  66.2768316  75.9421635
  27.4585938  66.8308067  75.6364632  26.2348843  66.8411684  76.5271997
   6.4717108  18.1574881  22.3140860   6.5997177  18.0433166  21.3723803
   5.8744180  18.9019942  22.3860860  19.0705550  79.6459484  19.4902849
  18.5368323  79.1106319  20.0774884  18.5802233  79.6614981  18.6683571
  32.8596997 100.9086800  30.7426977  33.3281279 101.7416382  30.6880260
  33.3993936 100.2970600  30.2418160 104.2490002  53.8803911  19.9110758
 104.8227634  54.6328735  20.0552893 103.6968925  53.8469744  20.6922865
   7.1067923  39.0797186  19.0924788   6.3874072  39.6802807  19.2875206
   7.2216213  39.1434479  18.1443310  22.3906703  10.3725835  60.4054621
  22.5624128   9.9904700  59.5448092  22.8281064   9.7838660  61.0205153
   7.1873647  62.6437378  32.3397732   7.6111299  63.3415747  32.8394532
   6.4571476  63.0758667  31.8967390  26.9564724 104.7349548   5.4754037
  27.6256084 104.0636253   5.6088549  27.3814082 105.3899097   4.9216133
  39.4753838  82.6682568  25.7791042  38.9502811  83.3224678  26.2400770
  39.2741632  82.8082752  24.8538280  44.0748692  90.8440781  18.5272849
  44.1904545  91.6402626  18.0086744  44.4828081  90.1551819  18.0026567
  56.7894458 104.4742548  83.8926653  56.7926394 105.3734743  84.2207251
  55.9476553 104.3853294  83.4457735  42.1522665  50.2450895  46.4166307
  41.6878033  49.5553255  46.8906879  43.0695868  49.9722958  46.4348507
   8.4774411  69.3303967  24.8060966   7.6592910  69.7065496  24.4814897
   8.2713813  69.0392590  25.6943607   8.3620375  43.9574099  51.3180256
   8.8815784  44.1791344  50.5452681   8.4793431  43.0132008  51.4226532
   8.4516299  47.1935606  53.1476879   9.0826786  46.4773893  53.2191467
   8.7787199  47.7298307  52.4254274  48.2466583   6.5399655  32.9138780
  48.4909324   7.3380097  33.3825803  49.0529601   6.0251435  32.8810787
  78.1231923  89.0255872  10.6090844  78.1915764  88.4827629  11.3945115
  78.6666278  88.5780195   9.9605531  34.3391156 103.8314438  19.6448970
  33.4114671 104.0669823  19.6596622  34.3434572 102.8835392  19.5118845
  88.2486900  53.7750673  37.1662974  87.7359851  53.3940077  37.8791499
  88.9197262  53.1193066  36.9767761   1.9760752  62.8317595  39.8994875
   1.4925946  62.1871662  40.4161835   2.6382110  63.1727600  40.5007601
  31.2681103  44.7048855  27.7243590  31.2591457  45.0755978  26.8419075
  30.3439164  44.6293879  27.9618335  40.1773214  61.0020113  65.7830334
  40.5265474  60.1540661  66.0573721  39.9276423  61.4338684  66.5999746
  26.2504649  62.6281691  33.6820221  25.9197664  62.0196247  34.3427372
  25.5275679  62.7246428  33.0620670  28.8525057  15.9514892  47.9727507
  28.0495477  16.0585606  48.4826756  28.6099577  16.2166107  47.0855570
  15.4840004  48.5769129   3.2640523  15.9968054  48.0932140   3.9115864
  14.7371745  48.0082560   3.0766633  24.1069508  42.6473141  24.6532393
  23.3933163  42.6534653  25.2911425  24.6551347  41.9073105  24.9142385
  44.1080999  23.1881499  40.9384680  44.1106176  22.6733756  40.1314783
  43.2946205  23.6910820  40.8992100  20.4173493  31.7658329  33.5074067
  21.2033439  32.2026467  33.8354874  20.0120211  31.3851523  34.2865252
  42.7043962  67.3424387  23.5718489  43.5415077  66.9116020  23.7446356
  42.7295446  68.1371593  24.1047788  62.6877069  46.8331671  19.3743539
  62.4745274  46.3758850  18.5609186  63.0522251  46.1543322  19.9422812
  43.1241124 101.2422764  87.9510034  43.5993301 100.5114138  87.5557343
  42.9599981 100.9622442  88.8514925  18.9195287  75.3690815  21.3725781
  19.4941950  75.1493073  22.1058512  18.0692577  75.5401516  21.7775536
  21.3574457  39.6092916  27.6777816  20.8010364  39.4594288  28.4421015
  22.1890855  39.1913891  27.9013062  29.5828485  94.8422337   3.4936827
  29.3205523  94.2086506   4.1615155  29.3122602  94.4440556   2.6663572
  33.5685611  45.5476665  29.0340233  32.7304935  45.5104542  28.5730577
  34.1104555  44.8891640  28.5993266  18.0909300  60.2021265  66.6842937
  17.1871114  60.2432394  66.3718033  18.0226195  59.8405552  67.5679445
  33.6168313  79.6164465  29.9475551  33.3193803  79.8946524  29.0813231
  32.9756236  78.9608097  30.2218294   5.3435642  79.2516279   5.0427294
   6.1352217  79.6174335   4.6481460   5.4384267  79.4290400   5.9785485
   2.2345071  55.1557922  48.3777237   1.6441315  54.4175577  48.2270432
   2.9861981  54.7728872  48.8300228   8.3426768  85.7956696  20.0813270
   7.4042767  85.9799480  20.0403404   8.7577093  86.5905952  19.7465539
 110.4324919  75.9428024  42.8882885 110.5781718  76.6924334  43.4654045
 110.5317425  76.2977743  42.0049000 108.6544739  56.3542938   9.5317912
 108.8593551  55.8260822   8.7602693 108.9139199  57.2431755   9.2892808
   0.4287172  59.4227839  38.7345099  -0.5234369  59.5202732  38.7459183
   0.5918469  58.6086464  39.2107487   1.6364960  61.5022755  18.5387623
   1.8256415  62.2377110  17.9560220   1.0273058  61.8592978  19.1850245
   5.6924546  44.7662926  29.1459775   6.2940979  45.2094650  29.7441912
   6.0945171  44.8676872  28.2832527  25.7218218  52.7120304  42.7161121
  25.1839876  52.7163029  43.5079098  26.5001535  52.2100925  42.9579639
  21.1223984  81.5964317  67.3446178  21.6767335  80.9122467  66.9693327
  21.3933468  81.6482830  68.2612038  25.0999069  37.9145169  77.6179552
  25.8860326  37.4853349  77.2802544  25.1468658  38.8061547  77.2729778
  55.6129681  90.5739653  79.6179691  56.0067176  91.2223112  80.2017847
  55.9123229  90.8253371  78.7442235   4.8603004  61.5178061  34.5255399
   3.9727950  61.5941429  34.1751981   5.4015213  62.0231962  33.9189982
  23.7095499  52.4096489  15.1398265  23.7478137  52.2393370  16.0809767
  22.9692078  51.8869543  14.8317432  32.3699450   5.5076450  40.0126982
  31.8144131   5.3611338  39.2470908  31.9364190   6.2140459  40.4915333
  13.9063632  58.6618423  18.9649665  13.7113106  59.5192003  19.3432820
  14.8108065  58.7347031  18.6601603  45.3657055  50.4867029  26.5954494
  44.7786140  50.8098221  27.2789288  45.9837341  49.9209976  27.0583272
   7.8032172  48.5696316  26.2776685   8.4647578  48.1704569  25.7126403
   8.3057255  49.0929270  26.9020700  52.2100115  54.0487862  17.8143656
  52.7953100  53.3448744  17.5347900  52.2440100  54.0229559  18.7706137
  21.1625266  33.3390450  12.0599794  21.7574382  33.0483985  12.7512372
  20.3026366  33.3658314  12.4796247   4.1267177  81.7968273  33.2769203
   4.5135155  81.5810776  32.4283504   4.6956328  82.4793625  33.6328864
   3.0810291  47.8118610  53.4227467   2.6258004  47.2841072  54.0788507
   3.6075082  47.1812868  52.9313946  25.7801628  29.4365764  21.4796615
  26.2242818  30.2335072  21.7693019  25.5696964  29.6003056  20.5603528
  39.3052006  42.6040697  77.1154976  38.6405563  43.1358862  76.6777229
  39.6489549  43.1709433  77.8059435  57.9496336  21.5007830   6.5519899
  58.7450123  22.0250463   6.6455364  57.2722626  22.1336818   6.3135868
   5.1613033  98.2391930  11.6489840   4.5547268  98.8538551  11.2360871
   4.9326515  98.2647038  12.5781238  44.5162821  52.4839640  12.7499199
  45.2018309  52.8925037  12.2213852  44.8881292  51.6430330  13.0159950
  28.8130331  31.8496728  27.8922462  28.9888883  30.9857416  28.2649779
  28.8397598  32.4440002  28.6421061  28.0853653  89.4375038  86.4841843
  28.6201859  88.6523914  86.3667107  27.6286459  89.5432663  85.6496525
 108.7352215  25.1669264  82.4260616 109.0284809  24.7865629  83.2540512
 108.3116397  24.4421077  81.9662285   7.1838081  50.1400471  23.4179926
   7.6697737  49.3155718  23.4003472   6.5410066  50.0242567  24.1177297
  11.4598680  55.8767843  68.3628082  10.5896223  55.4782152  68.3696747
  11.7134738  55.8823586  67.4398327  21.3771439  63.3422661  26.6719198
  20.4382539  63.3878851  26.8525696  21.4387012  63.3651638  25.7169747
  18.7780499  50.1567221  17.3815608  19.1214335  49.4602585  17.9412556
  17.8689682  50.2628899  17.6617956  15.2717018  54.7756433  38.2146597
  16.0167229  54.8756599  37.6220608  14.8809469  55.6483984  38.2575655
  27.4914598  48.8042355  74.0856409  27.0868492  49.0620470  74.9139214
  28.0932045  48.0985069  74.3224621 110.2330679  20.4992914  24.4684601
 110.8559981  19.9196088  24.9068165 109.8939335  21.0587406  25.1671982
 110.5024979  84.3526840  31.9354415 110.6789536  84.7495461  31.0824490
 109.8561642  83.6705875  31.7531586  23.7707710  66.4466810  35.0523949
  23.5092115  65.6184101  34.6501732  23.6482143  67.0977020  34.3614674
   4.6836555  47.3076105  17.1506417   5.1597774  47.2529888  17.9792285
   4.5178705  46.3963318  16.9091451  30.7891774  32.5519991  40.8056641
  31.1033559  31.9072318  41.4395380  30.9895039  33.3982921  41.2055206
  45.9806013  76.2208796   1.8638533  46.0017109  75.3219128   2.1919416
  46.6572142  76.2448454   1.1872058  98.0984017  84.2014313  31.8212605
  97.4344274  83.7747765  31.2796521  98.5320648  84.8157406  31.2289882
  37.7450228  64.3318129   3.5915729  37.0295882  64.5066118   4.2029887
  37.5124645  64.8234892   2.8039154  34.3207216  44.1179752  53.6969662
  34.1445255  44.3177366  54.6163559  34.3255758  43.1616545  53.6563206
  48.0088520  21.4895964  27.9276824  47.8479910  20.9072542  28.6701345
  48.0873680  20.9027219  27.1755910  19.0179515  63.8260698  60.3140068
  18.4175301  63.3297539  60.8702421  18.5246968  64.6084976  60.0675440
  18.7064290  52.7824926  56.0660601  19.2838407  53.5458088  56.0528994
  17.9868245  53.0163813  55.4798031  44.3313789  74.7693682  29.3454123
  44.7654819  73.9318228  29.5075989  44.4839907  74.9423027  28.4164143
  29.7409773  69.6221972  48.5334826  30.2099776  68.8402367  48.2422686
  30.0893831  69.7989178  49.4073343  41.6851234  30.7474971  41.9416523
  41.5326118  29.8144865  41.7917776  41.0960913  30.9738874  42.6613855
  15.0942564  67.6416302  34.5868325  15.7470274  68.3079576  34.8016071
  14.3294787  67.8775406  35.1118970  74.2528152  67.5558138  43.8324547
  74.5215178  67.0079708  43.0949593  73.6488914  68.1925631  43.4502745
  12.2259104  92.9732704  22.5729418  13.0011761  93.4201813  22.9127479
  11.4983010  93.3412266  23.0743647  63.8109684  81.1439991  16.8944585
  63.7318277  80.1965427  17.0052874  63.0477953  81.3884926  16.3709843
  41.6350698  57.7244568  22.8428388  41.2117815  58.1239843  22.0829439
  42.2519827  58.3886957  23.1501365  77.2114871  54.4309636  88.8446402
  77.1645669  55.2064916  88.2855538  76.3476867  54.0261765  88.7657025
  20.1856613  89.1222858  11.9270802  20.8589768  89.3433475  11.2836432
  20.6361794  88.5682201  12.5644767  12.8500485  55.9075165  19.9879897
  13.1963253  56.7863655  19.8332345  13.6273599  55.3562403  20.0780559
  32.4534392  69.5796251  44.1737223  31.8780708  70.3137302  44.3888330
  32.0407391  68.8222408  44.5887804   5.3540403  80.4302120  87.1452618
   5.7266051  80.2710438  86.2780380   4.8488545  79.6402550  87.3375797
  56.7814016  65.8209944  25.4298162  57.6709032  65.7949781  25.0771976
  56.2704611  66.2721968  24.7578120  83.8836956  77.5403738  49.6655130
  83.8961411  78.3642292  49.1783381  84.7312546  77.1376181  49.4766712
  19.8718524  72.0713282  36.6706610  19.1751945  72.2984838  37.2865343
  19.5367622  72.3473263  35.8175659  35.0733781  72.1371412  47.1196604
  35.2763581  71.2947178  46.7130184  34.2339325  71.9957447  47.5573444
   8.7031209  58.8507080  47.5580788   8.5573065  59.1599226  46.6640091
   7.8749526  58.4408283  47.8078127  42.2283030  43.3045912  43.4649420
  42.8621578  42.6405239  43.7360048  41.4827061  42.8033495  43.1346798
  13.7795222  93.2304573  29.5226598  13.5445356  93.4342670  28.6174130
  13.7171972  94.0685749  29.9808002  92.4133968  91.3635921  22.8954268
  92.8119373  92.0992374  22.4304271  91.9520473  90.8722591  22.2157407
  25.3168106  85.3460789  26.9189477  25.8749866  84.6422195  27.2494745
  24.5979738  85.3975677  27.5489092  41.1860991  87.0146656  20.8745599
  40.2553797  86.9487286  20.6609106  41.5499163  87.5756359  20.1895928
  31.6240883  75.4263878  18.1211138  31.5729690  74.6703815  18.7059844
  32.4424767  75.3023958  17.6403868  81.1208630  87.8392696  24.8680472
  80.3834820  87.2581673  25.0546765  81.1984921  88.3863258  25.6496739
  21.7385697  69.0915346  36.3312125  21.1706376  69.3592024  37.0537376
  22.5218701  69.6329212  36.4290500  34.2894292  63.4536076  42.6678896
  34.6331453  62.5642443  42.7522945  34.7572994  63.8210440  41.9180107
   1.0358614  50.6099510  28.6994267   1.3085563  50.5762768  29.6163440
   0.7233492  49.7252893  28.5098481 109.3705866  62.9842567  18.5787594
 109.8929063  63.1213522  19.3690872 108.6266472  63.5784626  18.6772621
  36.9051671  75.1612759   9.4652587  37.3871875  75.2097178   8.6397034
  36.0456705  74.8180103   9.2209846  33.8512993  72.0184278  40.0546455
  33.9998913  72.8439045  39.5934010  33.0301523  72.1528864  40.5277920
  19.7965217  53.5723972  43.2915974  20.2815509  54.0499830  43.9645672
  20.4084921  53.5034180  42.5588179  26.3815999  72.0493031  36.5627933
  26.3689876  72.8609037  37.0701170  26.6597962  72.3183870  35.6873322
  23.0755043  83.6608505  59.1057682  22.9112840  83.5582829  60.0431776
  23.6965084  82.9639721  58.8937473  34.7503924  49.9545860  64.1427279
  34.4202399  50.7135534  64.6235609  34.9521065  49.3103456  64.8213291
  18.7329555  88.1387329  28.9745927  18.2083952  88.9151764  29.1700673
  18.0972409  87.4242973  28.9335966  70.6940889  91.7383575  27.4277449
  69.9033689  91.5232277  26.9330645  71.4041138  91.3264084  26.9354129
  34.0569425  78.8065863  45.3368235  33.3326173  78.3308601  44.9302959
  34.8211813  78.2487726  45.1918650  79.6566868 104.4456959  34.8016262
  79.1591835 104.7245312  34.0328789  79.9504566 103.5599804  34.5884705
 109.0151647   1.7670032  89.2619752 108.5792831   1.1265012  89.8241127
 108.4633950   2.5473376  89.3154106  75.0976419 101.7522907  27.9103875
  75.8284712 102.3250389  28.1429458  74.4908762 102.3194504  27.4345803
  49.8665905  75.8915997  18.0157983  50.6288242  75.4211950  18.3533680
  50.0079060  75.9291077  17.0698297  57.0152473  90.5002594  64.5621252
  57.4976158  89.6758175  64.5000648  56.3325644  90.3300571  65.2111292
   1.6958837  78.7303448  63.2509089   2.5083709  78.2266617  63.2018900
   1.0257958  78.0831861  63.4709072  20.2791357  34.2541122  24.3452716
  20.1110721  33.4577942  23.8414216  19.4716489  34.4007206  24.8379207
  95.5223136  10.6617459  34.0706491  95.2531819  10.4983624  34.9745870
  94.7208266  10.5530461  33.5587502  28.2675743  74.2307377  42.4807787
  28.1005192  73.3028555  42.6462030  29.2194963  74.3159008  42.5339031
  26.5328050  78.9543819  33.0568743  25.9848809  79.7392321  33.0530643
  26.0713553  78.3429098  33.6308098  35.5636215  65.7106161  17.2514331
  36.3226080  66.0451269  17.7292132  34.9272394  65.4953146  17.9332650
  34.7683477  69.1596127   6.0260123  34.8206162  69.4016314   5.1013905
  34.0280151  69.6634960   6.3640058  12.3509824  76.2045383  25.4509854
  11.4049208  76.3206911  25.3631878  12.5438619  75.4171038  24.9420810
  43.9175653  45.1274776  39.3962097  44.4868565  44.9579668  40.1468134
  44.1298532  44.4327688  38.7728786  14.0354478  75.2838230  27.8731227
  13.4655893  75.7657528  27.2737598  14.1036165  75.8472919  28.6438894
  17.8782427 104.3389702   2.4579470  18.4381807 103.7056351   2.9069355
  17.0156300 104.2201042   2.8554434 109.8166760  65.7572699  53.0373478
 109.5382994  66.0130119  53.9167404 110.4021562  65.0132513  53.1783533
 106.3217332  74.1283751  34.9762559 106.4943468  73.4755325  34.2978525
 105.3899100  74.0299416  35.1718283  61.9168758  63.1533527   9.5627242
  61.4520502  63.9749575   9.4041777  61.5908813  62.8536367  10.4113281
  59.7770262  56.2113905  15.4109418  60.2313614  56.3769674  14.5848691
  58.8692284  56.4618015  15.2393842  63.4818697  83.9077759  35.6600022
  63.2559156  84.3747330  36.4644432  64.2421055  83.3765888  35.8968878
  54.2633152  62.1548462  28.8748074  55.0955725  61.7365408  29.0952492
  54.2065907  62.9031754  29.4689584   2.3902741  38.7149525  36.0594773
   1.6548224  38.6027265  36.6617632   3.0727366  38.1395245  36.4049625
  10.1899529  76.5394926  38.3880758  10.9331155  76.3282347  37.8230023
   9.8759210  77.3840475  38.0650425  16.9169581  74.7742891   5.3169870
  17.6007032  74.5583344   4.6828848  16.0974956  74.6359110   4.8420495
  25.3460145  52.4490643  47.5765228  26.2648034  52.2067308  47.6919889
  25.1522112  53.0160189  48.3230066  49.1809130  82.3716164   5.7479262
  50.0366402  82.3461914   6.1760801  49.0925646  83.2745266   5.4426599
  60.8375692  83.1463909  18.0627549  61.6832924  82.8013992  18.3490562
  60.8979845  84.0888023  18.2191205  24.2190213  34.6137258  83.6976705
  24.5096154  33.7018510  83.6813054  24.9935813  35.1165029  83.4456489
  51.3192081  74.4767904  34.6354580  51.9401550  73.7521076  34.7095490
  51.6138792  75.1123285  35.2877545  55.1927185 100.5286503  36.5954661
  55.4004192 100.4616833  35.6634760  54.5007849  99.8818588  36.7337298
  31.8957543  79.6692133  26.4861369  32.0778608  80.4100990  25.9080696
  31.3527417  80.0371647  27.1832609 104.7908120  24.4222745  54.5530891
 104.5429711  24.0627583  53.7012959 105.3765969  25.1500329  54.3446350
  34.4063044  86.8039894  30.9933281  33.4521651  86.8729115  31.0264993
  34.5719552  86.0300159  30.4550314  13.3552499  19.5448562  84.3394617
  13.7213512  19.4718429  85.2208642  14.1148467  19.6927234  83.7760947
 108.2115555  69.5155573  15.2077985 109.0599346  69.9155521  15.0167906
 107.6819134  69.6947527  14.4308794  39.7734356  74.3145752  32.5336099
  40.1231050  74.5080280  33.4034038  40.4120636  74.6927881  31.9291735
  28.4489703  73.4798622   4.4321495  28.7870049  73.2268143   5.2911782
  27.4984956  73.4051275   4.5172688  32.8322644  54.6607133  88.5796394
  33.2733054  54.7128888  87.7317057  32.7266879  53.7225171  88.7373701
  32.5146914 102.1108818  21.3079214  33.1172180 101.4351940  21.6187763
  32.9097939 102.9343128  21.5944362  30.4751365   6.0549649  37.8908777
  30.2055518   6.9309529  38.1669354  30.8395992   6.1814794  37.0148683
  49.9425745  66.6303396  19.9203575  49.0374279  66.3317442  20.0085521
  49.9492693  67.1382046  19.1090238  41.9538498  78.9136934  20.7044435
  42.4591351  79.6834850  20.4430270  41.9069433  78.9707518  21.6587901
  16.5238042  14.0325089  84.9171100  17.2990365  13.4713098  84.8995856
  16.8600412  14.8982736  85.1486812  21.8061948  87.0894814  75.7577419
  21.4163113  86.2344170  75.9396124  22.7360177  86.9754601  75.9543562
  93.9131069  75.0352526   6.2473404  94.1303921  75.9635830   6.3322842
  93.1012440  75.0247097   5.7403773   0.7096723  97.2926235   7.2080815
   0.3930093  97.6255131   6.3683569   1.2100314  96.5086651   6.9816262
  45.4801035  85.7652569  15.5422378  45.3985691  86.4816856  16.1717761
  45.4121923  84.9713898  16.0727036  38.9698863 104.1639233  40.4831171
  38.7612605 104.9703121  40.9547615  38.3246756 103.5297775  40.7958412
  72.6265335  81.9696522  51.6140747  73.3191872  81.3526821  51.8503237
  72.1164989  81.5125847  50.9453535  68.6710644  89.2383480  18.7227726
  67.9990530  89.9169159  18.7874877  68.1805325  88.4166527  18.7022972
  48.3023834  86.7929173  16.9440663  48.4031725  86.1017990  16.2895250
  47.8947496  86.3566399  17.6922178  43.0776978  66.6832685  55.3393888
  42.1393442  66.5134430  55.4223824  43.2759857  67.2873116  56.0549593
  54.5051432  97.0137978  37.5596952  53.5795307  97.2530460  37.6068854
  54.6983099  96.9877243  36.6225505  37.3270202  68.1931925  44.6746349
  37.9180670  68.6362553  45.2833986  37.8961611  67.6160383  44.1655111
  33.2868099  86.1085892  18.4725189  32.3995805  86.2614536  18.1474221
  33.2212472  85.2963638  18.9747334  46.9164228  87.0576954  42.7634478
  47.5248241  87.3350811  42.0785093  46.1972904  86.6394329  42.2900105
  55.4237890  80.8881569  10.4935515  56.3307476  80.9586048  10.7913744
  54.9053288  80.9079361  11.2979400  45.6526184  87.7154732  32.7149177
  44.8969650  87.7042198  33.3023667  45.7396364  86.8092537  32.4192214
  37.3174929  11.4704904  25.4803681  37.2783061  12.2742566  25.9986877
  36.5247409  11.4922532  24.9443626  53.5488129  69.8046875  44.6315908
  53.2954264  70.5531168  44.0913343  54.2104197  69.3475771  44.1123962
  34.0839720 101.0297680  60.0629759  33.6880350 101.8184757  59.6922827
  34.9460506 101.3144398  60.3663254   3.4443226 103.2553637  85.6894354
   3.2767716 102.6561081  84.9620751   4.3750706 103.1431353  85.8826891
 104.1373920  99.5248222  22.4372244 104.5586777  99.1872120  23.2276464
 104.8203564 100.0339031  22.0006037  23.9501309  84.0029240  41.2744284
  23.5642266  84.8514557  41.0569572  23.2256770  83.4979057  41.6436958
  20.9753919  85.4100895  33.6590791  21.0549593  84.4572258  33.7033820
  20.9248567  85.6029415  32.7228713  41.6768599  79.8643351  29.7451758
  41.4183569  79.3840313  28.9585924  42.0354414  79.1947412  30.3276634
 104.9781041   1.8551358  39.3022776 104.8557811   2.3067960  38.4672499
 105.6236510   2.3856648  39.7692251  66.9174127   1.7126664  33.1316638
  67.4356704   1.8713578  32.3427057  67.4309640   2.1040067  33.8383126
  67.1230173  89.4380379  22.5226521  67.9784346  89.5182705  22.1006823
  66.6295290  88.8476562  21.9533157  87.1596435  38.3205434  86.4380822
  87.7213029  39.0750524  86.6155318  86.3876072  38.6918183  86.0110659
  14.0232945  18.4069336   1.5072938  14.2895366  18.1722343   0.6183263
  13.1421472  18.0439651   1.5971204  81.5152550  65.6858110  12.3899138
  80.7083702  66.0839605  12.0633519  81.2280369  65.1074553  13.0964863
  42.9250193  69.6619129  29.0485978  43.3975410  68.9101744  29.4061518
  42.4726439  70.0409746  29.8021936  46.1385345  77.1730757  43.2500124
  45.4715967  76.5040207  43.0957699  46.5742779  76.8956041  44.0558481
  49.8917866  87.4863911  38.9043880  49.9209261  87.7981472  37.9998493
  50.8101940  87.4312401  39.1684222  33.6400580  99.4356918  44.5701647
  33.5948777  99.3499851  43.6178780  32.9147077 100.0192356  44.7928095
 107.9974822   3.0942079  86.1256782 107.6185540   2.4984284  86.7719701
 107.4251226   3.0152007  85.3625313  28.1553984 102.2380161  35.4623938
  28.5304976 102.3826027  36.3310862  28.1468081 101.2862778  35.3606009
  21.6531511  34.7377606  84.4103781  22.5983043  34.7389623  84.2589996
  21.5623994  34.8282071  85.3589646  38.7775373  94.7424889  16.7142844
  38.2164574  94.7855568  15.9399676  39.4179177  94.0614700  16.5084577
  66.4316845  93.6752415  39.6427250  65.5487633  93.5423088  39.9877143
  66.6717196  92.8285503  39.2662573  66.8648195  86.1147404  16.7922175
  67.3749685  85.3617096  17.0904088  66.8255520  86.6939545  17.5532711
  97.7826670  29.9879285  73.8720564  97.0867637  29.6417829  74.4307414
  97.5459007  30.9052201  73.7351123  73.9480686  68.1914043  16.7337966
  74.5339298  68.0290794  15.9944391  73.8930416  69.1453123  16.7908466
  25.9195304  77.2053576  53.4483862  25.5163836  76.4193439  53.0797577
  25.7971787  77.1165133  54.3935680  84.5237446  62.5919294  13.1623244
  84.1629028  62.7458048  14.0354478  84.1663170  61.7431021  12.9016256
  42.3999023  69.9339676  20.9930682  41.4457941  69.8737288  21.0408664
  42.7078676  69.0642738  21.2480569  99.9959044  14.9591741  38.8813186
 100.9392600  15.1179608  38.9144564  99.7237830  15.3090867  38.0329394
  54.0619230  90.4843807   1.7953558  54.4703722  90.6309605   2.6485369
  53.3501530  89.8695278   1.9730242  66.3332272  84.4085598  20.8921862
  67.2094202  84.0530491  21.0409594  65.8119059  84.0739727  21.6219139
  46.7136811   1.3014993  22.8034520  46.7076276   1.7975911  23.6220384
  47.5827758   1.4588269  22.4344611  59.2243624  60.0656128  13.0614924
  58.3385277  59.7029829  13.0561888  59.2319155  60.6685066  13.8049269
  38.6170363  83.9414597  61.1488342  39.4672298  84.3347740  60.9520960
  38.7109995  83.6003399  62.0382357  68.7859801  63.1212827  89.2778715
  67.8821031  63.4129449  89.1588253  68.7240431  62.3978921  89.9016493
  56.8679476  97.4808598  16.9411135  55.9509611  97.6422405  17.1632135
  56.9559145  97.7974129  16.0420656  67.2734980  18.3749207  31.4400601
  66.9194798  18.2954701  30.5542898  67.1102481  19.2864427  31.6823721
  39.2438722  86.0108376  47.7499866  39.4065881  86.3536644  48.6287451
  39.3318725  86.7717361  47.1759510  94.1838460   3.4613427  23.8132501
  94.2101102   3.6161717  22.8690195  93.2695775   3.6095055  24.0549135
  16.8583167  77.2533798  45.3232288  17.6465571  76.7542553  45.5371952
  17.1741664  78.1425238  45.1623154  75.9464025  86.9254971  23.1834650
  75.4069805  87.4542809  22.5955462  75.9262562  87.3971748  24.0161371
  64.5294380  68.9500666  38.1709981  65.2807903  68.4636831  38.5103059
  63.7926435  68.6574554  38.7074184  32.1815658  86.0986233  14.3924749
  32.1993208  86.7623997  15.0819135  31.2738442  85.7953453  14.3753052
  73.7733559   0.2289685  73.0518007  74.4228511   0.4835519  73.7072182
  74.2138939   0.3643617  72.2128582  73.6473036  95.3319550  24.7250772
  74.3275452  94.6622944  24.7962046  73.6591291  95.7763577  25.5727792
  89.5439816  68.7722492  60.9844065  89.3596458  67.8363943  60.9042501
  88.9880466  69.1834211  60.3225136  22.7206326 101.5427971  55.8989048
  23.5520124 101.9379234  55.6364012  22.1771026 101.5834522  55.1120424
  59.7293234  71.5801191   3.8960448  59.4003773  71.4920998   3.0014622
  60.3570652  70.8638954   3.9919662  14.0838909  88.1037712  19.5217717
  13.5649788  88.8692951  19.2748988  14.9924529  88.3877563  19.4212663
  43.1312704  86.3597012  46.6788673  43.6379814  85.5509090  46.7518377
  42.8995848  86.4143658  45.7517385  50.0414085  96.1258316  29.3946886
  49.8606825  95.1962090  29.2555141  49.9575949  96.2471485  30.3404641
  27.4302673  79.2856789  15.0197136  27.9892635  78.8297129  14.3905461
  27.6513863  78.8937950  15.8645606  53.2499886  81.9691277  42.8226280
  53.1644344  81.6614342  41.9202805  53.4290361  81.1772919  43.3297396
  82.9795074  96.5344524  31.4322901  82.1990871  96.4812756  30.8806205
  82.7008247  97.0443058  32.1929646  50.6996536  82.0177269  46.4637661
  50.2347660  81.5034962  47.1238327  50.4490566  82.9234695  46.6455650
  27.7986574  78.6528206  30.7947159  27.4382591  78.9098787  31.6434026
  28.5110235  79.2729759  30.6392503  38.4402800  97.6268578  30.7833362
  38.0714226  96.8591690  31.2201858  38.7950659  98.1599045  31.4948273
  32.2258115  84.6695900  25.9246397  32.6357150  85.5345726  25.9263611
  31.8939400  84.5600319  26.8157578  24.3615913  42.1179771  57.3627615
  24.5123768  43.0602407  57.2876835  24.1782570  41.8326855  56.4676476
  25.9781122  86.6406727  35.2929759  26.4251447  86.3559818  34.4958878
  25.2401781  86.0375690  35.3821421 108.1672148  10.8858319  86.9983367
 108.0174354  10.1403590  86.4169020 108.6567835  10.5203029  87.7351818
  57.1376610  80.5808163  27.7401471  56.8167973  81.4275742  28.0504274
  57.8379440  80.3515434  28.3511043 110.8824067  12.8885278  26.9317389
 111.6163258  12.7692708  27.5345421 110.8794074  13.8264569  26.7406297
  44.2239285  58.6395502  26.5809441  43.5862875  58.1452131  27.0959949
  45.0448751  58.5483551  27.0646405  38.8607454  63.3486652  71.8224192
  38.6389756  63.0769873  70.9317780  38.4914112  64.2280054  71.9035625
  36.6627780  11.3697442  35.1503062  37.3975175  11.4473637  35.7588840
  35.8928581  11.5887174  35.6751943  20.5501032  55.0555372  11.5512586
  20.7239151  54.7345066  12.4361098  19.8885822  55.7371950  11.6694164
  73.9123058  42.4199629   9.4388783  73.9575195  43.3431244   9.1899604
  73.0770493  42.3365688   9.8989093  56.5640497  71.7690372  30.2114224
  56.6285229  72.7010584  30.0030684  55.7378006  71.6866684  30.6876159
  44.2923403  67.4475098  30.0215125  44.9509907  66.8600845  29.6509194
  43.7358427  66.8784046  30.5531693  39.6963358  86.8945980  25.0563717
  40.1993513  86.2468052  25.5499077  40.1643085  86.9789886  24.2256427
  78.1833224   6.7191991  31.8259215  77.3070674   6.8625363  32.1834946
  78.7662225   7.1823510  32.4275494  47.5060320  76.1327600  53.0747175
  47.3542023  76.6966248  52.3162746  48.2596397  75.5967855  52.8276587
   5.7217282  59.1134930  35.1819396   6.6771793  59.0987635  35.1260161
   5.4774415  59.9875402  34.8776388  11.2733503  18.6986991  82.4350700
  11.5000386  17.9976579  81.8240181  12.0796390  18.8590642  82.9253933
  45.2087164  62.6383924  15.6617188  45.4637814  62.1072626  14.9073493
  44.5931482  62.0875502  16.1453307  32.2915006  74.5422840  77.2898865
  32.7532196  74.3105221  78.0956984  31.3647270  74.4436073  77.5080252
  78.9723206  90.6524754  31.0312176  78.3509398  91.1347580  30.4857540
  78.4254026  90.0759029  31.5647721  77.3230271   0.8666715  45.5856848
  77.8216986   0.0620278  45.7274723  76.6581564   0.6258687  44.9405527
  74.3672419  96.6792870  20.0030136  73.7035894  96.7924404  19.3225765
  74.8170471  95.8681774  19.7663546  45.8912182  70.2566433  50.9560394
  46.6249609  70.6954050  50.5255318  45.5329227  70.9161711  51.5500784
  26.1091518  65.2894211  32.3505211  26.9492316  64.9343872  32.6411176
  25.6711984  65.5595255  33.1576586  60.1204586  85.5719757   4.0372694
  60.4612589  86.3818741   3.6575836  59.7632742  85.8366203   4.8849815
  28.5680342  94.0438557  28.9826488  27.7994990  93.5226345  28.7504601
  29.3109393  93.5276604  28.6698055  89.5133405   9.2375096  25.2567482
  90.2560334   8.6438283  25.1464152  89.7735028  10.0348672  24.7954679
  48.1073999  97.5508785  15.9122360  47.3193455  97.7535248  15.4081118
  48.7843752  97.4071312  15.2509689  30.3681231  79.4677544   1.1013652
  30.1406837  79.5640230   2.0261544  31.1359525  80.0271416   0.9840630
  42.5237656  68.0384445   5.0817847  43.1460762  67.3990440   5.4283804
  41.9014072  68.1781578   5.7954979 103.3288865   0.3417119  60.5548811
 102.5973658   0.9464845  60.4309416 103.9242606   0.5343350  59.8305464
  30.0386882  72.5602674  35.4449677  30.9447312  72.5858498  35.1372933
  29.8734951  71.6351080  35.6267118  46.1596727  97.6023483  45.0024080
  46.7365408  96.8857098  45.2667618  46.5276432  98.3759689  45.4294014
  49.7345829  88.8013172  30.1675940  49.1939497  89.1541195  30.8743334
  50.6033993  88.7027264  30.5570316  52.5703716  97.9821873  23.7415457
  53.3756161  98.2059288  24.2081857  52.8368902  97.3129368  23.1112266
  23.2293820  83.7607574  32.5226498  22.9687428  83.5687256  33.4234405
  23.7995315  84.5261002  32.5962663  42.8071404  81.8155670  19.1830981
  42.8171682  82.5727272  19.7686172  43.0075169  82.1776009  18.3199549
  39.4111156 101.6098785  37.3543429  39.8921371 102.4233627  37.2023344
  39.8121667 101.2376690  38.1397367  33.1511569  88.1012154  42.8476763
  33.7469745  88.2725048  43.5769892  33.6804366  87.6156521  42.2149658
  45.7280874  88.9660740  16.9445384  46.4803219  89.0820312  17.5249922
  45.2524662  88.2223415  17.3145103  36.9504547  79.1232967  52.5465965
  36.2049484  78.5234213  52.5221062  37.7157235  78.5518360  52.6100492
  52.3374891  70.7773876  22.4500680  52.9228020  70.8264589  23.2058692
  51.8367767  69.9731207  22.5867152  89.0287018  71.8818665  25.2997494
  89.6889496  71.5836668  25.9253573  89.3016624  71.5025282  24.4643927
  30.6236787  14.1870614  83.3426330  29.9224372  14.8365947  83.3935729
  31.0093541  14.1817685  84.2186812  39.3040872  77.3511028  42.7226162
  39.3279481  76.9781685  41.8413734  40.2195835  77.3648643  43.0017376
  83.2633209  96.2832642  42.7264357  83.8851833  96.9804287  42.5178957
  82.8841782  96.5437126  43.5658693  76.6392172  18.9177676  88.4518245
  77.5517741  18.6654778  88.5926182  76.1743141  18.0874082  88.3488462
  67.4441099  73.2480812  31.2861443  66.6068935  73.6845016  31.4437485
  67.2443581  72.5742340  30.6363249  50.1414061  63.5633039  29.6043229
  50.0915575  63.0359840  28.8070250  51.0778809  63.7125826  29.7345877
  91.6586737   1.8910417  44.4524813  90.8495049   2.3208341  44.7295141
  91.5842013   1.8313226  43.5000563  28.4916401  75.8382273  23.7798548
  27.6905847  76.3476181  23.6570978  28.8991022  76.2166834  24.5589447
  42.2755666  47.6188870  86.6955594  42.4066110  46.7362329  86.3491762
  41.7496391  47.4907418  87.4849988  21.1122084  25.2656245   1.0990568
  20.8276701  25.6566715   1.9251028  21.4723110  24.4145346   1.3484603
   8.9534533  90.7850552  11.8997931   8.4528470  91.2901115  12.5405300
   9.8392630  90.7509899  12.2609198  28.5465002  99.4985485  16.6874313
  27.9952002  99.8968697  17.3609591  27.9791999  99.4373417  15.9188890
  87.1031475  81.3003445   5.6072706  88.0413437  81.4741230   5.5309290
  86.7693806  81.3909245   4.7147325  35.6723070  84.1408825  58.5118628
  34.7535181  84.3955517  58.5967636  35.9999800  84.6662140  57.7818680
  52.9820108  80.7647991  46.1763382  52.1420145  81.2233257  46.1565733
  53.0972385  80.5154037  47.0932674  55.0380278  80.5664825  17.3010802
  55.0673199  80.5616951  16.3443398  54.3072796  81.1463928  17.5154316
  57.9789209  88.8003635  24.6873760  58.6289358  89.3965626  24.3155336
  58.3691025  88.5030746  25.5093288  42.0266533  74.9455357  52.0861197
  42.2027922  75.7595205  52.5579691  41.8963909  75.2185106  51.1779642
  40.8026123  83.7348747  46.2380362  41.0480547  84.3770313  46.9040871
  40.5275202  84.2614555  45.4875183  62.6338339  85.3322792  44.6790981
  63.5523510  85.3279686  44.9484348  62.3712301  84.4122791  44.7087193
  56.7010117  74.4957781  29.2493939  56.9917202  74.2046738  28.3851147
  56.5826368  75.4410696  29.1564488  19.7286124  58.8694402  83.4472821
  20.4090781  59.5422097  83.4231642  20.1789136  58.0640813  83.1925974
  70.3406382  66.6138315  33.8643265  69.5277929  66.6870356  34.3644786
  70.0851297  66.8073130  32.9623771  51.8819809  92.8784657  75.3248358
  51.5076351  92.5706196  76.1502647  52.8285599  92.8215885  75.4551649
  77.4640560  73.2269096  52.8587675  77.6798820  72.6909399  52.0956278
  77.2444057  72.5934649  53.5419464  69.2194462  70.6118631  30.6012559
  70.1128531  70.3802299  30.8550334  69.3059015  70.9649372  29.7157645
   5.2673522  66.4842129  64.5152855   4.9860183  67.3744440  64.3041706
   5.9138576  66.5962696  65.2122116  59.3214464  71.6299248  33.2595110
  59.9750805  71.2980413  33.8750148  58.5760689  71.0377359  33.3592749
  30.3650951  90.9703827  10.6704712  29.7500420  90.4760742  10.1286256
  30.5224276  90.4074860  11.4285100  35.7797265  81.3945389  34.4449663
  35.5949593  82.3336983  34.4359636  35.5693555  81.1005497  33.5586572
  49.7153187  71.0959959  35.5510259  49.5984983  70.6161642  36.3709927
  48.9818573  71.7105389  35.5265498  65.0914192  71.4940834   3.4536311
  65.6956959  71.1159515   2.8148016  65.6242466  72.1171522   3.9477122
  24.6637321  78.4744120  18.5698545  23.8080454  78.1532717  18.8542807
  24.4851875  78.9407969  17.7532530  18.0505748  52.3442193  76.2999753
  17.3529906  52.0195886  76.8693761  18.0810733  53.2854672  76.4713446
  46.4858580  53.2261372  17.2832096  45.6596565  53.2974815  16.8051589
  46.4466333  53.9260101  17.9350281  43.6144304  47.5466585  26.6899276
  43.2859230  48.1254673  27.3778939  43.5857725  48.0791330  25.8950162
 109.7012238  10.6603440  18.9921021 109.4428162  10.1038560  19.7267962
 110.3734212  11.2378320  19.3538928  54.6287155  56.8898058  12.0613647
  55.0491524  56.0587931  12.2824502  53.8114309  56.6378355  11.6314912
  81.9299698  81.4741421  50.7822514  82.4220085  81.9227600  50.0945997
  81.4118385  80.8176613  50.3166151  11.0936733   7.8745850  69.1620255
  11.9568058   8.2752522  69.2654419  11.1946865   7.2757443  68.4221506
  40.2874327  66.8192482  55.7229567  39.9942780  67.7304506  55.7239151
  39.8579574  66.4302731  54.9610615  27.8202033  68.5102797   5.5258656
  27.6491570  69.1200829   6.2435806  28.2988572  67.7886009   5.9336764
  22.8008027  54.6242352  81.7787865  23.3924956  55.2185365  81.3173256
  22.6543708  53.9061471  81.1630491  44.4359350  92.0770836  53.0651236
  44.7131443  91.3711262  52.4811602  45.2483034  92.5237942  53.3033276
   8.3433290   1.9300290  80.0180391   8.6706538   1.6892215  80.8846990
   8.8196082   2.7300616  79.7959188  32.4024940  72.8543901  34.0155292
  32.3658347  72.4938393  33.1295896  33.2886767  73.2076168  34.0938854
  34.5719767  97.9931736  34.9623609  35.4266381  97.9060268  35.3844905
  34.6913338  97.6021194  34.0968776  71.8047098  15.0087424  87.9114178
  70.8623565  15.0004264  88.0791459  71.9720260  14.1903468  87.4440158
  42.4606037  95.9082603  25.7009649  42.2743130  96.8331528  25.5393672
  41.6006374  95.4879475  25.7054162  27.1460962  81.5458870  23.1146550
  27.5425029  82.4096584  23.0006170  27.8892708  80.9433842  23.1447506
  24.4021058  83.4686279  67.7362537  24.8770452  83.8263607  68.4863853
  23.5480881  83.2200050  68.0899048  62.2415118   0.0346097  73.5051823
  62.9451876  -0.3501788  74.0276861  62.6855640   0.4099854  72.7448273
  25.3393412  85.3303146  43.6742401  25.0626493  84.4346809  43.4805489
  25.9154034  85.2440548  44.4338083  42.3719358  82.5014400  51.4819527
  42.2042799  83.0839825  52.2227430  41.6870689  82.7161407  50.8486366
  31.2225461  67.5561619  47.2576809  30.8696771  67.5148582  46.3688564
  32.1488643  67.7656221  47.1381330   0.0120302   4.4592198  42.8879118
   0.6530520   4.6914491  42.2160530  -0.3368572   5.2990540  43.1865549
  45.5275536  66.4408302  24.2324877  45.2525663  67.0261097  24.9382210
  46.2948799  65.9879160  24.5822287  40.6606627  73.8745070  22.5921750
  41.5242577  73.6712456  22.9515052  40.3795195  74.6542501  23.0709147
  39.5395970  91.7272949   3.5550842  38.9109063  91.9259548   2.8611726
  40.3890228  91.7203045   3.1138837  67.2174840   0.9739312  21.5767813
  66.9726615   0.6375798  22.4388504  66.5530734   1.6342172  21.3797712
  30.8684683  88.3105183   5.9518135  30.0049305  88.6441898   5.7085139
  31.4669299  89.0326023   5.7603192  31.9631481  87.5854492  32.0372677
  31.5197825  86.7383289  31.9919896  31.5079474  88.0570412  32.7348518
  24.9594235  91.2273216  20.5903006  24.3000293  91.1259556  21.2767076
  25.5732250  90.5081940  20.7397509  83.0737119   0.0374135  16.9495738
  82.6753430   0.1294431  17.8150594  83.8746505   0.5593404  16.9978416
  28.1442733  51.0571309  72.8228561  28.0074115  50.2976056  73.3890799
  29.0957351  51.1439630  72.7644101  38.5420251  79.8405790   1.4288113
  39.2155123  80.5196857   1.4671099  38.4864187  79.6104383   0.5013552
  43.4694195  77.5927353   2.6738474  43.4677887  77.4629831   3.6222109
  44.3590069  77.3662043   2.4026386  45.0998354  75.9930897  39.4499707
  45.7823563  76.6502523  39.5860887  45.2689362  75.3299713  40.1192331
  65.1777411  79.5569897  13.6564171  64.6591139  79.1213512  12.9800463
  65.2538157  80.4620171  13.3541334  19.0578127  58.2769012  46.9672823
  19.1489160  57.3627710  47.2361755  18.8882995  58.7503767  47.7817249
 106.8091159   7.2949323  60.3887033 106.6980462   7.4813661  61.3209772
 107.0140748   6.3605699  60.3540564 107.7307895  41.0038396  88.0634746
 107.8033355  41.6234799  87.3375157 108.3318833  40.2950212  87.8343413
  58.1791210  80.8803558  55.6931019  58.5636902  80.0361347  55.9289789
  58.0317831  81.3189316  56.5310621 110.1964621  29.2243585  28.2153273
 109.9581866  29.1007146  27.2965407 110.5296283  30.1207074  28.2578254
 103.3414035   2.1993550  62.8313112 103.4977774   1.6117772  62.0920277
 103.3987908   3.0777749  62.4554014  88.1075530  19.0071019  49.2683315
  88.8133101  19.5821866  49.5639896  87.8735165  19.3409070  48.4022856
  83.3169842  94.0631199  30.5335879  82.7981567  93.7173367  31.2598634
  83.3896351  94.9999905  30.7158804  55.3549671  79.1158724  62.0739508
  55.8828688  78.3409739  61.8813753  55.9334183  79.6776152  62.5897694
  95.5106644   2.1354970  27.5798321  95.7527499   3.0539426  27.4612021
  94.6145682   2.0792207  27.2480583  80.4326110   1.3802442  19.0549481
  80.9440665   0.6155118  19.3191969  80.7606511   2.0901498  19.6068966
  43.9770126  90.4328537  31.6497636  43.1286144  90.1237869  31.9674611
  43.8394928  90.5923176  30.7160139  95.6682014  73.8548136   2.6167908
  95.6330109  73.0593252   3.1480083  95.0207043  74.4370651   3.0142266
  70.6734280   5.4332837  24.6233106  70.5789237   4.5427236  24.9612570
  71.6164188   5.5448827  24.5027041  66.0744715  91.8434811  43.8756990
  66.4870358  92.2421169  43.1094646  66.0824919  92.5340462  44.5384836
  74.4179158   0.7081326  53.2357788  74.6328335   0.9273538  52.3291492
  74.3546586   1.5545377  53.6783123  34.6531863  92.8631516  89.0955684
  33.9037175  93.4385034  89.2488722  34.4824500  92.4703713  88.2395283
  90.3229813   7.2131738  21.5137243  90.1838212   7.6127156  20.6551003
  91.0687451   7.6878842  21.8807626  52.8799200 100.9934616  43.4804440
  51.9366360 100.8349037  43.4443188  53.2520485 100.1599312  43.7685013
 103.8062196  22.9629716  19.8298907 104.4690232  22.4580106  19.3587899
 103.1022792  22.3364552  19.9977124  76.5045691  97.6388550  53.1154823
  77.3471260  97.4306297  53.5191822  75.9407949  97.8822327  53.8497543
  76.2650328   1.0659989  29.2396784  76.7604928   1.6824349  28.7004519
  76.7101793   1.0774907  30.0869942  51.1137438  68.1590557  23.4382105
  50.2509403  67.7739334  23.5914612  51.7057037  67.4084759  23.3887410
  74.2046404  78.0645943  10.2347314  74.6841621  77.7136707  10.9851599
  74.4776630  77.5169563   9.4986725  60.5910778  91.7899323  49.0032482
  61.4771843  91.4396572  48.9118433  60.0275469  91.0162640  49.0131760
 101.5007930  16.2442311  24.7719979 101.7041449  16.9681367  25.3643084
 101.6995387  16.5852174  23.8999534  98.3327250  10.4189118  13.6713159
  99.1965251  10.0426492  13.5024810  97.9690270   9.8785409  14.3727171
  68.4682274 104.5029831  58.5676575  69.2612505 104.3279839  58.0609798
  67.8059721 103.9297390  58.1816101  92.3765521   9.5242509  29.4290304
  92.5285201   8.6684808  29.0280318  91.4344935   9.5460423  29.5972204
  69.8683310  92.2018528   0.9487730  70.3906107  91.6160965   1.4968061
  68.9793968  91.8509483   1.0025483  15.4928565  91.9607258  31.4040852
  15.3528440  91.0241795  31.2644100  15.1223528  92.3769760  30.6258225
  75.0324440  88.8655567   7.6796424  74.3162298  89.4318485   7.9669940
  75.8174133  89.4048977   7.7753967  70.5855894  72.8134251  19.1733909
  70.7522583  73.0064678  18.2507920  70.8045673  73.6249924  19.6312535
  99.2934089   1.7790994  12.0306718  99.5491414   2.3912152  11.3406420
  99.9903731   1.1230477  12.0392489   9.3478295  33.7749871  41.5467739
   8.5321232  33.6946973  42.0411539   9.0851113  34.1645821  40.7128477
  80.7697773  81.6393280   1.1246590  80.1106453  81.0044098   1.4051269
  80.3140068  82.1938038   0.4913650  18.9113040  34.5350953  85.7302401
  18.6095090  33.6679479  86.0008210  19.7245450  34.6683808  86.2171731
  33.0495858  79.9945021  60.3221130  32.9259276  80.2490520  59.4077063
  32.4159288  80.5242062  60.8059835  48.6284208  96.5531540  38.6542296
  48.9843798  95.8012962  38.1806922  48.5309553  97.2323036  37.9867887
  94.0717273  33.7475594  70.3921556  94.8443560  34.2946633  70.2509356
  93.3829217  34.3648538  70.6385851  53.9835410  13.6772164  20.0154281
  53.5574333  12.8658875  19.7390127  54.9104862  13.4490308  20.0856805
  47.2552872  98.1574154   6.3219553  46.9998598  97.2444630   6.1895984
  47.4132967  98.2278347   7.2633934  77.4841499 103.4390545  21.8888164
  78.3225250 103.8748074  21.7355657  77.7207851 102.5472164  22.1434641
  24.0176816  60.6313153  89.4666981  24.2549081  61.1383649  90.2431363
  24.7928710  60.1015397  89.2805511  22.6482654  75.0967693   9.0607810
  23.4040594  75.6329775   8.8210177  22.3327780  74.7422028   8.2295275
  49.5480442  93.1886959  25.0115299  49.5861483  92.3853779  24.4924355
  48.8178110  93.0497646  25.6145906  16.4062095 101.4639282  18.7484348
  16.5779400 102.3043156  19.1732645  17.2285092 100.9810734  18.8315511
  99.0828280  10.3841790  19.6606290  99.4283442  10.9321221  18.9559269
  99.7888617  10.3506860  20.3060961 104.2208295  39.6090230  29.0732169
 103.4780793  40.0470838  28.6577034 103.9311795  38.7040242  29.1886115
  47.4950600  87.9341412  55.8050203  47.7246618  87.4918175  54.9877882
  47.4508762  88.8613224  55.5713129  57.2670603  73.9234161  26.8599010
  57.1446562  74.3176222  25.9962726  56.5013218  73.3611965  26.9772696
  40.4825544  94.4886494  44.7542906  41.0287762  93.8648510  45.2325678
  41.0967207  94.9667740  44.1971207  84.8057270  67.7014303  64.5714474
  85.2919483  66.9596720  64.2114305  83.8868809  67.4428463  64.5000744
  52.2756624  77.7072763  62.9613304  51.4375973  77.7023792  63.4237766
  52.7464342  78.4563637  63.3266687  51.5128994  90.3805637  43.7783909
  50.6750345  90.3731918  44.2411757  52.1373749  90.7209110  44.4190359
  53.9218473  73.8213348  46.4564896  54.6573734  73.2087755  46.4592171
  54.3186712  74.6712399  46.2656546  60.0591516  86.5800762  35.9313798
  60.6412220  87.1469307  35.4253149  59.9839306  87.0123577  36.7820907
 107.0744519   2.1657285  57.2361755 107.3508601   1.8230637  56.3862324
 106.6002326   2.9705247  57.0272303  77.1003156   5.2990064  55.6520462
  77.7943854   4.6774491  55.4325724  77.5025468   5.8933553  56.2854338
  15.6697381  67.5017309  48.3060074  15.8301914  68.3593559  47.9123545
  14.8829734  67.6253366  48.8369989  83.4918217  21.4968881  20.2483416
  83.5781388  21.6963204  21.1805463  84.3139987  21.7982778  19.8617959
  81.9724369  80.5972004  26.9195437  81.9506931  80.9699726  26.0381818
  81.1343956  80.1432991  27.0083570  80.8849912  10.6305798  18.4863615
  81.4325337  10.8227071  19.2476225  80.0273137  10.4196557  18.8553238
  92.3190598   6.2382325  61.3106728  92.2234683   7.0704373  60.8475113
  92.1357589   5.5726632  60.6476021  65.5592518  25.5981263  21.0300016
  66.2862472  25.5759438  21.6522694  65.9765034  25.7309541  20.1788330
  57.3260641 102.5461578  55.0969982  57.4918604 102.7948189  54.1876507
  57.6309872 103.2949162  55.6094599  55.5354691  90.9923077  12.6289785
  55.6337690  90.7968712  11.6971147  55.2436447  91.9036198  12.6530838
   0.5699631  20.3522309  30.9596705   1.3595673  20.4105576  30.4217505
   0.7899758  20.8282575  31.7604351  49.6510220  90.8616924  49.9004269
  50.3944635  91.4584827  49.8145723  49.7067308  90.5374527  50.7993126
  16.7685314   6.0978135  27.2656775  17.2761532   6.4311322  26.5257764
  15.9007546   5.9230718  26.9014621  42.9973030 102.7767563  21.3309169
  42.9007959 103.4956074  21.9555545  43.3092737 103.1963921  20.5291605
  69.4320631  95.5866051  10.3046644  70.0724840  95.7504082   9.6123779
  69.3197107  96.4353561  10.7327187  46.3527060  95.7222271  17.3084450
  46.7969084  95.0538349  17.8301394  47.0275021  96.3787270  17.1355391
  20.3855701  96.8552991  86.8846644  20.5980153  96.1209794  87.4607492
  20.9322448  96.7186376  86.1109049  63.6773257   1.7524442  46.2784719
  63.3883385   1.1036786  45.6367350  64.3616562   2.2470197  45.8275652
  38.4972024  84.7582054  21.1544895  39.0268159  84.7672367  20.3572059
  37.9762721  83.9580250  21.0869384  42.8653383  87.4618340   3.4376913
  42.1717119  87.7964020   4.0061799  43.6341476  87.4061871   4.0052015
  82.7578640  96.8605137  20.3117871  82.5838280  96.5942764  19.4089806
  81.9115925  97.1655273  20.6389236  88.4396076  98.7697411  22.8107119
  89.1615677  99.0793324  23.3576655  88.3874893  99.4078636  22.0991492
 107.7253918   1.2907227  32.2996664 108.0182557   0.8685120  31.4920759
 108.2958083   0.9305200  32.9787183 110.9068112  -0.1327983  51.7315674
 111.4330344  -0.1153270  52.5309515 110.6998448   0.7860478  51.5609217
  87.5119643   2.8712186  49.8891640  86.7867045   2.4506864  49.4272375
  88.2191949   2.2267732  49.8617697 104.7715381  49.6596166  78.9076320
 105.1912812  48.7997266  78.8823131 104.1590480  49.6489068  78.1721214
  90.8431487  27.9664239   6.4365268  90.8719354  28.3915051   7.2936773
  90.5886893  28.6634931   5.8319050  91.7029147  15.0806722  10.1255953
  91.1027007  14.4131097  10.4577529  92.5587897  14.6521005  10.1205981
  46.0162926  91.9659996  42.1838236  46.2560081  92.8923512  42.1582603
  46.7420626  91.5186882  41.7486191  70.1654625  79.5503712  40.9414577
  69.2609167  79.3310547  41.1649179  70.2599573  80.4676247  41.1982536
  66.8846560  84.9883842   7.9455638  66.4471531  84.4996643   8.6426836
  66.3594913  85.7821369   7.8435731  29.1617680  88.7888336  24.2694139
  29.9901438  88.5679245  23.8437080  29.3881106  89.4833660  24.8879838
  31.8906494  20.9310731  17.1830046  32.0571228  21.1478623  16.2656605
  31.9545838  21.7683896  17.6424015  39.8188019  85.0244522  43.8777733
  39.0693569  84.5979500  43.4622478  40.3772306  85.2919006  43.1478024
  59.9705887 101.1693382  38.0262542  59.5334959 100.4996395  37.5002408
  59.3509388 101.8985558  38.0485821 106.4644484   6.1982545  36.5483236
 106.6558509   7.1119794  36.7597342 106.2300591   6.2111482  35.6203532
  92.6479816 100.2308369   3.3107287  93.2767773  99.5132637   3.3877921
  91.8185902  99.8552704   3.6062014  78.2132292  72.3113728  11.1079526
  77.3242903  71.9564104  11.1035264  78.6092186  71.9556427  11.9034922
  87.4850993  12.6829347  35.2958226  87.3706631  13.3839997  34.6542358
  87.9553180  11.9978341  34.8206735  51.5360308  73.3833981  22.4151397
  51.5583467  72.4327183  22.3058367  52.3013783  73.6978483  21.9338894
  83.3137803  16.4686307  55.5423975  82.4113660  16.3779553  55.2363682
  83.8270335  16.5866479  54.7430992  64.4585133  87.5996971  57.2579479
  64.4644642  88.4779549  56.8773365  65.1223326  87.1196175  56.7628813
  82.2921662  28.3228501  51.4286041  82.7851920  27.7979096  52.0591545
  82.5692754  29.2232808  51.5979576  72.8571467  11.2017163  40.1412439
  73.3792786  10.8207997  40.8472967  72.4339561  10.4510697  39.7245145
  78.2214355  91.4245701  35.1001668  77.5860167  90.7514668  35.3439069
  77.8569269  92.2367001  35.4520369  82.9582028   3.6207017  44.4560242
  83.5253625   4.3743333  44.2928886  82.1317153   4.0024766  44.7516584
  22.6393743  25.1024076  71.7598060  21.8363757  25.0925942  72.2807041
  22.7707524  26.0246154  71.5395836  41.8428516  83.2820034  70.3205538
  42.7598190  83.4666061  70.5238438  41.4464235  84.1445541  70.1977253
  32.3495579 102.2986984  69.1141748  32.1403337 101.5786648  68.5191870
  32.8929710 102.8897953  68.5930824  41.1173248  94.3879795   7.5649154
  40.6010342  94.2607880   8.3608395  40.7779694  95.1990032   7.1863478
  31.1753888  51.6569158  89.8675153  31.6373201  51.6342660  89.0294576
  30.9368367  50.7450315  90.0342282  73.9891577  83.0347252  34.7100544
  74.4720888  82.8998280  35.5254149  74.6534824  83.3195496  34.0825319
  63.1612921 100.8599186  27.6512384  63.0992126 101.2291718  26.7703128
  63.6648417 101.5057945  28.1467319  55.9040451  79.6916294  30.4330516
  55.8364344  80.5670643  30.0519061  55.6131935  79.8014355  31.3383579
  51.1217313  18.9264306  42.2520399  50.2736490  18.8468369  42.6886797
  50.9046655  19.0520677  41.3282824   1.2520691  32.9106149  12.3716176
   0.7311198  33.5672101  12.8339267   1.5233752  33.3457955  11.5633810
  88.5412125   0.7269010  24.6153855  87.9374986   1.3859376  24.2726970
  87.9758935   0.0831040  25.0422001 108.1709914  17.8670796  27.5871873
 108.2311635  18.8045701  27.4035645 107.4859195  17.5511178  26.9980621
  41.5263081  85.0570393  26.2354875  41.4458561  84.4718838  26.9887161
  41.9440746  84.5223427  25.5603528   7.5269981  83.3527108  90.3194093
   7.0616622  84.1314145  90.0139264   8.3374639  83.3428594  89.8102122
 100.4873280   4.4393929  21.7520738 100.9938531   5.2515515  21.7438602
 100.6236653   4.0809449  22.6290917  65.4004383  95.9797573   6.6192734
  65.8986521  96.7799091   6.4526433  65.8782244  95.5425262   7.3241031
  48.7315559  80.8215046  38.2405186  48.8607025  81.6033363  37.7035880
  49.1909742  80.1276016  37.7675939  89.0490680  20.5705270  19.0803993
  89.2448382  19.6509847  18.9005518  89.9001984  20.9630784  19.2745793
  74.5336008  59.5678663  18.6598229  73.6856413  59.9971676  18.7733912
  74.3171310  58.6874914  18.3527279  63.5065746  78.5615683  28.5547853
  63.4606981  78.1263828  27.7034712  62.5949001  78.7515640  28.7760949
  55.1321459  93.2088470   2.0659149  55.5646324  92.5347424   1.5417299
  54.2053986  93.1303215   1.8396415  76.9484329  79.4802999  34.4929528
  77.2202158  80.2799892  34.9433613  77.5083303  79.4400120  33.7176323
  58.4169149  72.6607132  36.9558859  59.2973757  72.9062223  37.2400451
  57.8374338  73.0409575  37.6160669  77.0914798  36.3301572  29.4157290
  77.8364091  35.9158620  29.8512435  77.4336247  36.6042336  28.5648179
  89.0018325  19.6666535   3.0452397  89.2536788  18.7531957   3.1809288
  88.2595830  19.6234330   2.4423848  59.9478388  92.3819447  30.8540058
  59.1526175  92.8730583  30.6474614  60.2120018  91.9923401  30.0205469
  77.2564459  77.5800276  19.9451506  76.8808603  76.7003536  19.9818456
  76.7454910  78.0307579  19.2728424 105.7123761  24.3295010  44.5032930
 105.5577950  25.2725228  44.4481277 106.3227992  24.1446885  43.7895298
  45.0333214  91.8994713  26.1820173  45.6451607  91.2646961  26.5547705
  45.4172802  92.1347237  25.3373480  75.1679087  65.8056450  71.8227625
  75.7251740  66.0650921  71.0890245  75.7557154  65.3384924  72.4164629
 106.9533686  14.0433034  42.3583984 106.9751363  13.3057603  42.9681396
 106.8010049  13.6422547  41.5027237  70.2107239  78.0008125  18.2716537
  71.1068916  77.6822805  18.3796060  70.3032827  78.8111782  17.7706814
 104.0418916   8.5503777  40.7226467 103.7176900   7.7092656  41.0446072
 103.5940318   8.6753091  39.8859620  42.8974819 100.1730728  38.6246634
  43.2075071  99.3625259  39.0285683  43.1263828 100.0825310  37.6996565
  50.0707197  90.0854874  52.5120735  50.8458471  89.5558262  52.6988125
  49.5614815  90.0586796  53.3221245  34.3733978 102.9433155  39.3475056
  34.3493819 103.8816643  39.1599822  35.1096368 102.8382683  39.9501228
  48.3237839  85.3199863  30.2238321  47.9856491  86.0175228  29.6622753
  49.1699696  85.6471920  30.5290103  66.9815159  87.4503994  19.7109270
  66.6475010  86.5573215  19.6267605  66.2540579  87.9434204  20.0903487
  35.2350974  82.7459431  27.3562694  34.5030570  82.3988056  26.8465233
  35.3650880  83.6312866  27.0164132  51.5939808  79.4879580  41.8668556
  52.3803854  79.2690086  42.3667192  51.0002851  78.7529612  42.0202923
  87.7867799   6.8294248  53.8136959  87.3906712   6.0992249  53.3381557
  87.5104956   7.6080522  53.3303404  20.8455367  38.2534715  80.9486351
  21.6723485  38.7215634  80.8324424  21.0952993  37.4232121  81.3542435
   3.6210389  43.0802175  79.7161964   4.2710538  43.7815400  79.6730796
   3.8458200  42.5002500  78.9886311  63.4786272  86.0718441  48.4023905
  62.8784323  85.3726959  48.1431675  63.9291811  85.7271194  49.1733646
  36.5925598  94.0327358  29.2222595  35.9209275  93.4294987  28.9040709
  37.3077536  93.4650517  29.5094132  86.6656494  77.5540590  30.5694938
  86.1311913  77.6873302  29.7866583  86.8060589  78.4350348  30.9164739
   6.2361093  52.9939004  89.3210237   5.5584665  52.9938813  89.9970639
   6.1129470  53.8228246  88.8584671  53.4252501  96.7911720  62.9431915
  54.0969896  96.9632530  63.6030293  53.7115908  97.2856712  62.1752644
  19.5367809  61.1891671  79.9944202  19.1655679  61.3793775  80.8559630
  20.1192517  61.9275495  79.8162619  47.8297949  73.8078594  19.0524244
  48.6097240  74.3461084  18.9174116  47.3259020  73.9095259  18.2449663
  68.3465338 100.2868557  18.9122832  67.5092411 100.5902767  18.5614181
  68.3074379  99.3336105  18.8346410   1.0274931  15.9832868  20.0278378
   0.1723715  15.8456620  20.4353428   1.2215754  15.1533326  19.5922351
  48.2266235  96.9934273  19.8831248  47.7568865  97.6639938  20.3790259
  47.8707933  96.1648560  20.2041817  88.2472229  92.0822811  54.6321678
  88.5955906  92.7606297  55.2107191  88.9614391  91.8977833  54.0221786
  81.1270237  99.1633129  10.3813112  81.9482136  98.9402962  10.8196425
  80.9406853 100.0589275  10.6630540  89.5287328  19.5998200   8.8541144
  89.9948554  18.9031323   9.3162769  88.6965375  19.6811780   9.3200201
  27.4674606  80.0997639   9.3765467  27.9453564  80.9278584   9.4224894
  28.1071997  79.4390011   9.6417975 107.7891545  19.6868714  23.3774638
 108.5835080  19.9683103  23.8313651 107.1044164  19.7282800  24.0450382
  74.4297557   8.3395585  16.3566244  74.3458276   8.0169114  15.4593563
  73.6507850   8.8793763  16.4908862  62.7990966  33.4987935  77.9705524
  63.5729770  32.9878339  78.2077456  62.0617752  32.9181489  78.1587982
  58.6919546  83.3898258  53.5620737  58.3704758  82.7832317  54.2291021
  57.9304409  83.9245987  53.3376789  28.1685162  77.8489399  40.8611155
  28.0155325  78.7936687  40.8433437  28.5747766  77.6880693  41.7127609
  97.8814845  44.3141755  51.7075014  97.9480557  43.8326939  52.5321102
  98.7732749  44.6150884  51.5331793  75.7169633   9.6956738  28.5840225
  76.1902242   9.1319760  27.9720545  75.2615957  10.3260240  28.0258727
 102.3274040  97.0408249  46.5886641 103.0674076  96.5401459  46.2452221
 101.7999077  96.3958740  47.0598459  63.4333467 100.9784603  22.8074431
  63.8197279 101.6238213  22.2154522  64.1610289 100.4023933  23.0416608
  97.2313409  21.1089238  25.2442312  96.3750319  20.6849488  25.1875186
  97.1590762  21.8722638  24.6712446  74.0446234  99.0520859  14.1969478
  73.2403803  98.5348892  14.2410517  74.3430948  98.9541245  13.2927620
 108.8258986   9.1702279  26.4814115 108.7220673   9.4468793  27.3918581
 109.7715478   9.0776929  26.3655686  83.5180759  99.4801807  35.6119370
  83.1243324  98.9190483  36.2800169  83.0837440 100.3258896  35.7231307
  74.1485357  99.1438198  28.4303951  74.7725344  98.8147926  29.0773892
  74.4936275 100.0004864  28.1788802 110.3611092  24.8287972  21.4325500
 109.5697932  24.9555501  20.9091139 111.0560899  25.2415379  20.9198332
  91.3539176  29.4793805  22.0252085  91.1462169  29.5468053  21.0932493
  92.2575383  29.1643819  22.0470357  70.6840992  83.7645340  19.3449938
  71.2388325  83.2760715  19.9531889  71.0524940  84.6479988  19.3415749
  24.2220875   6.4233025  23.7120962  23.2730957   6.5375718  23.6612582
  24.3984791   5.6460580  23.1819916  42.2299814 103.1568432  11.6148448
  41.6275501 102.9613876  12.3325562  42.2208023 104.1116428  11.5477288
  61.6819048  70.7966089  55.5356979  62.5771904  70.7763672  55.8737612
  61.5562963  69.9347830  55.1385736  19.1146894  54.7453137  60.1425770
  19.2494579  53.8789865  59.7584609  18.2755513  55.0373097  59.7864560
  81.6504960   0.0378331  11.0838687  81.5678792  -0.0135509  10.1316273
  80.7756429   0.2801045  11.3874567  32.5753617 101.0596085  40.4706383
  33.0669332 101.4878750  39.7697949  32.4067426 101.7561817  41.1051416
 104.1862206  10.0164708  37.5969243 104.3564086  10.6637391  38.2812572
 103.3014827   9.7006806  37.7806234  60.3233051  95.8247948  62.9239511
  59.6320868  96.4110279  62.6160860  60.6377554  95.3886127  62.1320581
  47.9949665  82.1970749  56.2978172  47.8152752  83.1211281  56.4712524
  48.0431604  82.1374226  55.3436947  55.1167440 104.7485447  19.3435752
  54.3370724 104.7595692  18.7883961  54.9096966 104.1196156  20.0348091
  74.1019063  26.7432412  14.5835602  73.3150940  27.2781285  14.4784439
  73.7821154  25.9141263  14.9392915  55.4664259  39.9200257  60.3315973
  55.9242921  40.4744443  60.9634304  55.1262502  39.1930589  60.8531618
  75.3400946 101.8900490  41.4379215  76.2937927 101.8083858  41.4422274
  75.1025009 101.8738461  40.5108213  47.1523142  93.3609390  46.2483501
  46.7795944  93.8778210  46.9625902  47.0270634  92.4516869  46.5200233
  59.3952703 103.8543892  61.8374920  58.5592365 103.7806416  61.3772202
  59.4629860 104.7819424  62.0639706  32.6695061  97.7717686   6.6065162
  32.7577376  97.4926472   7.5178546  32.3255968  97.0024014   6.1526078
  97.2530417  17.4249944  49.3111515  97.2312360  17.0111283  50.1739788
  97.5902800  16.7450913  48.7278509  94.2174916   0.5416974  17.7436888
  93.6538796   0.2534779  18.4616756  94.7739987   1.2166795  18.1321824
  55.6856155  90.9621143  43.8353968  55.7364559  90.0977516  44.2434740
  56.0795546  91.5533638  44.4768476 100.8712630   7.9942998  34.0873241
 100.5986028   8.5134992  33.3308101 101.3525634   7.2573670  33.7111378
  72.6824856  93.2252979  29.0999269  71.8848944  92.8630733  28.7140775
  72.3714828  93.8994884  29.7040629   6.3952824   3.8996705  36.5889359
   6.8078324   4.3264970  37.3398376   6.8566700   4.2539224  35.8287668
  74.1296816  99.8623943  23.6922407  74.1912603  99.0569973  23.1786513
  73.2546949 100.2010536  23.5026455  64.5345640  66.0168505  11.4257824
  64.3666983  66.7992163  11.9510972  63.7267208  65.5074263  11.4899027
  32.8304648  82.1713352  40.6943274  32.2412443  82.8120613  41.0924673
  32.6034427  82.1825314  39.7645068  50.3258181  77.1860600  30.4079819
  50.6818438  76.8844128  31.2437391  49.3824196  77.2476339  30.5577707
  80.0820021  33.5176953  53.6440706  80.0343423  34.1493043  52.9264164
  79.4359879  33.8273057  54.2789268  95.7881026  13.2190904  39.3618512
  96.2153153  13.2009419  38.5054684  94.8602729  13.0834588  39.1695809
  98.2975440  53.8367661  36.7082477  98.9126067  54.3734464  36.2083483
  97.4967770  54.3600091  36.7433548  76.0445881  95.0085354   3.6972901
  75.1673555  95.2193451   4.0170568  76.5290833  95.8311081   3.7671858
  47.4645710  98.6678982  12.9427421  47.3024464  97.7600670  12.6862502
  48.4184694  98.7419510  12.9715109  63.4256344   6.9434174  55.8511162
  63.6776619   6.5022096  55.0399113  62.8861098   6.3027963  56.3145351
 101.3771534  87.7475071  57.3255110 101.8755913  87.0752144  57.7900600
 100.5357075  87.7791977  57.7806854   8.2007309  18.6324700   6.6027027
   8.8973232  18.9940747   6.0547608   8.5642143  17.8153714   6.9439685
  72.0713119   3.2053384   5.8973408  71.2405472   2.7581700   5.7357842
  72.6846032   2.5018319   6.1099225  74.4486694  15.7935819  84.1391850
  74.4118624  16.0191068  85.0687122  74.1328840  14.8908624  84.0990543
   4.1403003  35.3747293  89.4899868   3.8397117  35.8118077  88.6932141
   4.2605014  34.4610616  89.2311791  70.4875474   4.8795899  35.2866268
  70.3480964   5.7768449  34.9837756  71.4339642   4.8141869  35.4140925
  26.1758041 100.2642059  50.7555771  26.6552281 100.6923771  50.0463104
  26.7895508  99.6170044  51.1029625  46.5362883  86.7313004  13.3649290
  45.9003782  86.4245605  14.0112734  47.1386194  85.9957218  13.2537496
  71.9857168  99.9012566  33.6873341  71.4896536  99.7166443  34.4848776
  72.8991508  99.7575378  33.9347553 101.3524437 102.2792339  13.2722640
 100.7037258 102.6607227  12.6807702 101.5841579 101.4436722  12.8668344
  33.0025479  20.3730019   9.3253458  32.2117993  20.9120854   9.3438119
  32.6783940  19.4742402   9.2671072  74.9965668 102.0424271  21.1248350
  75.6470013 102.5995445  21.5523696  74.8263168 101.3443565  21.7572498
  52.1870613 101.0241890  53.7461329  52.7572632 101.6262436  54.2242861
  52.1128798 100.2598476  54.3175411  82.0535660  99.5958138  51.2744236
  81.2144089  99.5314026  51.7303991  82.2670650  98.6934185  51.0370827
  52.3169851 104.7929382  55.1535654  53.2339621 104.7274017  54.8869419
  51.8220091 104.5546818  54.3696833   1.8861099  12.2512921  67.1765804
   0.9645697  12.0105180  67.0816183   2.2517964  12.1504506  66.2977552
 104.9419122  13.8571366  49.9819279 105.8975463  13.8169297  49.9449015
 104.7524314  14.2882642  50.8152723  97.0989375  13.5759362  36.8973112
  97.9623561  13.9834317  36.8288970  96.8619113  13.3639726  35.9944677
   1.0582562  67.0900270  81.0725073   1.5231438  67.9264852  81.0939268
   0.5400272  67.0833608  81.8772600  95.4264121  18.1360730  26.0346150
  94.6608739  18.1935796  26.6063404  95.2638535  18.7856492  25.3506136
  12.2160526  37.0190534  22.5687981  11.6151043  36.6693219  21.9109440
  12.2133633  37.9641828  22.4172997   8.4089652  97.8445911  51.1961412
   9.0223686  97.2738552  50.7332897   8.6928073  97.8105068  52.1096516
  92.3785214   0.6109437  39.4937348  92.6020675  -0.2041427  39.0444040
  91.9872908   1.1596497  38.8139653 110.5261569   2.6541814  13.5813868
 109.7511010   3.0741509  13.9544058 110.9730153   2.2651967  14.3332100
  74.2765431  43.2893952  33.9257908  74.1127806  43.6389455  33.0498767
  73.5292892  42.7167329  34.0987039 103.4631157  94.7009850  19.8720241
 104.1848946  94.8059368  20.4919076 103.0156898  95.5471420  19.8798859
  97.6658301  19.4458684  20.1258278  97.6685624  18.7973222  20.8298206
  98.5217767  19.3497380  19.7082829  54.2971420 100.4724503  74.9118471
  53.8611078 101.1261368  74.3652248  54.6315908  99.8254490  74.2907429
  45.9978239  13.1545171  16.0934198  46.0116075  12.4056443  15.4974079
  46.9209103  13.3430966  16.2624741  79.3103690  64.9143048  69.1321758
  80.1046176  65.1311322  69.6204284  78.6015220  65.0277253  69.7653464
  64.1622166  21.6143521   2.3006980  63.5861664  21.2099465   1.6519608
  64.8806028  20.9904488   2.4051155  68.6487584  10.2397736  18.1039286
  67.8685741   9.6852693  18.0953789  68.6672907  10.6135663  18.9849317
  67.7384424 104.1635704  34.0477824  67.0205927 104.7309303  34.3288994
  68.4458637 104.3484688  34.6655154 109.7695308   5.9990224  44.9449158
 108.9968304   6.5353497  45.1224613 109.4522624   5.0974091  44.9964523
  45.1396084  76.8159819  34.3257999  44.4832373  76.1954784  34.6426439
  45.2718496  76.5771055  33.4083676  43.0580378  94.8106003  14.6826017
  42.8722095  95.7299137  14.4914031  43.9654398  94.8080158  14.9873185
  94.5472622  93.5161877  24.5077968  93.7241936  93.7199020  24.9519658
  94.3351936  93.5662174  23.5757256  91.0826588  92.1880054  43.1440353
  90.5279255  91.4801311  43.4718084  91.4117718  91.8654728  42.3050499
  16.8575951  31.6608342  24.9038315  16.4794728  30.8804044  24.4986320
  16.1086651  32.2358235  25.0610447 106.6595177  18.6063966  43.8570595
 106.0365491  17.9505357  43.5440254 106.8168454  18.3702001  44.7712183
 105.4640536  17.8709611  39.6053720 105.3413396  18.2422456  38.7316895
 106.1336093  17.1971616  39.4873953   7.6003925 103.7887573  19.2818296
   7.6653377 104.4534874  18.5961628   7.8384868 102.9706669  18.8456297
 100.7309537  30.2158078  44.0744066  99.8851781  29.7740945  43.9983702
 101.2078624  29.7085961  44.7313070  91.0021691  20.9946546   4.8619607
  90.3006177  20.5823811   4.3578926  91.0984616  20.4401978   5.6362563
 107.9775147   1.4069566  50.0554705 108.6501412   1.9230946  49.6111679
 107.5217156   0.9488877  49.3493128  34.3056107 103.4573078  23.1493616
  34.1246057 103.1625080  24.0418649  34.4536042 104.3992424  23.2336259
 104.8784690   2.4489125  21.5211630 104.5717959   3.0068406  22.2359419
 104.3821769   2.7435216  20.7575321   9.1366860   9.7748860  52.4839449
  10.0422188   9.4763192  52.3996592   8.6109730   8.9864835  52.3487425
  22.1066853  26.3388356  60.8336401  21.9526955  25.5568227  60.3035736
  22.9088780  26.7176732  60.4741907  62.8214312  99.5167160  48.5459280
  63.4011793  99.4509029  47.7871227  62.2582388 100.2662086  48.3527613
 104.6755080  22.1442803  22.3313332 105.2492862  22.5378236  21.6739655
 103.9673381  21.7472562  21.8242836  35.6621981  76.7825794  45.3116035
  35.7741714  76.3853741  46.1752701  34.8818851  76.3598728  44.9529123
  36.1696100  92.1320915  41.8142271  36.2825441  91.2954044  41.3631964
  36.8139505  92.1116447  42.5217867  58.8880249  27.2170075  58.1941414
  59.4065281  27.9413899  57.8439140  58.8464352  26.5838059  57.4775028
  62.8573656  76.8676090  46.7716742  61.9583321  76.5397263  46.7931366
  63.2196236  76.6293907  47.6250505  12.3326489  16.4231881  81.4724064
  11.7446896  15.6710442  81.4030170  12.6254460  16.4150533  82.3836899
   6.6462036  17.8561982  28.2764292   5.8778282  17.7252397  28.8320279
   6.5562340  17.2005853  27.5848365  51.6952229  90.6106377  -0.3764275
  51.7533112  89.9609566   0.3241229  51.7378902  91.4537811   0.0746996
  37.5183511  84.2900181  31.6266632  37.5094509  83.3707428  31.8932939
  36.6857505  84.4154167  31.1713791  58.5075855  86.6616917  47.8516531
  59.0026140  86.8918419  47.0653915  59.1569662  86.2746429  48.4387922
  30.0605198  42.9314908  26.0376930  30.2727791  42.5932225  25.1677752
  30.8888050  42.8981885  26.5162897  86.2707572  26.6455659  48.2863760
  86.0562377  27.1815022  49.0499115  86.7727189  27.2291955  47.7174807
  69.1377401  98.0544376  26.7398238  68.5695410  97.3690605  27.0914507
  68.5344744  98.7019157  26.3750362  67.8078079  75.8816576  46.2692833
  67.1867847  75.3386688  46.7547989  67.6525688  75.6603765  45.3510427
  90.4856543  19.1020497  42.8582573  90.5706935  19.4680413  41.9778872
  91.3845973  19.0462884  43.1823254  38.8358064  81.9867154  71.5100805
  38.9181419  81.0477944  71.3431040  39.6155305  82.3705979  71.1089686
  67.8184366 104.2804813  18.0498636  66.9539356 104.4333839  18.4312987
  68.4284782 104.4266129  18.7728608  43.5518408  84.3182850  33.5757375
  43.4512806  83.3773232  33.4318352  44.2154360  84.3860245  34.2622375
  55.0885677  92.9615402  64.9450684  55.2096891  92.0705128  64.6169949
  55.6831408  93.0244350  65.6925726 103.6977677  39.6675309  32.8442621
 103.5563712  39.7391900  33.7882447 102.8166346  39.6276101  32.4724483
  64.7207594  80.1919079  25.6427121  64.4062519  81.0782909  25.4648471
  65.5900478  80.1615238  25.2431464  70.1856995  95.0788307  26.9366074
  70.1790476  94.1678810  27.2304654  69.5587206  95.5199814  27.5097704
 106.6208701  17.3737439  10.9686255 106.4126353  16.9331750  10.1447511
 105.9112267  18.0047711  11.0888171  46.1017227  94.0763760  11.8018675
  46.2987852  93.2915020  12.3131120  46.0001564  93.7585831  10.9046924
   5.0545403  11.8231496  43.5234737   4.3776652  11.8377313  42.8468227
   5.4391619  12.6992520  43.4964323  11.0698796  31.2380016   1.7903158
  11.1596776  30.9688557   2.7044984  11.8159629  30.8338917   1.3472768
  43.6663866  87.4609089  30.2080154  43.9813328  86.9290829  30.9389067
  44.4256592  87.9815865  29.9460340  87.0380788   4.3495187  33.6656427
  87.7627997   4.9448975  33.4745145  86.8009047   3.9800939  32.8150511
  35.7159229   6.3976869  23.0234694  35.7164665   7.3471078  23.1452370
  35.0471112   6.0788735  23.6295104  13.4900757  26.2426099  14.0938127
  12.8955933  26.1781033  14.8412454  13.3040329  27.1009549  13.7131965
  96.8008474  58.3456727  72.9723314  96.4578275  58.0581399  72.1262256
  96.3640860  59.1814824  73.1363276  12.4894901   4.8539075  42.0241022
  12.3448845   5.2558144  42.8807163  12.7943608   3.9686879  42.2232580
  78.8256411  20.7870110   3.4072611  78.8942866  21.3462457   2.6334524
  79.7136502  20.4567536   3.5436296  49.5362949 103.7476635  25.4834962
  49.6187019 103.2330704  26.2863827  48.6659288 104.1419983  25.5400324
  64.0298271  83.4027863  31.1663198  63.7439823  83.3376789  30.2551198
  63.8698292  82.5320721  31.5303230 110.8886580  17.5226792  39.3840909
 110.7852130  17.8529080  40.2765465 110.1901393  17.9497632  38.8882065
  42.3843479  85.8913517  14.6383297  42.8424883  85.1777935  15.0823629
  42.6164246  85.7874107  13.7155259  90.6909657 103.2546139   4.0783998
  90.9894848 102.9264069   3.2302284  89.9297428 103.7966156   3.8710445
  95.1091671  87.2888374  51.1089468  95.4957104  86.4619732  50.8206797
  94.1808891  87.0896530  51.2308311  80.5009270  83.2844162  29.7230935
  80.3576660  82.8618240  28.8762617  80.8385849  84.1527271  29.5033884
  72.6730590  49.5706757   5.0575101  71.7533021  49.7417077   5.2600682
  72.7693324  49.8324117   4.1418365  66.4071655  92.9611301  27.4093866
  66.3600874  93.4371185  26.5802574  65.6920195  93.3217812  27.9335356
  19.9872586   3.9623746  13.5413277  20.1371380   3.3253201  14.2398441
  20.4620644   4.7439488  13.8240457  15.6465813  10.5110463  11.3334048
  16.0668751  11.3589009  11.1894214  15.0959202  10.3824624  10.5610955
   7.8368469  26.1938771  42.1282959   8.7368008  26.4914330  41.9949722
   7.9202934  25.2623853  42.3322296  33.1232067  36.5112313  73.9969635
  32.1702000  36.5479669  73.9153433  33.3732983  35.7154187  73.5275269
  94.7168498  23.9613160  73.7981462  95.5330901  23.7038430  74.2267418
  94.4268994  24.7355565  74.2805433   2.9403969  39.6317586  40.6168175
   2.4876114  40.2834901  40.0815868   2.5604197  39.7327336  41.4895487
  11.2806507  16.8862733  66.7648029  10.9067818  16.0208901  66.5987444
  11.4807125  17.2317037  65.8948135  73.1763940  16.4372357  32.7661014
  72.5084858  16.9751939  33.1912327  73.7791328  17.0691499  32.3741555
  70.3020000  84.2926311  30.3152084  70.1076174  83.5405064  30.8744574
  70.3592539  85.0323486  30.9199953  92.4980068  76.1147833  17.9550493
  92.3316860  75.9247780  17.0317590  92.2207355  75.3231525  18.4162188
  51.8924146   6.8005284  18.8370550  52.7952437   6.5820607  19.0681553
  51.4159803   5.9750947  18.9259970  51.7847347  97.2681713  67.5326681
  51.4057016  96.3893795  67.5158119  51.3851643  97.7157021  66.7868137
  98.7163644   0.3814992  28.6095142  98.2754283   0.5662640  27.7802539
  98.0208926   0.0626286  29.1847277 104.1614394  25.4027852  37.2842050
 104.0790896  24.8997506  36.4740205 103.6208634  26.1794385  37.1399045
  43.0515763  16.9740876  24.3325830  43.2326218  16.0516271  24.5129085
  42.1830460  17.1250638  24.7055387  16.2601745  92.7846718  43.7291861
  15.4380512  93.2357502  43.9212036  16.4472914  92.2803974  44.5209742
  73.1677322  31.0072717  31.0433435  72.7965169  31.8872556  30.9795547
  73.3077149  30.8737477  31.9807911  11.9368596  77.3891469  76.0372010
  11.3923259  76.6126081  75.9079663  12.7855344  77.0432683  76.3135234
  71.1768393  19.9642571  22.7422643  71.9315176  19.8153218  22.1726060
  71.3523607  19.4300660  23.5169053 100.7072120  23.0588635  47.0323801
 101.4341597  23.4123238  47.5450659 100.1128297  23.8002213  46.9168854
  75.5479321 102.3481048  24.1475821  75.0044131 101.5601853  24.1490650
  75.0671252 102.9717666  24.6917343  11.8051469  18.0438221  64.3192244
  11.9846058  17.9253483  63.3864927  11.8572938  18.9899242  64.4548798
 100.3583273  16.9249547  16.1920881 100.5899163  17.7562571  15.7779205
 100.3281613  16.2976706  15.4697061  27.9154062  43.9860678  27.5750971
  28.3748865  43.9324522  26.7371035  27.0699573  44.3799543  27.3599124
  27.4561095  40.1287746  43.7187910  26.8808460  40.4769897  44.4000006
  28.2864428  39.9663663  44.1664505 109.1878851  15.4554462  42.8586340
 109.2752057  15.8317518  43.7344170 108.3114754  15.0706661  42.8495693
   1.0037392  61.2083530   5.1891154   1.9462827  61.2045479   5.3559363
   0.9050842  60.7376623   4.3614990  32.8740621  17.2121179  29.9648452
  32.7321506  16.6897368  30.7542825  33.2025552  16.5862811  29.3193603
 108.7613172  82.1999741  32.1474648 108.1052049  82.6196098  32.7039289
 108.2547807  81.6335964  31.5653348   4.7042862  35.5946326  51.9871140
   4.7542706  35.6138945  52.9428148   4.2819011  34.7595048  51.7861509
  82.7807460 100.5473915  14.2174327  83.6907855 100.2517137  14.2426121
  82.2834066  99.8246482  14.6002221  38.2944869  59.6411901  88.0480487
  38.5914653  60.5390954  87.9003954  39.0861199  59.1653472  88.2992903
  27.5757933  21.1078501  41.9673634  27.6884532  22.0226622  41.7091846
  27.6201844  21.1215997  42.9234362  15.7559848  49.7271490  55.2802134
  15.6783593  49.9583006  54.3545914  14.8987842  49.3686581  55.5102587
 108.7334212  68.9409256  30.3292155 108.6708560  68.9753342  29.3746829
 109.3121698  68.1989813  30.5047154   9.8270780  60.5466986  26.2952971
   9.9094278  59.9923658  27.0712924  10.5030763  61.2153196  26.4057469
 100.7828494  62.1882105  43.4067249 100.4393121  62.6771307  44.1545010
 100.0286349  62.0735979  42.8285742  24.0429616   4.6541181  51.1301374
  23.3850646   5.3334254  51.2782812  23.7215257   4.1713938  50.3686333
   4.4589022  29.8346233  25.4344106   4.7159177  30.7561255  25.4026675
   4.6620640  29.4990945  24.5612669   4.9380982  57.8305769  45.2627659
   5.5988014  57.7653313  44.5732403   5.4243261  57.6872492  46.0747194
  45.3249598  36.1151481  16.4719152  45.0541210  35.3537846  16.9849503
  44.5715046  36.7047381  16.5022588  90.5120138  95.7547835  29.0450335
  91.3829831  96.1451659  29.1174746  90.1016692  95.9257094  29.8927569
  23.2138252   5.8701015  30.7688832  22.5162077   5.6208986  30.1626992
  23.7978435   6.4215666  30.2482700  63.6451100  74.1890490  84.4622258
  63.7871765  74.7628724  85.2150718  62.7975058  73.7776577  84.6312133
  49.1204023  32.0119429  23.8522911  50.0560760  31.8110704  23.8325071
  48.9618063  32.3268652  24.7421813  23.9022779  54.7143173  -0.0615292
  23.4663510  54.7466135   0.7900314  24.8211694  54.5446968   0.1460751
  26.2963486  11.3065147  13.9445293  27.0380878  11.5819895  13.4058547
  25.5732250  11.2096894  13.3248937  38.5052752  38.4699893  19.6218288
  38.1626844  37.5917077  19.4560409  38.4657431  38.5668397  20.5732965
   9.5381761  20.4185438  26.7292881   9.7903520  20.6763029  27.6159668
   9.0242821  21.1569071  26.4022350  13.7158108   3.3630466  61.9215870
  14.5643818   3.0163839  62.1972370  13.9245224   4.1904780  61.4879608
  54.8176193  12.0329845  43.1599951  55.4248142  11.8298054  42.4484730
  54.5044470  12.9157627  42.9628706  52.9574585  14.5768893  24.4130206
  52.8329468  15.4672527  24.7416258  52.1166754  14.3480229  24.0168738
  30.7331944  14.9880373  34.6552110  30.0704265  14.3272078  34.4545293
  30.4496908  15.7654250  34.1740394  65.3124666  31.5998840  25.8678317
  65.4267216  31.0665131  26.6544008  65.8445644  32.3793507  26.0276294
  31.8226361  29.2305517  33.7421179  32.3399520  28.7722254  34.4043517
  31.9650698  30.1588392  33.9271212  21.1843944  40.9625196   3.0600724
  20.6644893  40.4021692   3.6362135  20.6439519  41.7422342   2.9327965
  33.7618985  89.6724283  77.5902632  33.3860069  90.3130233  76.9864634
  33.5193669  89.9915397  78.4595040  81.0728053  81.3098589  31.7510128
  80.8824108  82.0085589  31.1250734  81.9512252  81.0107390  31.5161967
  23.4016442  32.3082328  32.9236293  23.2983923  31.3623595  33.0280209
  22.6216745  32.5825238  32.4413013  21.5669680  44.6966600   7.3497438
  21.0981393  45.4088736   6.9147921  21.8633103  45.0753021   8.1774193
  35.3958869  48.0533743   3.8064048  35.9479904  48.8311720   3.7261617
  34.5007706  48.3889818   3.7577793  14.8189206 101.8248049  44.1864681
  13.9377732 101.8787063  44.5564699  15.0442786 102.7299601  43.9716625
  11.0637617  24.9846148  20.5273652  11.6628468  25.6901836  20.7712960
  11.3063490  24.2561126  21.0989141  74.7657131  96.4519703  77.9324511
  75.1889442  96.1518490  77.1280650  73.8710951  96.1170017  77.8717366
  90.1704939  45.8183289  31.0565257  90.5523857  46.1447096  30.2417445
  89.5253571  45.1694059  30.7755804  51.6111279  15.1680923  47.3286343
  51.4809895  15.8376002  46.6570282  51.7970562  14.3683112  46.8366861
  13.8377178  46.5480423  16.1017334  12.8994584  46.3590002  16.1146355
  14.1675043  46.0719728  15.3396118  43.1805754  16.1637414  47.6321602
  43.2511139  15.5245423  48.3411551  42.2922468  16.5115011  47.7107096
  72.9693556  50.8880472  20.7099986  73.4661722  50.0735807  20.7877684
  73.2800484  51.2811804  19.8944330  37.5729918  50.1413059  20.6022167
  37.7099848  51.0761166  20.4486084  37.6464081  49.7427988  19.7350168
  34.5755911  50.5292082   9.5075542  34.1788697  51.1401606   8.8866031
  35.2371430  50.0635529   8.9959443  13.5231233  30.8035827  11.7743850
  13.5498953  31.1229348  10.8724260  13.2547235  31.5641427  12.2898865
  17.0883274  40.7073402  47.9124641  17.2060525  40.7621908  48.8608122
  16.7378581  39.8288918  47.7650356  85.8275512  31.6847917  86.8009404
  85.2785138  32.4687692  86.7883048  85.9211997  31.4430924  85.8795047
 105.9570219  18.1669271   5.9544796 106.2318876  17.6057601   5.2293783
 106.5266978  18.9337027   5.8931857  93.4646939  89.3237745  83.6207262
  94.2763375  89.8116958  83.7600104  92.7939033  89.9989211  83.5185066
  23.0300713  40.9022665  19.2726922  23.2896590  40.6808472  20.1670170
  22.3455620  41.5629196  19.3785942  35.2121377   2.1560103  20.3385329
  34.4898629   2.2345370  19.7153282  34.8822594   1.5635020  21.0140657
   3.7616248  16.5785571  88.7145661   3.2913251  17.3141309  89.1069726
   4.0526767  16.0547706  89.4610012  72.8033518  92.8275644  89.0234678
  72.5532698  93.5754454  89.5660222  72.4396943  93.0255043  88.1604454
  22.4114823  46.0822773  24.6723104  22.3829913  45.6060839  25.5021667
  23.2877278  46.4666843  24.6467090  31.5963125  47.5853395  21.1798620
  31.1407828  47.3214197  20.3804421  31.0543227  48.2849884  21.5445042
 109.5267405  34.0290070   7.5626409 109.9949756  33.6285138   8.2951653
 109.9070097  33.6221194   6.7841375  41.3168001  15.1298475  39.9802566
  40.3718996  14.9906588  39.9168515  41.5168476  14.9968266  40.9068203
 109.1332959  27.3826671   3.5172135 109.3958940  27.9241157   2.7728298
 108.6189532  26.6749024   3.1289428  31.2836719  53.1802368  20.0342417
  31.8411589  52.4038172  20.0852752  31.7801094  53.8617516  20.4873633
  44.7094250  28.3810925  53.3615637  45.2212334  29.1852713  53.4486198
  44.4612408  28.3539915  52.4374962  15.4220402  52.3633575  22.5560141
  14.6481776  52.2400427  22.0063210  15.1453447  52.0777273  23.4266949
  55.6139374  42.6538277  23.5254383  55.6511450  43.5794640  23.2845092
  54.7741556  42.5567627  23.9744067  45.0142384  25.6276226  54.3564558
  45.8883381  25.3636503  54.6436882  44.9340963  26.5385509  54.6393347
  41.1869001  35.3692055  37.5369072  41.4303589  34.9650240  38.3697319
  41.5244722  34.7692895  36.8717933  23.1835747  41.8939018  11.9984937
  23.8537169  41.2522888  11.7629695  23.6775231  42.6577997  12.2963357
  24.6017861  60.9248209   5.1368850  24.6130490  60.5272150   4.2662460
  23.9263988  60.4411030   5.6123811   7.4049991  55.5047417   8.2286608
   8.3074069  55.3886652   8.5260147   6.9856876  54.6617270   8.4011066
  68.7500881 103.9531815  86.7534558  68.7334823 103.5196840  87.6067043
  69.6719145 104.1689217  86.6123120  72.6870727  78.9637196  87.4112785
  71.9473671  79.4286000  87.8023732  72.2871946  78.2400667  86.9289339
  28.9357972  61.5678072  44.1973495  29.3165565  61.9036961  43.3859110
  28.7771344  62.3481798  44.7284651  47.5252390  69.6738768  22.8017616
  47.7989674  70.2210426  22.0656109  46.5691805  69.6704674  22.7551627
  12.1717179  51.9404125  47.5329256  12.4814510  52.8272295  47.3489380
  11.3301444  52.0667362  47.9711342  38.2796884  28.8567734  24.8840117
  39.1898417  29.1340947  24.7793913  37.8804851  29.0177035  24.0290427
  13.2156432  25.8656359  53.9815140  13.6626029  26.2952685  53.2522154
  12.4808955  25.4062176  53.5749245  51.7524672  60.9063911   2.6983145
  52.5048542  61.3315010   3.1099251  51.7906427  60.0010061   3.0066296
  74.5667610  22.1078177  85.4430315  74.2867077  22.4995156  84.6157620
  73.9914831  22.4993487  86.1002917  22.2252989  59.5077133  19.3979931
  21.7769504  60.2831507  19.7355020  22.5038648  59.7566986  18.5167205
   8.0566531   5.6556916  41.4496279   8.6899740   5.6520230  42.1673489
   7.2364527   5.3707278  41.8524885   9.5161760  52.3507071   3.9946109
   9.9734950  51.5298128   3.8123462   9.2013043  52.6443863   3.1397194
  24.9648523   7.0526737  28.9513803  25.7937503   7.5271839  28.8881421
  24.9566269   6.4815265  28.1832957  22.8733397  44.9851990  16.8404615
  23.6652803  45.4893541  17.0272493  23.1697965  44.0755272  16.8114293
 107.0090865  83.7311041  85.5672721 106.3269328  83.3971417  86.1498252
 107.1824073  84.6173370  85.8847359  35.5746746  29.4417119  22.6441097
  35.5915546  29.4356036  23.6011410  35.5743790  30.3699636  22.4104834
  70.3048038  35.8792686   4.1387790  69.9388933  36.2613177   3.3410436
  71.0041380  35.3034329   3.8296187   5.6194937  50.9190655   3.5285360
   5.2392066  50.4749870   4.2864323   6.1399668  51.6295242   3.9034814
 100.0239404  34.6252060  16.4910626 100.9078046  34.9790144  16.5902472
  99.5695456  34.8879838  17.2915030  24.2572641  29.5062113  14.6293843
  24.8320532  30.2204370  14.3541944  24.7965288  28.9780211  15.2179778
  26.4970326  29.0875268  10.7911277  26.4870763  28.1384706  10.6669247
  26.7522645  29.2066932  11.7059445  28.4065127  26.1278939   3.3972588
  28.5238624  25.6661248   2.5670597  28.4056497  27.0546579   3.1578076
  64.0787172  28.2424092  20.7809496  64.7238541  28.8086510  20.3573942
  64.5731258  27.4622917  21.0323644  14.7995234  22.9157329  42.1780586
  14.4599652  22.1685076  41.6855288  14.1587961  23.0539060  42.8756332
 110.8227612  56.7390776  18.4987402 111.4950144  57.0780706  17.9076481
 110.0724027  56.5617466  17.9315114   5.5945218  63.2384872  28.6515069
   4.8047227  62.7541208  28.8920045   5.8208352  62.9106331  27.7811480
  32.2338891  21.2354231  39.7165394  32.8015089  20.8550620  40.3868866
  31.4561653  21.5217042  40.1955128  32.6561880  48.7878370  52.1997166
  32.9815197  48.4966326  53.0515337  33.4338379  49.1092587  51.7434502
  35.6966496  27.7816343  20.7387948  34.7870135  27.5817060  20.5178404
  35.6360579  28.3907700  21.4746714  91.7905091  93.6371910  87.0631737
  91.9041871  93.9269697  86.1580012  92.5222777  94.0342724  87.5354744
   1.7098060  67.6924324  29.7721481   1.4841306  68.5250854  29.3574309
   0.9495912  67.4809122  30.3139639  69.5280408  73.8976395  81.7890052
  68.9795588  74.5931565  81.4261571  69.9335050  73.4888374  81.0243413
  22.6837873  16.9924247  23.5694695  23.6339664  16.9464302  23.4632897
  22.4218416  16.0946441  23.7734485  38.3255744  14.6121562   0.9799921
  38.0927467  15.1485050   0.2221308  39.2809439  14.6558225   1.0199011
  59.7968149  33.8729692   0.7370440  60.3453112  33.9142084  -0.0463352
  60.3747749  34.1478324   1.4488360  20.2094388  23.1867218  16.6094828
  20.3914046  23.5781193  17.4638402  19.7709584  22.3605609  16.8130112
  22.3306012  21.3637114  21.3491440  21.6671896  20.8398485  21.7982340
  21.8554950  21.7931628  20.6377530  38.7803912  35.7568002  39.3090749
  38.8753319  34.8365235  39.0634942  39.4762754  36.2057972  38.8290977
  17.9013431  42.3086309  11.1988342  17.9678774  42.3591232  10.2452850
  18.8055205  42.2100735  11.4971340  98.7553338 101.3590700  38.8102770
  99.0785841 100.9288595  39.6018958  99.5194868 101.4094791  38.2360268
  25.5690646  41.8242836  14.9927807  25.1987791  41.9367409  15.8682656
  25.0882435  41.0839796  14.6226454  37.9183412  24.0402079  40.4036188
  37.5709820  24.1361547  39.5168471  38.4451556  24.8275018  40.5409765
  34.7814345  28.4254289  -0.0554877  33.9234734  28.6594510  -0.4095605
  34.6362472  28.3389902   0.8866806  19.5226061  63.0932570   3.7343660
  20.1842880  63.3613396   3.0967629  18.8440347  63.7655115   3.6723912
  37.3849607  16.5335047  12.0100093  37.9389167  17.2265267  11.6507244
  36.5181351  16.9330335  12.0822644  97.9010228 101.4145852  43.9954901
  98.0912236 101.0658318  44.8663664  97.9833225 100.6601561  43.4121418
   6.8261278  49.2037630  11.2878740   5.9202594  49.1188002  11.5852213
   7.3380798  48.7249613  11.9397080  32.1929264  54.0565014   1.2716591
  32.8388262  53.4366512   0.9327950  32.3959565  54.1280460   2.2043389
  23.7455177  35.7236075  11.4955819  23.6617041  34.8974586  11.0194671
  23.8332367  35.4637098  12.4126363  20.5747914  22.4278593  54.5251846
  20.1492000  21.8688512  55.1752758  20.6968188  21.8601441  53.7642384
  98.7182935  40.3824425  36.2995267  98.3429047  40.5110359  37.1706057
  98.5089727  39.4745326  36.0801601 103.1310271  44.0482592  84.9143610
 102.3481130  44.5653003  84.7247592 103.0832385  43.8774186  85.8549789
   9.8788840  70.5076075  11.9115734  10.0230122  69.5663834  12.0093107
   9.8132354  70.6429720  10.9662700  74.5629357  76.5543425  85.0824860
  73.9392041  76.8640720  85.7391885  74.2863630  75.6576454  84.8936132
  12.5614595  23.6899209  18.4478807  12.0353639  24.0489912  19.1623902
  13.2620203  24.3297791  18.3212852   8.6885422  68.4611034  14.9825704
   9.1992241  67.8367138  14.4672287   9.2526239  69.2311859  15.0533915
  13.5025907  59.0021992   8.6743897  12.6719594  59.1098738   9.1377342
  13.4480369  59.6134043   7.9397589  95.0546359  85.5254566  79.8511914
  94.9619864  86.1713945  80.5514876  94.6887826  84.7205150  80.2178732
  27.2215390  27.4309301  18.3816910  26.5924883  27.0482516  18.9933133
  28.0542421  27.0134878  18.6020958  51.8596745  22.0404840  10.1257169
  52.6100111  21.4522982  10.0405145  51.9900370  22.6958442   9.4403416
  26.4565802   4.1151136  25.0346828  25.9014797   4.1858038  24.2580891
  27.2007346   4.6881852  24.8501468  61.0133742  60.0793057  85.2672825
  61.8098616  60.6088215  85.3054044  60.3032636  60.7038051  85.4155252
  27.8463984   6.7015815  12.2977519  28.5609388   7.0919144  11.7944586
  28.0516267   5.7669002  12.3197448  60.8824157 100.2145874  88.8476854
  60.6413030 101.1402428  88.8831132  61.5279292 100.1083147  89.5464334
  17.3997092  80.2217484  65.4006052  17.1617579  80.1065063  66.3205671
  16.5726960  80.1346684  64.9265814  38.4200335  18.6669159  10.5058289
  37.7381420  19.3007004  10.2831793  39.1501355  19.2007768  10.8191586
  17.7835262  51.7468405   0.8173754  18.6973369  51.7616796   1.1019130
  17.4225533  50.9531450   1.2123238  42.9372215  75.3752136  16.3058233
  42.8700161  76.1631584  16.8451381  43.5395956  75.6171227  15.6023622
  11.8427753  31.9327617  24.2140388  11.6009116  32.3524809  25.0396085
  12.5755310  32.4540067  23.8860083  11.6345394  61.2756014  15.9815323
  12.0774448  61.1966848  15.1366425  11.8048406  62.1760273  16.2580502
  40.3629637  41.9618368   3.2179952  39.5581627  42.4722528   3.1285405
  40.2075100  41.1757851   2.6943636  80.7047843  63.6389804  83.1276313
  79.8612355  63.9104139  83.4895447  81.2546872  64.4199609  83.1901435
  38.1273270  23.8298917  31.4389658  37.5657606  24.4508886  30.9750295
  37.6405072  23.6148715  32.2345805  64.7558246 101.7135993  19.2969382
  65.2070848 102.5322736  19.5027745  63.8379124 101.8870262  19.5057273
  19.1885924  20.8874631  30.6136680  19.8951554  21.3765454  30.1920056
  19.2045569  20.0296783  30.1891875  27.2231555  35.9113955  10.6445420
  27.2112632  35.0375175  10.2541244  28.1338048  36.1959267  10.5671501
  16.0533428  58.6637449   8.6319441  15.1458526  58.9682055   8.6319053
  16.0533667  57.9108810   9.2230678  59.9492477  91.0091030  83.5523770
  60.2972864  90.4633200  84.2575160  60.7007359  91.1718142  82.9822711
  96.5044888  38.4355807  21.2782574  96.6025098  39.1466641  20.6450248
  96.2427457  38.8714671  22.0892620  28.4803486  55.5661392  24.7258162
  29.2706275  55.0417709  24.5964646  28.3517718  56.0156155  23.8905478
  13.1617355  66.3557386  26.5535879  12.2621250  66.3214064  26.2283874
  13.5219991  67.1587133  26.1771965  18.0810392  93.0220222  28.7382197
  17.9932761  93.8087749  28.2001162  17.3356700  92.4761868  28.4877825
  24.0475702  50.6383562   4.5122853  24.6433735  49.9003077   4.6408781
  24.2998147  51.0049582   3.6648127  53.7409115  71.0149717  19.0671456
  54.0181494  71.5454578  19.8141122  54.5465755  70.6050825  18.7522984
   2.5520027  28.8854957  14.5816994   2.6568192  28.4923601  15.4481220
   1.9348942  29.6044135  14.7179544 109.8183111   8.4270068  59.2483977
 109.9072007   7.6427337  58.7068776 109.6952657   8.0920955  60.1366118
  80.3607273  65.3439522  15.6664097  80.8881092  64.7718525  16.2239087
  79.7655296  65.7859993  16.2718511  30.7215381 101.0679150   8.2714462
  30.2573729 101.8693352   8.0295467  30.3419018 100.3923607   7.7095425
  33.8177061  47.9963064  38.1640506  34.5157266  47.4922752  38.5823226
  34.0566730  48.0130434  37.2373104  67.4930142  82.3334825  89.4608015
  66.6145848  81.9805777  89.6024082  67.3592328  83.2759964  89.3608049
  97.7702972  72.7896357  17.4128568  98.4345397  73.2051182  17.9627550
  98.1705054  71.9656801  17.1350658  68.2703184  85.8147966  77.8864268
  68.2845162  86.6626846  77.4424485  69.1782855  85.6680214  78.1515363
  23.6515594  31.5246296  38.6176682  23.8815618  31.4965224  39.5463991
  23.7924695  30.6296444  38.3088326  16.3264561  42.2401428  43.1758499
  16.5869319  42.5217009  44.0528393  16.1442196  41.3050556  43.2687664
  28.6131310  36.1645794  54.9515390  28.2621121  37.0056200  55.2442312
  29.5361304  36.1893868  55.2039003  29.0252900  53.6646414  16.4280546
  29.7152853  53.9996862  17.0006669  28.2137561  53.9990759  16.8098903
  25.1697326  30.2384567   6.6333836  25.3720045  29.9786448   5.7345980
  24.5592117  30.9696984   6.5396839 108.5983018  15.7234403  80.0963417
 109.3770722  15.8396693  80.6406215 108.3215359  16.6140815  79.8809413
 101.7736939   8.9447661  87.5981033 102.3341373   8.2604953  87.2321627
 100.8832959   8.6142846  87.4788991  29.0054893  34.0101337  23.8490629
  29.0927815  34.5991778  23.0996370  29.3060756  34.5272064  24.5964050
  15.8429718  33.0455685   0.4145850  15.7034147  33.8976288   0.8277979
  16.5388787  32.6397681   0.9315684  86.8578593   4.5440646  83.6243991
  86.0290436   4.5309468  84.1030673  87.5259689   4.4221803  84.2989395
  69.0754842  88.9488065  74.5813135  68.7312006  88.4213483  75.3020695
  68.2969021  89.2762529  74.1309563  49.0853882  49.8132372  25.1570845
  48.8559628  49.9287891  24.2349982  50.0422001  49.7870398  25.1643682
  32.6281524  35.9969831  59.8268700  33.3116007  35.6712723  60.4125690
  31.8140531  35.8674979  60.3133965  56.3273478  66.1512232  11.3920426
  56.8825340  65.3881645  11.2316000  56.5699959  66.7725611  10.7055342
  48.1117535  46.9181061  29.5773315  47.9073334  47.7193499  29.0952039
  48.1058645  46.2300682  28.9118981  24.1357732  25.6249881   9.3278396
  23.1983471  25.5426955   9.1526586  24.3716359  26.4816999   8.9719641
  21.9717574  57.4933434   8.6760348  21.1471224  57.7736712   9.0730590
  22.3184896  58.2831717   8.2610899   1.0908176  50.2200794  23.8189435
   1.4563668  51.1046791  23.8094449   0.1452605  50.3508902  23.7479281
  28.2317257  42.1948099  14.7676897  28.4713626  41.3404369  15.1266503
  27.2806048  42.1544218  14.6678388  98.3097390  49.6549722  61.7480186
  99.0516833  50.2507230  61.6439704  97.7948741  49.7719022  60.9496001
  18.9488673  36.6857934   1.0701260  19.3101239  37.5258470   1.3530338
  18.5550821  36.8694568   0.2172294 103.4180430  28.8034841  80.7324020
 102.9227022  28.5427495  81.5088597 103.1492904  29.7075768  80.5692784
  26.3672733  53.5004950  24.7445226  27.1467972  54.0255356  24.9259353
  26.1971354  53.6384010  23.8127136  17.9340923  18.7150979  35.1883411
  18.5382640  18.8500082  35.9184146  18.4624398  18.8780308  34.4069743
  27.0330572  40.0543785  19.3276703  27.2616029  40.9121084  19.6858490
  26.3630199  39.7172904  19.9223590  19.1825318  70.4542112  32.7121639
  19.8303330  69.8052549  32.9868269  19.7008836  71.1662292  32.3372340
  36.8840122  53.0489731  18.4960401  37.1921778  53.3432531  17.6389134
  37.0858169  53.7756014  19.0855467  62.9817175 103.9216005  80.7319633
  62.9786276 103.6592304  81.6524992  63.5748362 103.3012879  80.3081039
 110.6235913 102.0976273  15.2239728 111.4211658 101.7031226  14.8711622
 110.9331158 102.6979481  15.9022367   2.9980893   0.2065774  69.7633580
   3.7028880   0.6784173  69.3196682   3.2487436  -0.7149247  69.6982769
  57.4707556  17.2602034  19.4421160  57.4647617  17.7609658  20.2578568
  56.7566681  17.6344204  18.9260995  44.7099876  86.7209816   1.3339572
  45.5708313  86.5636063   1.7217900  44.1665125  87.0107174   2.0667031
  34.4064665  29.5933032  14.7474205  34.6432233  30.5207515  14.7518671
  34.9041271  29.2225599  14.0186453 108.2388052  45.8095074  10.4831302
 107.8417283  45.2301073   9.8328543 107.6271694  45.7980967  11.2193382
  75.3367615  71.7097569  11.1210823  75.4154634  71.8161488  12.0690894
  75.0886679  72.5776052  10.8024514  67.6011944  52.4414396  12.3783779
  67.5334358  52.1304274  11.4756525  68.4068918  52.9580069  12.3938966
  25.1017904  39.0330577   4.1947746  24.6101284  38.2966089   4.5582917
  24.7323012  39.8037624   4.6257317  47.4880266  44.3522930  26.7999554
  46.6342020  44.3352556  26.3676000  47.9479504  45.0865269  26.3930130
  53.8076281  98.6151230  89.6857533  54.7364592  98.7817108  89.8462357
  53.4706997  98.3070242  90.5270523  37.1360397  48.5997057  25.3164768
  37.3541880  48.2426262  24.4555807  36.5506697  47.9491758  25.7042718
  44.2346716  42.2808456  27.5256681  44.0065098  43.1785059  27.7672791
  43.6456394  41.7354107  28.0469823   7.4231429   6.7453071  71.7735592
   6.8661924   7.5044890  71.6012648   6.8402429   5.9927960  71.6726354
  21.1418843  54.3040562  17.4023962  21.0582638  55.0932312  16.8671966
  20.4381061  54.3762350  18.0471563  24.4126077  22.8892156  82.8159109
  24.1575999  22.3432323  82.0721981  25.0754781  23.4819861  82.4617151
  42.9406261  48.5583305  33.3469748  42.7758646  48.5299778  34.2894626
  42.3724556  49.2583609  33.0254555  87.9718064  95.0777256  74.3752197
  87.9669284  95.3894531  73.4702150  88.0500077  95.8730471  74.9020723
  40.3481245  11.0967481  13.5514116  40.1420546  10.4266357  12.8997087
  41.2836027  10.9860170  13.7212551  95.4949426 101.7068684  74.9077634
  96.1213159 101.0622561  75.2369550  95.2704762 101.3964426  74.0305630
  42.3788738  40.6365442  24.2374563  42.5004625  39.9428225  24.8856831
  42.8596878  41.3838148  24.5933104  55.7188988  46.9701195   8.4897465
  56.0287380  46.1211586   8.8051695  54.7760487  46.9572210   8.6543709
  16.0668385  25.1538181  29.5328021  16.3168871  24.2454267  29.7017264
  16.3078129  25.6212592  30.3325915   4.0267941  84.4397640  30.5520916
   4.0228263  85.1206112  29.8792815   3.9104795  84.9152374  31.3746691
  85.3885869  88.9339665   7.9125345  85.3593115  88.0006496   7.7020711
  84.9765793  88.9982406   8.7741321  38.3421421  42.5487709  30.2715731
  38.4680247  42.9070997  31.1502028  39.2147446  42.5662088  29.8785162
  33.4852886  23.4219360   5.5576843  33.7593031  22.5058103   5.5145180
  33.4703517  23.7107134   4.6452060   7.8292853  65.7948351  18.1146491
   8.2819879  65.3881836  18.8535166   8.3604902  65.5648422  17.3523128
  22.4778295  19.0575027  26.0833335  22.9879642  19.7269642  25.6274652
  22.2710443  18.4122360  25.4072404 108.1736802 103.2654202  81.6420499
 108.7489985 102.5106012  81.5176127 107.4130200 102.9131949  82.1041814
  17.4084401  15.1227701  16.5212035  17.9237163  15.7190359  15.9778929
  17.4681163  14.2788064  16.0735476  22.4191499  63.7054062  21.5332627
  22.4206138  64.4944000  20.9913015  23.1316733  63.1718111  21.1813927
 102.7714494  17.3778792  75.8163336 103.1301454  18.1034060  75.3052763
 101.8465666  17.5977822  75.9279767  83.5945224  93.8096201  84.7042540
  83.0075311  93.8599693  85.4586688  83.0497693  93.4582817  83.9999554
  26.6979933  54.2225218   3.3123863  26.3870025  54.0875673   4.2075419
  26.2916064  53.5172272   2.8087580  81.6251278  25.1108718  30.4607248
  81.5564156  24.7868538  31.3587904  82.1713352  24.4641614  30.0139022
   8.4270674  59.1466236   9.2340225   7.7214622  58.7913370   8.6935353
   9.2130113  59.0487432   8.6964869  36.4474797  43.0114269  38.8328648
  35.6879997  43.5590506  38.6340547  36.2916684  42.7004385  39.7246289
  82.2372738  29.4272824  86.8832017  81.9937561  30.2404710  86.4408643
  81.5695134  29.3132421  87.5594572  60.3391457  65.5750132  27.4494267
  61.2298107  65.8561087  27.2398210  59.9317932  66.3454008  27.8454065
  69.2272139  47.7226114  24.8645449  69.3721676  47.0859909  24.1645956
  69.8515224  47.4750090  25.5465746  16.1583757  66.3005018   8.6326462
  16.9507790  66.6900969   8.2631242  15.4728401  66.5023708   7.9958421
  19.5175982  69.6351528   1.0278635  18.6059785  69.4028187   0.8512182
  20.0273848  69.0375376   0.4808672  14.5582211  36.3529754  24.0175867
  13.7506843  36.6018295  23.5679364  15.1125574  37.1313906  23.9627171
  85.6068562 102.6776468  68.4357074  86.2106513 103.3871615  68.6553696
  85.0812720 102.5569546  69.2265490   2.3879257  61.2230349  33.6019087
   1.8732661  60.4476070  33.8256645   1.7470813  61.9330359  33.5638189
  27.8559470  62.2635317  13.4344888  27.6524091  61.4813519  13.9473259
  27.3714042  62.1469116  12.6172674  44.7819710  64.6850300  18.9094114
  44.6106052  63.8504314  19.3456602  44.7166252  65.3375912  19.6066403
  25.4076886  32.1415567  13.8538504  26.1018825  32.3902011  13.2435191
  25.4962397  32.7575350  14.5811474  43.7678576  55.1386452  26.1337614
  43.3791685  55.2033281  25.2614236  43.3009577  55.7932281  26.6531444
  39.8664522  68.4856224  19.3141782  39.8981571  67.7695656  18.6797547
  39.7013378  68.0552292  20.1530647  18.5193658  49.9003220  20.6706333
  17.6393676  49.5960140  20.4487491  18.5004556  50.8401299  20.4899740
   9.2475600   1.9480868  62.4819854  10.0085302   2.3575183  62.8937129
   8.6300607   2.6676341  62.3509148  98.3605317  28.7232228  88.8156294
  98.8839654  28.5792657  89.6039987  98.9412812  28.4796639  88.0947671
  56.0014605  93.3929693  89.1198977  56.7510151  93.9524376  89.3233501
  56.2284719  92.9824698  88.2855183  61.9571114  28.2773995  23.2477188
  61.1393881  27.8969860  22.9270172  62.6430130  27.7423334  22.8483772
  19.8323309  78.5274982   4.7551277  19.6917558  79.0894556   3.9931110
  20.7145596  78.7466955   5.0548875  26.7914343  56.3586283   5.6949699
  27.6847029  56.0534477   5.5363244  26.2790871  55.5566740   5.7979608
  13.0348611  51.4620686  27.1790886  13.1906593  50.5379295  27.3738241
  12.1020269  51.5087461  26.9696283  40.6302357  53.5248566  18.8397050
  40.0904799  53.1976795  18.1200862  41.4580393  53.7696171  18.4261084
  55.5070877  32.4696159  18.1060624  55.2251196  32.2564220  17.2165275
  54.6940136  32.5259209  18.6080313  47.7739334  28.4386206  24.0780067
  48.0073452  28.7981892  24.9338460  48.5924864  28.0761290  23.7391829
  30.8876419  39.3339014  24.3150759  31.3630056  38.7531328  24.9091887
  31.5366673  39.9835253  24.0449214  38.2187200  65.2766323   0.0355319
  37.8620791  65.9117079   0.6565961  38.8853168  64.8032093   0.5332790
  16.0102892  65.8667564  26.7381763  15.1939559  66.0670567  26.2802339
  15.7415807  65.3274059  27.4819040  55.8081579  30.8930516  22.7770066
  56.0673475  30.2304578  22.1366763  54.9466610  30.6078291  23.0814767
  23.0543995  73.8919687  28.7385631  22.2226048  74.3584776  28.8205266
  23.6855984  74.5688725  28.4943843  33.3204532  85.6301117   0.2697825
  33.8454652  85.3528690   1.0206036  33.1565690  84.8234844  -0.2188165
  21.4769626  42.5262642  27.6939893  21.1728907  42.5291777  28.6016035
  21.5937638  41.5998268  27.4834967  62.9252671 103.6361849  83.4209869
  63.3583807 103.2372915  84.1756598  63.0050277 104.5784294  83.5694597
  17.7742946  62.7484083  30.7809520  17.9394782  63.5571671  31.2655759
  16.9042146  62.4708796  31.0676050  62.4541378  20.8673048  17.4098647
  62.0276356  21.6647863  17.7234733  62.6184797  20.3561044  18.2022655
  37.6330853  25.9738922  48.8370037  38.3535075  25.8491826  49.4547987
  37.7416992  26.8706131  48.5202599  61.7736530  27.4865580   5.7810879
  61.1760187  28.1660128   5.4689926  62.6384687  27.7764726   5.4907858
   8.5860646  29.9150419  37.1785426   9.3856657  29.9827456  36.6567326
   8.5442626  28.9935851  37.4342847   7.0996041  12.5650331  80.4158107
   6.4480300  12.2585841  81.0465017   7.3067708  13.4555932  80.6990484
  29.7416711  59.9059486   9.0294039  30.2427745  59.4398212   8.3601844
  29.2587137  59.2189884   9.4888300  93.7511674   0.5028459  61.3240651
  93.5885636   1.3839599  60.9872678  93.5015980  -0.0780992  60.6054214
  25.6398535  46.9444847  37.9331422  25.9179664  47.4897957  37.1972585
  25.4972792  47.5633001  38.6493635  29.6742845  22.0068049   5.2842742
  29.2057920  21.3699341   4.7447005  30.5967951  21.8718147   5.0675118
   1.7853399  43.9035416   8.5490119   1.4474744  43.0088329   8.5887796
   1.2285034  44.3968296   9.1513634  43.8394880  66.0842037   6.2260991
  43.4765768  65.3645802   5.7096994  44.7866678  65.9507847   6.1903363
  81.7298030  89.8595059  77.9718951  81.4596318  88.9475381  78.0793885
  82.5086831  89.9449575  78.5216883  48.6839867  59.5726347  24.5526719
  47.9103136  59.1048956  24.2382240  49.3732023  58.9087200  24.5735669
  92.0464705  94.2191994  75.5254081  92.9688882  94.2651331  75.2738801
  91.6079186  93.8465082  74.7605482   9.5961326  84.4977951   3.8626763
   9.2099518  83.8168907   3.3117986  10.4810083  84.6128750   3.5162881
  38.1506276  52.2149563   9.0819091  38.9216566  52.4741030   8.5773391
  38.4939337  51.6391516   9.7651505 110.7142329  79.0393829  34.5714903
 110.1382915  79.3943357  33.8943410 111.5847795  79.3623114  34.3388987
  22.4445485  91.8811452  79.8515860  23.2305931  92.2555172  79.4538299
  22.7625464  91.4350140  80.6364921  21.4438033  30.4779482   4.6281236
  21.8356514  31.0221314   5.3111690  21.4287567  31.0399079   3.8533941
  97.4404744  36.0218450  76.6734806  97.0077184  35.4880353  77.3398117
  98.1537966  36.4565011  77.1409002  60.4857731  29.8115659  31.0636377
  60.0102568  29.7571087  31.8925810  59.8073673  29.7340941  30.3928185
  37.9244757  14.9065042  21.8666148  38.8330054  15.1974189  21.9451785
  37.4771452  15.6327581  21.4322376  32.1208620  36.0982752  12.7308059
  31.7675281  36.0011768  11.8465221  33.0418730  35.8506441  12.6492488
  10.7354350   3.0564710  66.4785675  11.4059062   2.7753993  65.8559135
  10.5805583   2.2874900  67.0271233   4.1885228  10.2370711  58.6906890
   3.5894008   9.9091598  58.0200485   4.0744109  11.1872216  58.6699036
  27.5992656  50.8213568  22.9416180  27.5597358  49.9567986  22.5327039
  27.8895473  51.4048529  22.2405457  26.4795804  42.2179651  50.7056236
  27.2350311  42.2712517  51.2910175  25.9443688  41.5124130  51.0689020
  43.4169579  14.0990984  34.6342349  43.2646370  13.1669450  34.7895432
  42.5420523  14.4676387  34.5119619  34.9403405  31.0362053  39.3034172
  35.6375933  30.5276489  39.7174692  34.9472570  31.8737507  39.7667766
  35.6165671  72.3826933   2.3170328  34.9431062  72.8647375   1.8371195
  35.5417871  72.6989794   3.2173693  63.9021444  37.6390910   3.8489738
  64.3842268  37.2263074   3.1324279  63.1971598  37.0233846   4.0493172
  25.7955885  50.9826612  18.4911013  25.1215696  51.6597128  18.5504735
  25.3115749  50.1581430  18.5373247  39.9657941  59.3211699   0.6557277
  39.7393036  60.0185966   1.2709776  40.7847595  59.6121931   0.2546900
  40.1312160  43.8288450  21.7742038  40.0083017  43.7866163  22.7225399
  40.3646755  44.7412777  21.6033411  60.5089855  30.1428175  24.6048570
  61.2498379  29.6481371  24.2546320  59.7759581  29.9126434  24.0339613
  94.3418053  14.7653790  87.7126492  94.0357569  13.8617822  87.7906350
  94.8897294  14.7657796  86.9277868  80.6435679  72.2882461  83.1874452
  80.1091527  72.5059831  82.4237541  80.7757186  73.1247055  83.6336551
  94.8255347  51.0918028  72.2369567  95.3176354  51.7719653  71.7771236
  94.8940944  50.3226919  71.6712717  52.6901102  27.7330232  22.2541356
  53.5024166  27.9687190  22.7022910  52.8249264  26.8275952  21.9743943
   8.8853064  93.1288540  89.7204584   8.6252966  92.5088751  90.4018207
   8.5746661  93.9770329  90.0372081  30.7312393  40.3071260  17.5592315
  30.5210114  41.2249899  17.7311671  30.2838182  39.8246527  18.2544029
  28.6612606  46.2571001   0.0104480  28.3589172  45.7431841   0.7592542
  28.5729766  45.6658697  -0.7371371  21.5666604  53.0894041  -0.2359655
  20.9679365  52.8752565   0.4795089  22.4384475  53.0260706   0.1541745
  70.1177167 101.6542255  83.5692189  70.7173013 101.1685049  84.1356144
  70.3358506 102.5736343  83.7219850  16.5183270  28.2283401  41.0974979
  17.1813512  28.2278395  40.4071140  15.9866822  29.0039206  40.9184408
  23.6027670  41.3181591   4.8095360  23.4479141  42.1101665   5.3242946
  22.8399444  41.2529516   4.2350087 108.9831952  43.0655499  37.6329974
 109.2350582  43.6797544  36.9434003 109.4035391  43.4063836  38.4225444
  62.5862551  80.5827427   4.5879623  62.2383690  79.9326515   5.1983643
  61.9738293  81.3162041   4.6444821  44.6864557  43.0752373   9.0704340
  45.5613136  43.4301138   8.9125913  44.7659254  42.1431303   8.8677359
   8.0959219  21.1665511  73.2658005   8.4096575  20.3660274  73.6864710
   8.8424832  21.7645240  73.3019495  28.0993128  57.3489523   9.8009425
  28.4810543  56.6917038   9.2191094  28.6552095  57.3310041  10.5799735
  60.2587938  49.0914631  22.6396275  59.7804356  48.5223866  22.0366740
  60.9783125  48.5484266  22.9615498  45.7756615  34.2615962  28.4054017
  45.1000118  34.8114491  28.8021255  45.9121656  34.6392870  27.5365257
  60.0784779  20.9589362  21.9346428  60.9642410  21.0110235  22.2937250
  60.1231909  21.4505720  21.1145663  50.7098984 104.5153010  81.5509084
  51.3712322 103.9078581  81.2194220  49.9827742 104.4381821  80.9331909
  15.3827202  26.0816455  22.8839803  16.1456549  26.4524484  22.4405074
  15.6434286  25.1865840  23.1010699  95.1975774  84.0506065  86.1791835
  94.6041345  84.7470033  86.4604125  95.3675603  84.2389738  85.2562234
  22.8794527  62.0086718  29.1010952  23.7468624  61.8818521  28.7167120
  22.3849940  62.4757624  28.4276247  28.3040881  57.3676109  17.9848778
  29.0645146  56.8367338  18.2218456  28.3661509  57.4641800  17.0345855
  46.1186695  68.9413118  20.2827835  46.7388868  68.4635687  19.7320426
  46.0201073  69.7902250  19.8516655   8.3917868  47.9258442  22.7509522
   7.7915627  47.5449848  23.3919716   8.7097275  47.1772480  22.2462296
  93.2378196  86.6584146  77.6747278  93.8175391  86.2371218  78.3092908
  92.3569535  86.5055835  78.0167047  16.7240787  47.1329260  31.1789417
  17.4001324  47.8096390  31.1437345  17.1685529  46.3351774  30.8921099
  40.1959896  62.9009008   8.8576996  39.3623519  62.6300621   8.4730893
  40.8145475  62.8804064   8.1274980  60.9649181  63.1573868  15.6129181
  61.5699053  62.8128815  14.9560034  60.2403688  62.5319529  15.6226397
  60.4100275  73.9803076  32.6485419  59.8182106  73.2410955  32.7883482
  61.2614632  73.6663771  32.9530621  30.5201721 100.0390911   3.1006685
  31.2445116  99.4983482   2.7857822  30.4029870  99.7747421   4.0131468
  18.7664127  63.6355877  10.3209412  18.5579574  62.9667616   9.6686774
  18.8771200  64.4392776   9.8129463 109.2730621  22.2105380  73.3437148
 109.9712304  21.8699285  73.9029816 109.5502809  21.9912549  72.4541656
  32.9257150  44.2180081  65.9599808  33.5712238  43.6035462  65.6107238
  33.2721801  45.0819417  65.7367924  45.6910229  76.5844917  20.8280063
  46.0500288  76.1944532  20.0310016  45.6256294  77.5185108  20.6291127
   3.8342705  93.8299477  43.7152318   3.8517180  94.4505941  44.4437388
   4.6473303  93.9971840  43.2385806  68.9598370  59.3011856  38.0378294
  69.4066858  59.8185730  38.7078094  69.2585802  59.6740913  37.2084165
  55.3077793  63.5344315   1.8146949  54.5898771  63.4364700   2.4401951
  54.9516487  64.0978003   1.1276607  34.3553472  42.3468685   0.1795866
  34.4729352  43.0713558   0.7940173  33.9313006  42.7442884  -0.5809891
   6.9796176  33.0628415  82.3394135   7.2687144  32.8300782  83.2217238
   7.4974961  32.5020047  81.7619232  94.6780156  93.6033499  90.0788779
  93.7779235  93.6569750  90.4001119  95.2121877  93.9132845  90.8101997
   1.0436430 101.8223631  87.6087690   1.6521969 101.7749178  86.8714482
   1.6049853 101.9362032  88.3756900  41.5643883  70.7029247  18.0710220
  40.8763695  70.0434399  17.9818738  41.8898010  70.5903387  18.9641428
  43.4626293  37.9538870  16.6466045  43.0534077  38.1610870  17.4867475
  43.5897589  38.8042402  16.2259269  63.5304499  51.3202858  20.0755525
  63.8209581  50.4160213  20.1944733  62.6939440  51.3659716  20.5385900
  43.7473293  29.3100568  88.7657483  43.8973518  30.2296945  88.9848173
  44.5593257  29.0287324  88.3441346  81.3030051  96.1536657  85.8611104
  81.1859654  96.7347538  86.6126887  81.3344048  95.2752554  86.2401105
  29.6027184  48.1571865  13.9475513  29.6046519  47.4454355  13.3075213
  30.2178264  48.7994146  13.5934138  49.1965675  60.3987598   3.4644380
  48.9133358  59.7862148   2.7856153  50.1218319  60.5547953   3.2753098
 105.7941870  11.7713662  85.3952542 106.3531188  11.0379048  85.6518850
 106.2478355  12.5459357  85.7276348  49.9393559  87.5240040  26.7318702
  49.4994402  88.2589245  27.1591759  50.4628992  87.1222973  27.4252415
  59.3504047  82.8629017   9.0379137  59.3780136  83.8189888   9.0749174
  59.7578478  82.6437759   8.1999362  59.4552040  74.6905613  48.4273291
  59.1234255  74.6145201  49.3219662  60.4070044  74.6506071  48.5206509
  49.0438652  26.8565726  -0.3576602  49.6607256  26.6034174   0.3290888
  48.3094645  27.2503471   0.1133271  41.0124397  32.1635723  16.1127830
  41.0749912  32.2605896  17.0629978  40.0722122  32.1267080  15.9371674
  49.9002695  36.1583829  18.9853644  49.9872541  35.2601981  19.3046296
  49.2010689  36.5356779  19.5192170  61.3077736  49.2243385   7.4996865
  62.2174835  49.1068935   7.2260642  61.3613653  49.4051504   8.4381247
  47.6340103  58.3193827  30.8948255  47.3808002  58.1516171  31.8025541
  48.5863495  58.4109640  30.9248400  30.0634074  69.8247242   4.5947483
  29.2501998  69.3827772   4.8388883  30.1591325  70.5243301   5.2409881
  50.2528858  84.7889805  18.0024552  51.1084747  85.0998306  18.2983685
  50.1990271  85.0693989  17.0888388  71.4496374  93.1507301  36.1795831
  70.5589342  93.4730816  36.0418534  71.3353682  92.2404289  36.4525986
  17.3614621  46.6342115  45.6412077  17.5329411  46.7130470  46.5796185
  16.4992082  46.2218571  45.5891037  40.0226445   0.4926892  89.1753401
  40.4761739   0.5238172  88.3329788  40.0134225  -0.4356984  89.4082337
  57.8011274  69.6784306  23.0343151  57.1923685  69.7421598  22.2983932
  58.6542845  69.8963261  22.6589751 106.3630775  35.7742234  61.1557177
 106.7866877  34.9176618  61.1001233 105.5816988  35.6909295  60.6091455
  73.8404465  55.2130699   3.1739274  74.4978428  55.3367662   3.8585889
  74.0939999  54.3967772   2.7430978  46.4018631  60.4986191  17.6809669
  45.4949284  60.8005095  17.7316058  46.3597345  59.7011757  17.1531940
  67.3975515  67.3089123   9.0013927  68.2282972  67.5615025   9.4042444
  67.4105930  66.3518143   9.0054977 100.2492808  79.7829568  74.6121160
  99.3363809  80.0576746  74.6979681 100.5266093  80.1343929  73.7660578
  39.2255020  48.1337404  19.1826510  38.9581037  48.0952883  20.1009369
  39.9952292  48.7027311  19.1809547  60.1048088  47.5289679  25.5389857
  60.0726223  48.4031868  25.1504779  60.8417082  47.1003819  25.1036429
  47.6097059  70.4831600  25.3863907  47.5615931  69.9355316  24.6027970
  47.1734762  71.2977028  25.1364946  70.7123112  70.8730113  90.4199614
  70.1029276  71.4641630  89.9778936  70.5891394  71.0549163  91.3516112
  48.9115763  35.0125432   8.3360052  48.8598442  34.4895267   9.1360116
  49.2639923  34.4117451   7.6794410  50.3469992  94.6719170  17.2876012
  50.8605814  95.3026772  17.7921879  49.5670509  94.5172119  17.8204942
  62.6842976  52.0652151   1.4623250  62.6147747  52.1645260   2.4118172
  63.1416798  52.8542948   1.1718263  99.3387297  28.3630200  78.9233116
 100.2216748  28.1555768  78.6173574  99.0253309  27.5499555  79.3194727
  29.2164874  24.0559459   8.0958611  28.5403919  24.6253633   8.4631371
  29.5273685  24.5227575   7.3201859  52.4998522  81.8995762  17.1963239
  51.6645288  81.7619324  17.6430023  52.6209068  82.8490734  17.2020245
  24.3196750  21.8716216  18.1258869  23.7360692  22.6268983  18.1979394
  25.1466513  22.1710515  18.5036194  66.2854147  57.5961971   5.4090732
  66.8449879  56.8391705   5.5823505  66.5829182  57.9247570   4.5606792
  58.7583256  26.7906833  18.5397232  57.9562569  27.2095728  18.2275617
  59.3644667  26.8539310  17.8015995  34.8384996  16.0936280  85.7514665
  35.1492591  15.1944037  85.6463042  33.9779706  16.0033246  86.1608086
 100.9716967   8.4701272  66.5219191 100.7067541   8.8130303  65.6684235
 100.1810960   8.5264560  67.0585827  99.5954326   7.5916120  86.7392913
  98.9667419   7.6012488  86.0175661  99.8121694   6.6665813  86.8557972
  61.2858963  70.0780725  17.0963645  62.0896244  69.5759487  17.2309816
  60.7957602  69.5756388  16.4455509  42.8499413  45.4161310   7.1041602
  43.0535221  44.5245361   6.8215895  43.5523891  45.9508944   6.7342526
  29.1112971  71.9817162  17.0567298  28.7019277  72.7441168  17.4658740
  29.7225022  72.3512030  16.4194357  96.1028862   3.7147915  52.5758123
  96.2967205   4.4204840  51.9588375  96.9592953   3.3508378  52.8001738
  55.4404879  65.3519917  18.8117111  55.1364946  65.9129572  19.5252502
  55.4166412  65.9147835  18.0378032  61.9106674  57.2872162   6.6626573
  61.2337685  56.6810036   6.3617557  61.8290091  57.2832012   7.6163590
 106.2186192  89.4267213  39.7543982 106.0849189  88.5870707  39.3146876
 105.8031558  90.0678956  39.1777543  12.8564250  60.9777641  19.9648559
  11.9957042  60.6006861  20.1470637  13.0888224  61.4434624  20.7681918
  72.8051351 101.8349278  85.5999080  73.3718800 101.3911831  86.2308762
  73.0435323 102.7591288  85.6723944  94.9605559  82.1682131  82.6434318
  94.1414308  81.9373595  83.0815808  95.4366254  81.3406908  82.5741932
  67.2574472  69.5473814  32.3302197  67.8564692  69.8167133  31.6338968
  67.8130627  69.4640017  33.1051874  20.6041570   6.5885612  43.7893943
  21.1751743   7.1013232  44.3614510  20.9092231   6.7889329  42.9045132
  23.7149644  56.6515017   4.5872071  23.6893106  56.4286518   5.5177504
  24.6477175  56.7137289   4.3814525  32.8022618  37.7959176  76.4179114
  32.5701995  38.6576577  76.0717992  32.8668161  37.2364064  75.6439570
  10.9602542  15.1614638  84.6470681  10.8993573  14.4909211  85.3274313
  11.2328286  14.6837398  83.8636682  36.0945082  60.4683018  19.1755903
  35.5127931  59.9253082  18.6436176  36.7012477  60.8575058  18.5458136
  45.4121113  56.7902613   0.3912056  45.6231833  57.3863649   1.1097702
  46.1705112  56.2093353   0.3312990  39.0594459  49.8905134  23.7411022
  39.7648406  49.5712423  24.3038774  38.2952118  49.9332285  24.3158650
  67.6227570  54.5404673  14.5138907  68.4620428  54.9014187  14.7994483
  67.8046274  54.1634226  13.6530828  69.8039913  40.9375954  15.8800173
  69.8036289  40.5203295  16.7414832  69.4201946  41.8012047  16.0320294
  35.6517625  89.1817379  23.2329631  35.9930587  88.3468533  22.9124761
  36.1355996  89.3431950  24.0429401  46.2376022  66.0480690  28.6825705
  47.1202230  66.1879349  29.0255761  46.1721039  65.0998449  28.5693765
  56.0072613  86.5754223  32.3457003  55.1209641  86.3061142  32.1044779
  56.2676811  85.9576797  33.0289388  35.2089114   9.3345662  73.7127188
  35.0182672   9.8091002  72.9035798  35.4036803  10.0198098  74.3520418
  48.4032726  51.2699032  13.1981575  47.4727964  51.0703230  13.3011758
  48.7189770  50.6217432  12.5685155  37.9238200  72.7704763  26.2183380
  37.5593114  72.4630404  27.0483065  37.7227402  73.7061453  26.2003875
  54.6574317  95.2351915  85.5265108  55.4977488  94.9136746  85.1998196
  54.5296167  96.0706865  85.0772462  30.6349134  47.5893116   8.5046452
  30.5082202  46.6842270   8.7892449  31.4219451  47.8777742   8.9668173
  56.7103148  91.6726398   6.9622856  57.2603893  92.4558735   6.9478744
  57.3180771  90.9564781   7.1465868   2.6844711   5.9444257  76.5230051
   1.7382832   5.8422347  76.4204565   2.8179903   6.8902942  76.5841237
  93.1913852  94.9228489  82.8906093  93.2182454  95.4826319  83.6665950
  94.0995215  94.8859703  82.5903354   1.7398973  24.1098710  84.0928838
   2.6861544  23.9656850  84.0992955   1.5447993  24.4582149  84.9628404
  37.9468346  37.9810643  13.9913476  37.9025173  37.6363301  14.8832130
  37.4066758  37.3820710  13.4759188  91.4942603  16.4861497   2.6741523
  91.1345582  16.4526566   3.5605636  92.0746903  17.2472676   2.6798126
  27.8827620  60.7643175  37.5874376  28.7994456  60.8905888  37.3425341
  27.7542114  59.8163891  37.5536394  25.2595663  37.5971079  37.6238728
  25.4007316  38.2489014  36.9372368  25.5007386  36.7647982  37.2172666
  66.7704153  76.5529490  10.2392352  66.7351866  75.6715250   9.8676300
  67.7035856  76.7199183  10.3716862 103.0860042  85.9805619  87.2111038
 103.4468745  85.9533441  88.0972535 103.7699651  86.3969361  86.6866413
  71.1274624  48.6516476  22.1263599  71.0409021  49.5582342  22.4210477
  71.4126062  48.7221193  21.2153387  38.5292840  45.2594852  13.5769081
  38.6710072  44.5124817  12.9954183  39.0721393  45.9563589  13.2082498
  45.0757599  61.5376329   1.1850793  44.8502922  62.4521828   1.3553706
  45.6675386  61.2999296   1.8988916  36.2029696  89.0307331  10.7253754
  35.4919553  88.5394764  10.3138494  35.8291793  89.8951912  10.8963501
  44.1782999  71.1575842  27.2016454  45.0920486  71.2222195  27.4793339
  43.7394571  70.7090616  27.9244733  21.7764278  17.3139163  78.9931360
  21.9865699  16.3894244  78.8612870  20.8701129  17.3119756  79.3010739
  55.2564335  64.6555901  31.7933750  56.1939955  64.6148205  31.9819212
  54.8743677  63.9584732  32.3265553  19.1017687  40.0295210  19.7044814
  18.2365334  39.9821377  20.1111174  19.6015084  40.6160355  20.2723646
  51.3819595   9.1898938  81.7448608  50.8773036   8.4828874  82.1469740
  51.9812102   9.4780417  82.4334124  52.6289988  81.3287544  30.1467395
  52.0138550  80.8744335  29.5710444  52.0736694  81.7767429  30.7848239
  86.3268185  89.3887520  16.0591364  86.2091827  88.4989452  15.7265329
  85.8774757  89.3898869  16.9043136  37.2067189  46.0653782  37.5995207
  36.6571999  46.0904074  38.3828688  36.7203236  45.5179024  36.9831419
  50.9663296  63.7536049   1.3561291  51.5244436  64.3890810   0.9079006
  51.3084459  62.9015493   1.0855912   9.1411824  12.7031537  83.1196765
   8.4159131  13.3210727  83.0280713   8.7197204  11.8667050  83.3170358
  90.7927608  90.0052547  20.5974269  91.6358089  89.5647049  20.4906082
  90.1437187  89.3369007  20.3777003  68.3245564  43.1669807  20.5721951
  68.8390779  42.4808693  20.9973383  67.4144125  42.9222727  20.7394958
  20.0095630   5.6757474  29.2937207  19.6013701   6.5158731  29.0844345
  19.5032549   5.3412694  30.0339961  31.2254548  44.0328789   0.9613035
  30.8685708  43.4095287   0.3286133  31.4476514  44.8036098   0.4389696
  49.5144415  50.9323788   8.9697337  48.8621140  51.1124468   9.6466941
  50.3509951  50.9411716   9.4348460  60.0751566 102.5344622  85.0718704
  60.5125522 103.3310759  85.3724137  60.1602196 102.5595390  84.1187874
   1.8243594   9.1902705  57.3656229   2.2733708   8.3754130  57.1406225
   1.3436694   9.4258519  56.5721062  42.2680473  33.4340239  14.0705323
  41.6814518  32.9860926  14.6800351  42.3434591  34.3220997  14.4196236
  42.2697973  20.8960485  39.1846180  42.4388218  21.1798286  38.2862139
  43.0749941  20.4523683  39.4511485  24.4470882  64.7647715  12.8462791
  24.7497869  65.2840662  12.1013379  24.6590996  63.8615942  12.6105845
  12.9053187  66.1205530  58.0578136  11.9662344  66.0419130  58.2256460
  13.0075204  65.8611441  57.1421194  36.5443134  36.3104105  31.8770957
  35.8203244  36.0320854  32.4379921  36.2830520  37.1750021  31.5601492
  42.9493952  70.9293413  -0.2822096  42.9836321  71.7708111   0.1727466
  42.6437569  70.3106642   0.3811572  80.1743602  88.0030977  84.3587074
  80.7272576  88.6976659  84.0007809  79.2913054  88.3724224  84.3518493
  39.5755672  91.2059307  24.5296264  39.3536472  90.5275917  25.1674652
  40.3755999  90.8884144  24.1108704  37.7105975  67.9159021  25.1720572
  38.3470917  67.2423697  25.4117703  38.2281852  68.7171793  25.0927281
  43.2890887  25.6930228  84.3486074  42.7071519  25.9867879  85.0495253
  43.2895847  24.7386333  84.4219283  57.5893164  59.5857668  16.3875175
  57.2177505  59.7913361  17.2453690  57.0931530  58.8240004  16.0879076
  59.1696405  59.4214439  37.8975630  58.8369703  58.5241604  37.9187346
  59.1672325  59.6559429  36.9695330  44.0512991  82.7474213  30.2333045
  44.0326405  81.8460464  30.5548811  43.7006569  82.6918888  29.3443751
  36.0181880  79.9240971  18.3817315  36.3877916  79.0546274  18.5355103
  35.6127095  79.8624468  17.5168514  54.0607405  75.8642101  41.4284897
  53.3054781  75.4742384  40.9883451  53.7562227  76.0362101  42.3195076
  45.8070612  94.1285038  15.2925766  46.6888905  93.8497734  15.0457549
  45.9425974  94.7354794  16.0202086  38.1057306  40.1976701  85.2885494
  37.4582000  39.4928475  85.3013793  38.7130208  39.9523088  84.5905313
  89.0686468  33.3266278  50.2704457  88.2526819  33.2959004  49.7709540
  89.7568790  33.2458516  49.6101073  17.2035685  89.6586525  84.6455911
  17.3350706  89.1171157  83.8673392  17.3407355  90.5551684  84.3395249
  60.8369780  62.0456457  21.7376733  60.8669424  61.4922285  20.9572482
  61.0597944  61.4560652  22.4580765  72.2215223  40.8724117   7.3482883
  72.2868204  40.0660276   6.8367112  72.7012587  40.6838799   8.1548476
  20.8477688  72.0732832  31.1417627  21.7066407  71.7875719  30.8304119
  20.2391601  71.7895222  30.4596281  64.3811821  90.8228790  83.8021371
  64.3236422  90.3425371  84.6280864  65.0677585  91.4731228  83.9505533
  95.4222707   2.3328467  82.6348302  94.9957875   3.1409808  82.3497561
  94.7810081   1.9129916  83.2081846  18.1721675  70.9119892   4.7746941
  17.8637552  70.0077391   4.7160038  19.1197121  70.8350992   4.8864061
  36.3209939  37.0416880   5.5896252  36.0117316  37.8069997   5.1049757
  37.2742128  37.0767546   5.5097771  49.6589613  65.0849724  31.8273187
  49.9959707  64.2299271  31.5598202  49.3807983  65.4990435  31.0103703
  83.6975956  40.0883007  11.8211317  83.6358261  40.8797598  12.3559284
  82.7941227  39.7825813  11.7405260  92.8725242 101.5867817  75.7861677
  93.7573956 101.8636286  75.5482701  92.3663663 101.6832935  74.9794964
  52.5788307  55.9980297  15.6578588  52.5946760  55.4115438  16.4141762
  53.0484676  56.7790604  15.9505427  34.3373728  36.7668080  39.8796463
  35.1143599  37.2864556  39.6735215  34.0999675  37.0329452  40.7679272
  46.7532778  89.3111229  44.4651222  47.2583199  88.5825729  44.1040468
  46.0346365  89.4349289  43.8450766  76.7838812  44.9498367   7.1713930
  75.9678793  44.4502783   7.1427971  77.3336029  44.4751358   7.7948481
  20.6274700  67.7196980  25.5913830  19.6738744  67.8024483  25.5976129
  20.9116650  68.2786560  24.8681736  68.0826283  27.7568984  19.6672273
  67.7526999  27.3559642  18.8630962  67.8994989  27.1109986  20.3495097
  32.5451851  68.2399178  12.0974422  33.3644485  68.4767485  12.5321269
  31.8634033  68.6409140  12.6365221  88.4578553   1.7321750  79.6694485
  88.8701025   1.7176171  80.5332032  89.1601483   1.4925548  79.0648011
  41.7804861  32.7824497  21.7931080  42.7151060  32.9586291  21.9012022
  41.7296839  31.8370152  21.6523862  32.9492259  58.0360889  14.0029836
  33.5679555  58.0128241  14.7329605  33.2857680  57.3890591  13.3830440
  14.6662307  82.0969391  40.1090193  14.1468167  81.5414810  40.6903172
  14.1399169  82.8891754  40.0013542  60.0079584  70.4907990  19.7970152
  60.8337450  70.4879141  19.3129766  59.5473433  69.7100973  19.4894922
  94.4824032  21.6748067  89.3650152  94.3512896  20.8168431  88.9613611
  93.7789241  21.7459746  90.0102177  88.5229348 103.5002339  77.4917821
  88.6016320 102.5936281  77.7886072  88.8289117 103.4827768  76.5849713
  93.3528136 102.4616682  80.9971837  93.6831283 101.7703449  81.5709374
  92.6187228 102.8425419  81.4791397  46.7421150  37.4509335   5.5334890
  47.0330334  36.6130853   5.1734751  46.6134501  37.2790694   6.4663017
 104.7036223  10.1202115  13.6764467 104.7473340   9.5299634  12.9241645
 105.1521640  10.9138402  13.3845723  17.8193755  25.4928561  63.0613903
  18.4587569  25.8522101  63.6764411  17.4640937  24.7239371  63.5072306
  48.4011030  33.0407763  26.4241195  48.9852476  33.7983513  26.4571023
  47.5452948  33.4077001  26.2023211  62.7700472  72.4053574  17.8034389
  62.2374916  71.8829775  17.2036600  63.5482645  71.8705988  17.9604399
  52.6529980  89.7540665  12.0070362  52.6788950  88.7972164  12.0050871
  52.2689247  89.9815464  12.8537774  55.2184391  70.2660704  12.4715829
  54.6976519  71.0445499  12.2741449  55.9957838  70.6043243  12.9160440
  65.1058769  89.4187927  14.5889211  65.0473166  89.6649551  15.5120718
  64.2209435  89.5515156  14.2490518  11.7661178  53.5256338  15.3549957
  11.1548591  53.0917168  14.7597575  11.3208079  54.3343067  15.6079376
  44.7852468  92.9839706   9.2367178  44.1781139  92.9414272   8.4979266
  45.5196667  93.5058498   8.9134437  43.7876983  15.9679957  79.2815975
  44.0603156  16.8091174  78.9149526  43.3367915  16.1959573  80.0945858
  20.3462601  31.5320444  17.2114527  19.8388445  31.4947605  18.0222380
  20.8544326  32.3399734  17.2838724  74.1145897  81.9501114  13.1283605
  73.3347321  82.5050735  13.1199527  74.0790987  81.4745522  12.2984087
  61.3197517  72.8085661  39.5536876  61.5201902  72.3940325  38.7145090
  61.8075228  73.6319828  39.5366406  35.4894614  79.2799187  12.3904896
  35.8721328  78.5939217  11.8434894  35.9986758  80.0634766  12.1831906
  46.9651651  91.7443657  16.9187629  46.9422054  91.2176418  16.1198449
  46.4415407  91.2481594  17.5479174  43.0272861  26.2764188  75.3330103
  42.8656097  26.3643332  74.3936673  43.1191821  25.3339931  75.4730574
  75.4227066  69.1405964  10.4040813  75.2946091  70.0806570  10.5310071
  74.9094152  68.9321709   9.6234894  87.0744419  75.0244570   7.1731305
  87.3170376  75.6427097   7.8624362  87.1324253  74.1651630   7.5908458
  26.0397887  89.0102863   1.8635556  25.1737404  89.4156170   1.8199620
  26.5494657  89.4612789   1.1904537  28.4586282  48.4474679  85.5598608
  28.3864255  47.5562402  85.9015126  29.3262191  48.7410279  85.8379618
  21.8464513  35.6354733  81.4281497  22.6033302  35.0824185  81.6217635
  21.1273046  35.2376100  81.9188271  58.8568163  97.9365063  18.7713885
  58.2963705  98.6929798  18.9442575  58.2499695  97.1993923  18.7033558
  36.1246629  38.3917256  84.8373679  35.8712430  38.3502027  85.7594780
  35.3782315  38.0206128  84.3668923  77.7815819  71.0202694   1.7389299
  78.0444527  71.1591053   0.8290641  78.0933905  71.7991018   2.1998291
  50.8969402  75.2185392   7.0130354  50.3712606  74.6022701   6.5030271
  51.7860508  74.8663998   6.9716269  78.3665991  65.7512236  20.2371359
  77.6864147  66.4176798  20.3341818  78.0011177  64.9729586  20.6577969
  46.9955492  78.7784767  47.8058147  46.4261818  79.3942738  47.3444605
  46.6448164  77.9158592  47.5842047  20.6518645  21.2830945  81.0259292
  20.8067603  20.8615705  80.1806167  19.7314878  21.1035415  81.2180308
  61.1524725  78.3600235   3.2498211  61.2663126  78.8668203   4.0538302
  61.6828156  77.5746632   3.3846274  61.2177801  91.8560600  16.4538991
  61.0951328  91.2205601  17.1591198  61.2551594  92.7029324  16.8984568
  62.2507191  59.5429993  32.9094052  61.5325308  58.9920044  32.5982213
  62.0647335  59.6766138  33.8388062  39.8560858  43.9028692  10.0858116
  39.1656828  43.7707186   9.4361103  40.4053688  44.5932961   9.7145522
  93.6454538  38.7661859  86.4742360  94.2708091  39.4848081  86.5677369
  94.1022888  38.0034657  86.8289131 100.3381543  12.2253808  17.9411030
 100.9115939  11.4768609  18.1058156 100.2384715  12.2458562  16.9893277
   5.9964891  42.4423333  89.7147739   5.4266973  42.5552388  88.9539710
   6.3677354  43.3113595  89.8670430  47.3599339  76.9617081  26.7010355
  47.9506445  77.2090530  27.4124527  47.4550676  76.0119009  26.6300130
  27.6834674  34.2697831  83.7552122  28.5108228  34.6199056  84.0855536
  27.3505445  34.9519082  83.1720362  99.3159580  85.3919697  21.2873244
  99.2043781  84.4530296  21.1384201 100.1799011  85.5907249  20.9262872
  49.7522736  57.4288416  11.7902899  50.3749561  57.2369337  12.4914813
  49.0258789  56.8244743  11.9429851   0.7732097  82.8203964   7.0411968
   1.3374034  83.5643578   7.2519851   0.1444427  82.7848244   7.7620459
  71.0590363  79.0205956  28.7560725  70.4555988  79.6810150  29.0965772
  71.1802197  78.4094954  29.4827795  15.0448985  44.0458699  70.8365229
  14.1790958  43.7491342  70.5562285  15.5807586  44.0030786  70.0445274
  64.5162439  80.6625271  41.4535666  63.7839937  81.2381268  41.2328291
  64.7840929  80.9408283  42.3293734  50.6110854  16.3682672  73.7346855
  51.4990993  16.7173167  73.8110272  50.2514739  16.7962762  72.9576889
  72.8934622  84.0318775  29.6517372  72.0338631  84.2945099  29.9809003
  72.8513718  83.0766296  29.6075058  57.3850918  78.6590004   1.0497504
  57.9183722  79.2488050   0.5168559  56.4909649  78.7958193   0.7366231
  64.5598698  75.8261538  12.2932816  65.2358341  75.2575159  12.6619947
  64.5097923  75.5722570  11.3717282  71.5706396  93.4005451   6.3074642
  70.6234694  93.4243393   6.4435953  71.9338226  93.8471317   7.0722437
  45.7749605  37.9697824  12.8629208  44.9357462  37.5343490  12.7134120
  46.3036776  37.3188376  13.3244002  35.4820013  73.5294914  23.8327074
  35.8970952  73.8975143  23.0526519  35.7146072  72.6012039  23.8124323
  29.3563743  21.7919847  84.9556801  29.7974487  22.5508662  84.5738617
  28.4240909  21.9988938  84.8903958   8.5595828  87.9036045   8.2382023
   7.7813447  88.3571529   8.5620391   9.1151482  87.7998161   9.0107352
  49.9004507  77.5473785   1.0517410  49.8441029  77.4433374   2.0016003
  49.3942690  76.8149948   0.7001307 103.6087421  16.6282102  80.8875785
 104.1224817  15.8272286  80.9911731 103.6285547  16.8055125  79.9471513
  86.0754204  85.4549026  19.0285265  86.0071754  86.1926365  19.6346033
  85.3604126  85.5890751  18.4064329  66.9543886  49.7337389  15.3206992
  67.1502352  50.5615664  14.8818588  67.0621347  49.9251842  16.2523496
  55.8880186  58.6141920   2.9386005  56.2983656  59.2539501   2.3567452
  55.0788403  58.3675003   2.4907115  40.8116388  78.5859442  27.1921849
  40.0135612  78.0897522  27.3741102  41.4303637  77.9329109  26.8651319
  14.3026292  56.2481928  12.7603745  13.9782906  55.8523178  11.9514751
  13.6587083  56.9243622  12.9710686  56.8451691  57.0649958  15.5454648
  56.1554003  57.1127796  14.8835230  56.4152050  56.6869354  16.3125587
  73.7590694  76.3601398  58.8047457  74.7132540  76.3280344  58.8735151
  73.5258913  75.5605602  58.3330107 107.0381955  28.9324208  75.6266943
 106.8160132  29.8632356  75.6052223 107.8719953  28.8959619  76.0953966
  44.7915263  23.2800075  87.9991064  44.3866344  24.0689679  88.3594326
  45.7285114  23.4753676  87.9879699  42.3120642  55.9379244  30.2517843
  43.0068922  55.4050922  30.6384826  41.5659761  55.3426695  30.1793027
  82.0564938 100.0410175  44.1862488  81.3629436  99.4207954  44.4110632
  82.6204014 100.0603580  44.9594641  82.6440430  73.8336611  18.0142164
  82.3551750  74.1170883  18.8816595  82.5588799  72.8804445  18.0330086
  56.7060089  58.5128689  22.4874306  57.5500441  58.7629223  22.1115112
  56.4527369  57.7258158  22.0051098  51.8477440  60.8957767  12.9620373
  51.3888788  61.6975021  12.7112055  51.7998934  60.3392410  12.1847320
  30.4360414  51.5088892  15.2625501  30.1758933  51.0821533  14.4461846
  29.8699808  52.2785234  15.3214586  59.3722296 102.1201229  19.4964743
  59.2381096 101.7793941  18.6120820  59.0655518 101.4195442  20.0721216
   8.9978500  17.0571013  71.9401339   9.6654363  16.8361779  71.2907103
   9.4857068  17.4636146  72.6563600  71.6464710 100.6308556  23.0275345
  71.1275434  99.8607540  23.2596803  71.6704082 101.1539650  23.8287902
  47.6138496  67.2761393  18.3301425  48.4722424  67.6248789  18.0897820
  47.5272083  66.4754486  17.8128242  20.2209230  39.0681859  78.3321479
  21.0909267  38.8669702  77.9874209  20.2836843  38.8760205  79.2677585
  17.7853465  70.1558685  50.5205011  17.7356946  69.3691111  51.0634375
  17.4017620  70.8454180  51.0623741  45.3218889  68.9640856   3.9761862
  45.7235003  69.3317842   4.7634220  44.3803024  69.0518761   4.1243097
  34.9815583  94.2963600  18.3012772  34.1704226  93.8558102  18.5546744
  35.0884485  94.9926853  18.9492977  59.3438292  94.6878338   4.1251403
  58.9970446  94.2856216   3.3287734  60.0236511  95.2860069   3.8148791
  18.8798137  42.0316716  87.6703445  19.2969508  41.4930936  86.9979147
  17.9434867  41.9667645  87.4824402   5.0675340  19.3378421  66.4443234
   5.6022020  19.4614383  67.2285989   4.4570060  20.0750180  66.4520482
  44.0404124  34.9086877  89.6805769  43.4236331  35.6111165  89.8865040
  43.6890693  34.1413804  90.1322614  82.2787476  85.3195572   5.9087336
  82.4946308  86.0973167   5.3942257  81.7140007  84.8019123   5.3348601
  62.9709911  84.1126347  38.3962369  63.0890846  84.7242928  39.1229796
  63.5806465  83.3986282  38.5826492  75.7377577  67.9148388  14.8178816
  76.6385651  67.5951767  14.8688745  75.5156898  67.8579950  13.8885343
 110.3007416  48.8672944  61.3036207 110.7629422  49.3718740  60.6342915
 109.6828417  48.3264657  60.8117512  54.9565411  76.2067318  22.8185272
  55.2862692  76.9322968  22.2883725  54.3414783  76.6153193  23.4276175
  51.9484663  84.4986629   9.2170256  52.5432587  84.5432281   9.9656683
  52.0495224  85.3443432   8.7801564  41.9620323  85.1495838   8.2089597
  42.9159546  85.1091099   8.2770020  41.7135143  85.8891010   8.7635636
   4.7568746  42.4301835  87.2130061   4.2696185  43.0549832  86.6759441
   5.2046485  41.8685742  86.5802867  47.4061346  55.7151604  12.7560318
  48.0125380  55.0655890  13.1117868  47.5130224  56.4786291  13.3234131
  75.2165079  66.8192005  19.0422082  74.7786331  67.0619297  18.2263792
  75.0641346  65.8778334  19.1249239  69.4232655  92.2017002  23.5239172
  69.6638584  93.1271458  23.4802246  68.8068056  92.1487141  24.2542577
  80.3122382   2.6951512  35.5261493  80.2440314   2.6766404  34.5715618
  79.4328313   2.4750241  35.8334184  56.3405371  87.2124672  12.7526176
  55.7225323  86.7149448  13.2881200  56.7212057  87.8502750  13.3563852
  36.4445448  74.4367743  21.4382696  37.2079325  73.8595057  21.4534783
  36.4423776  74.8078060  20.5559063  16.9651308  83.0398070  79.0454260
  16.6094389  82.6956665  78.2261101  17.1890631  83.9488685  78.8461915
  52.2195959  99.2943287  46.6665077  53.1276131  99.4392776  46.4005709
  51.7556190  99.1176891  45.8481216  63.2104282  32.5416955  24.4230223
  63.7628655  32.2676381  25.1551008  63.0786877  33.4797677  24.5604467
  52.4930663   2.0190974  63.0761651  52.2864719   2.9041072  63.3766726
  53.0780406   1.6685411  63.7478403  45.8067369  77.0210981   8.5100800
  46.5996885  77.1703053   9.0250504  45.9988403  77.4094582   7.6565564
  59.5430803  85.5077744  32.4724746  58.6129856  85.4257393  32.6832509
  59.7688770  84.6754265  32.0572090  70.4324055  85.5556107  44.4334936
  69.9102163  85.5747128  45.2354813  69.7993135  85.7073879  43.7317944
   6.1692419 103.5598766  76.0736982   5.4448691 103.0595839  76.4495054
   6.9380370 103.0055630  76.2075690  71.5069771  64.2259264  36.9756842
  71.0112667  63.4113169  36.8925476  71.7691135  64.4392443  36.0801339
  28.5863924  88.0809689  57.4779701  28.0230618  87.6918793  56.8090153
  28.6751318  87.3982906  58.1430340  51.3200378  66.1013031  27.8506303
  51.7633343  66.8718195  27.4956346  51.1990643  65.5255079  27.0956111
  39.3018866  50.1724672  29.4514704  38.4094739  50.0808096  29.1176605
  39.2087555  50.1168966  30.4025054  60.4806900  74.5679665   1.3905823
  60.7581329  75.3947973   0.9961030  60.0381327  74.8251009   2.1994458
  61.1153078  89.3477821  74.3910408  60.8232546  88.6921692  75.0243664
  61.1709452  88.8720989  73.5622740  72.5165367  79.8374176  57.5908852
  72.3368502  79.2812967  58.3489609  72.7257681  80.6929779  57.9656887
  94.0870667  57.8845263   9.2328954  93.2311630  57.4919081   9.4047105
  93.8895035  58.7821627   8.9655948  75.5549383  95.9733391   7.1409124
  75.7274008  96.1167049   8.0714691  75.9556103  96.7251396   6.7044634
   2.3964258   5.1311883  18.1561053   3.2592388   4.8429784  17.8582489
   2.5735375   5.9067735  18.6883903  65.9625816  79.6885777  39.1969657
  65.7932281  78.7993860  38.8856959  65.6078815  79.7027826  40.0859070
 109.8334030  19.0411874  87.0984811 110.7193712  18.7852212  86.8420232
 109.5240287  18.3186599  87.6448063  41.7713070  67.3468065   0.2493278
  42.5122309  66.8120146  -0.0357300  42.0490980  67.7127743   1.0890497
  52.8380871 104.9332237  35.9639192  53.0572510 104.0195084  35.7813716
  53.1034422 105.0659752  36.8739700  47.4907780  81.9780064  33.8607621
  47.8673649  82.2080994  34.7101593  47.7527905  82.6931477  33.2809687
  47.5921726  77.1271420  35.5657482  48.1049681  76.4546394  35.1174021
  46.7197084  77.0616293  35.1774812  35.7261467  98.7354279  27.0030260
  36.0211563  97.8257084  27.0431590  34.8862600  98.6948967  26.5456605
  47.1047926  77.0013142  18.1748223  47.1130276  77.6248980  17.4486649
  48.0264235  76.7833471  18.3138120  61.1357117  72.0691395  28.4347939
  61.9314766  71.5455055  28.5286164  60.6435680  71.9031143  29.2388225
   3.1278463  36.5198537  87.2259209   3.7856670  36.4462682  86.5344778
   2.2904725  36.5047093  86.7624495  66.5414476  93.6923599  24.4206262
  65.6683493  94.0576744  24.2775249  67.0730162  94.0583229  23.7137032
  63.9383125  78.3962488  17.4894285  64.0183020  78.7214470  18.3861339
  62.9969263  78.2819176  17.3591995  51.3099051  81.0849571  25.0391603
  50.4467249  80.8860779  25.4019308  51.8142557  81.4094925  25.7851744
  94.9616389   7.3723515  33.1645513  94.7701554   8.3101758  33.1568313
  95.7684426   7.2968110  33.6740518  34.7811747  76.0985088  19.4284153
  34.7925258  75.2800941  18.9321315  33.9437056  76.0860300  19.8917973
  68.3039236 100.1361942  22.2398806  68.1906652 101.0845947  22.3026347
  68.9910221 100.0199318  21.5836740  92.6274014  78.5429001   3.4761429
  93.2268333  78.6878824   4.2081890  91.8787289  79.1090059   3.6638919
  17.2809231  89.7715092  25.7669282  16.6818380  89.0540981  25.9734344
  17.8219330  89.4338322  25.0531268  84.1390610  65.1810837  48.8135481
  83.7999058  64.8011208  48.0030966  83.5383701  64.8731184  49.4921875
   9.0250058  30.9955331  77.5712398   8.7413974  30.1017304  77.3790971
   9.9805970  30.9442540  77.5924662  57.0636177  66.5530157  16.4457083
  56.8080854  67.4754143  16.4350843  58.0118561  66.5656614  16.3156533
  45.7544708  75.9169149  31.8639946  45.3352213  75.9882975  31.0064602
  46.5074301  75.3448486  31.7156005  85.0805859  10.1098260  24.3023419
  85.5234437  10.8397397  24.7351599  85.5283313   9.3298158  24.6299553
  48.2841296  11.0082026  90.3898663  47.9916663  10.1995393  89.9694379
  49.0214153  11.3029786  89.8553128  59.8954153  75.5249596  16.8747211
  59.6294260  76.2948132  16.3719225  60.3153324  75.8830404  17.6568210
  60.6011534  61.8603611   6.8073875  61.0413456  61.9595289   7.6515609
  60.9762049  62.5496531   6.2592614  57.7956413 102.6679051  80.0729099
  57.7146744 102.7279389  81.0247884  57.8978633 103.5745871  79.7835735
  35.1228189  95.1301289   7.3445773  35.1582718  95.5069256   6.4653713
  36.0382915  95.0749969   7.6186222  31.5145202  32.5680371  75.1446942
  31.0227819  31.7942544  74.8695639  32.1568866  32.2335549  75.7705692
   1.7457482   0.3271779  25.1702261   2.6754233   0.5409917  25.2490902
   1.7222878  -0.4247943  24.5784283  34.7615147  71.5187836  15.6113255
  34.5015097  71.6196537  14.6956539  35.5215192  70.9376192  15.5818760
  76.8627977 103.1013584  17.7788198  76.7505789 102.8671455  16.8575263
  77.5563002 103.7611103  17.7754700  18.5909152  61.8374157   8.2971513
  17.8458524  62.3020172   7.9160231  19.1709447  61.6655970   7.5553441
 103.8267707  95.4395830  68.4561566 104.0641402  95.9113657  67.6578382
 104.2395257  95.9386551  69.1609958  66.0647821  75.7092381  32.1337175
  65.7095337  76.5424299  31.8241620  67.0134211  75.8088064  32.0536613
  18.4091802  26.4473983  56.9354705  18.8144393  27.2584363  56.6285232
  17.4897237  26.5281840  56.6818908  96.4983467  21.1897918  72.8985659
  96.9286159  21.8622848  73.4266344  95.8150390  21.6606780  72.4215034
  83.2265949  73.2968712  13.5829663  83.0109119  73.9190722  12.8882813
  83.4546471  72.4906635  13.1200981 110.6021026  40.2500649  89.9595140
 110.4912094  39.3414327  89.6796737 110.2716426  40.2660867  90.8577188
  15.6441224  58.3208227  23.5916591  16.1023343  58.4290171  22.7582502
  14.7382808  58.5638237  23.4002566  44.7972536 102.2413158  25.3268719
  43.8564253 102.4170685  25.3134012  44.8858833 101.3800240  24.9187541
  63.9774704  85.2397823  33.2690716  63.8140106  84.7379494  34.0676165
  63.8782072  84.6029091  32.5614190  91.3965034  64.1283560  25.6216145
  91.3226032  64.9087000  25.0722194  92.0401573  63.5798311  25.1732254
  77.4216127  54.5684862  17.9690540  76.8947887  53.7758446  18.0710721
  76.8864489  55.1429415  17.4214864  51.2338257  83.1002235  13.9040351
  51.9240189  82.4515915  14.0423846  50.4876041  82.5918674  13.5863006
  55.7485914  48.1069946   0.4176987  55.6983519  48.7707329  -0.2701695
  54.8818970  48.1169224   0.8238686  51.7472553  70.2288389  12.0055175
  52.0647097  69.3267632  12.0468962  51.8939543  70.5749941  12.8857946
  57.8808022  67.5190783   6.4743382  57.7135611  68.2412863   5.8687985
  58.5565090  67.8528833   7.0644450 105.6298447  89.0384102  13.4762621
 106.3888168  89.6216297  13.4836328 104.8890686  89.6118069  13.2795322
  77.9079299   4.1775235  25.2576399  77.1821647   4.1365346  24.6348882
  78.4770112   4.8677644  24.9171376  80.3584290  90.1888943   7.4757981
  80.9463596  89.4860172   7.7524459  80.8877850  90.9836864   7.5414139
  60.7541990  60.3113174  19.4887424  60.8789158  60.3089666  18.5397053
  61.2509012  59.5535517  19.7974658  50.0207706  52.8276464  90.0484350
  49.9472232  53.2048627  90.9250939  49.3003268  53.2219716  89.5568027
  33.2169294  93.4149551  26.1493134  33.2917690  93.4147644  25.1950455
  33.0751085  94.3334866  26.3782573  67.4365759  93.6994648  30.0513434
  67.1902895  93.1902790  29.2791343  67.7577353  93.0483437  30.6751442
  94.0363423  47.5097295  87.5304083  93.8116161  46.6306420  87.2255633
  94.9307970  47.4271890  87.8611187  82.3342896  77.3211193  28.0982900
  82.7379322  76.8072701  28.7977624  81.6459084  77.8220844  28.5357881
  67.8046989  75.7553291  21.8160272  68.3813906  76.3862085  21.3851595
  68.2554293  75.5370283  22.6317596  41.7994022  81.0058212  25.7203436
  41.4246130  80.1994705  26.0746980  41.0558367  81.6043472  25.6488872
  34.6464229  86.8459511   6.5710109  35.2070928  86.0979557   6.7768782
  34.3926048  86.7109203   5.6580085  33.8435054  71.4257193  18.9151561
  34.5276260  71.8874454  18.4303689  33.4862924  70.7984447  18.2865393
  57.3011351  61.7081738  20.8732009  57.5349522  62.2744370  21.6086674
  58.0225945  61.0818672  20.8143306  67.7039433  71.7234325  19.8733985
  67.1620083  71.6926861  19.0849876  68.5945225  71.8521404  19.5470047
  64.1865826  78.1011820  70.9470987  64.5678997  77.8600693  70.1028872
  64.5820856  78.9475584  71.1555767  63.6977196  76.6539478  40.8842182
  63.3595371  76.1381769  41.6162348  63.8262272  76.0168409  40.1815033
  14.0250870   3.1565007  30.3357720  14.1281029   3.7850102  31.0503268
  13.2220932   3.4285077  29.8914313  40.4853439  80.3304768  12.2393239
  40.2617836  80.1858711  13.1587481  40.4485464  79.4594908  11.8440318
  80.9970856  56.0959435  20.5957484  81.8107414  55.7047939  20.9138513
  80.5908489  56.4720631  21.3766074  61.5733147  57.9537630   9.3454397
  60.6904221  58.0283928   9.7076058  61.9919634  58.7870502   9.5612925
  67.1365738  81.9707394  11.6425133  66.8269634  82.7529430  11.1858618
  66.6689634  81.9801235  12.4776673  17.3455854  30.9126683  68.7311963
  17.6151080  31.2066670  69.6013406  17.3639865  31.7049237  68.1943396
  74.9035740  85.7090950  30.3209686  74.3211412  84.9636745  30.1748419
  75.7716751  85.3855610  30.0802279  24.6871848   2.1785613  79.4296566
  24.2754455   2.8050538  78.8344983  25.5417819   2.5618478  79.6271113
  58.6690807  87.8582096   0.7469865  57.9334831  88.2679558   0.2917547
  58.5112572  86.9181728   0.6595111  64.6708102  10.1655932  91.0447033
  65.2725883  10.9057828  91.1235628  65.0015159   9.6665736  90.2978128
  12.4070354  45.9203836  70.5434231  11.8530317  45.3121587  71.0326794
  12.4971051  45.5197545  69.6787766  57.0692778  72.9015732  34.5190597
  56.9524622  72.0053864  34.2037272  57.7766037  72.8393269  35.1609683
  42.3319960  57.0622492  27.8347945  42.3940325  56.4656067  28.5807157
  41.4312410  56.9661951  27.5255251  54.3183374  98.6214447  44.6404219
  53.8391972  98.0662727  44.0252447  55.1478100  98.8065243  44.2000198
  92.2244172  34.4353303  20.5092192  93.1549268  34.2469510  20.6312490
  91.7799477  33.6316403  20.7789779  68.9934158  67.2162580  14.5040977
  68.8224077  67.3537397  15.4358089  69.6023846  67.9155350  14.2666185
  46.1634636  88.4179020  28.8113880  46.2226820  89.0009689  28.0545807
  45.8164072  87.5994301  28.4565902  45.0007963 103.8691330  33.6179352
  45.3877401 103.1142902  33.1743979  45.7425070 104.4462299  33.7997556
  57.6392555  70.3156948  28.0530953  56.7338800  70.1478910  27.7916312
  57.5674677  70.9268665  28.7862706  59.5570660  61.7638826   2.0578958
  58.9915943  62.3062706   1.5080874  59.4217920  60.8729601   1.7351055
  57.5519705  47.3875713  24.2612624  57.2785473  47.3735809  25.1784754
  58.4677982  47.6645994  24.2885423  66.2516928  70.8096743  22.5804734
  65.6445360  71.4874458  22.8774881  66.9006491  70.7456970  23.2811832
  48.1888342  77.2088766   3.6237311  47.9106188  78.1184959   3.7306020
  47.3826551  76.7339897   3.4217626  19.6081205  30.2599164  73.3048156
  19.4405027  30.8877965  74.0075949  20.0016208  29.5067235  73.7453703
  34.0399308  38.3555718  80.2237931  34.7133966  38.6356469  79.6039287
  33.9469381  37.4157353  80.0679628  42.1025085  69.1374493   9.2748201
  41.5763569  69.0817213   8.4771395  41.4608622  69.1424990   9.9851024
  55.7655382  84.3595600  10.0318980  54.9328518  84.0515327  10.3896451
  56.4306211  83.9381790  10.5762637  62.8233433  81.8407249  45.5331421
  62.8626776  81.1491680  46.1937809  63.7369156  82.0887184  45.3913260
  60.6461935  14.5773515  51.4254856  60.7082324  15.2684888  52.0848083
  61.3052683  14.8102769  50.7715797  54.2594814  72.9902649  11.3231587
  53.9738512  72.9857588  12.2367370  53.5049200  72.6612616  10.8346725
  66.5107536  67.1712112  31.5436292  66.2458181  66.8018389  32.3860097
  66.6656971  68.0979061  31.7265463  55.9380341  73.1780386   5.6447786
  55.6640244  72.7972603   4.8104182  56.3257456  72.4469709   6.1258668
   0.6372830   6.9091710  20.5859232  -0.1512150   7.2598657  20.1717758
   0.3429075   6.1103925  21.0235643  42.2263575  75.9450817   0.8497909
  42.7793646  76.5800333   1.3050470  41.3390684  76.1410284   1.1507176
   5.9734722  14.6803960   5.1114488   6.3563915  14.6889218   5.9886789
   5.6620404  15.5755242   4.9773490  60.3909302  86.8710995  10.1298809
  59.5878839  86.5216351   9.7435814  60.1286125  87.1659470  11.0019386
  74.2406273  88.5353756  45.8560705  74.8348904  88.6498451  45.1144648
  74.7222137  88.8861275  46.6052580  29.2913147  10.3277787   7.1442801
  29.6700188  10.2794370   6.2665105  29.6837422  11.1101827   7.5316805
  46.7710543  68.9875126  16.1058867  46.0674858  69.5532894  16.4238751
  47.0393562  68.4839773  16.8744564  85.3857899  81.6860676  19.5818615
  84.9700260  82.0434761  18.7972379  86.3108921  81.9128799  19.4871771
  72.6621771  24.7190714  15.4039323  72.2628307  24.5148754  14.5583212
  72.0896387  24.3002152  16.0465789  25.1419663  47.6476288   4.5655149
  25.1588988  47.8963470   5.4896820  25.5999875  46.8076754   4.5351049
  71.2684774  88.7874794  11.8862700  71.6290283  88.0309486  12.3487496
  70.3511906  88.8194275  12.1579325  22.1952958   5.3924581  89.6142435
  22.3368783   4.4496556  89.6997216  21.9361062   5.6761857  90.4909148
  49.3976831  72.2422504  13.8515365  49.5180893  71.3063097  13.6910772
  50.1154661  72.6609898  13.3764839  95.4934983  22.6548203   3.3692122
  95.1951222  22.0026788   4.0031698  94.9444775  23.4207448   3.5370696
  16.7287004  95.2013874   4.9893063  16.0213602  95.0491047   4.3626389
  17.4869215  95.4179573   4.4466919  70.7417727  71.7145824  48.2717705
  70.9661150  72.1735096  49.0812683  71.5794182  71.3920498  47.9392672
  81.1413670  82.1751118  44.4394875  81.0478401  82.6524162  43.6150694
  80.4124260  82.4826145  44.9782991  63.7822580  86.9611931  12.4444532
  64.6663904  87.3108196  12.3335159  63.3970070  87.4991703  13.1361198
  21.0368962  30.9422132  87.7076501  20.2279992  31.4399167  87.5884980
  21.0882135  30.3799363  86.9347016  70.0151157  79.0438461   8.1458127
  69.3572760  79.4208670   8.7300503  70.5173874  78.4490728   8.7027699
  38.0894637  86.8197918   6.3181174  38.4584594  87.6844692   6.4981449
  38.4980869  86.5516281   5.4951072 100.6520753  42.4287137  25.9853673
 100.2266888  41.6215810  25.6958675  99.9301629  43.0383691  26.1383271
  33.3549304  88.5689851  90.5806051  34.0353675  89.1860982  90.3115050
  33.1006522  88.1250688  89.7715873  60.2628708 103.0985165   5.6001437
  60.3003836 102.8679562   6.5284032  60.9099054 103.7968349   5.5004644
  93.0653191  80.4834652  28.7940598  92.7609539  80.8541965  29.6223998
  94.0186119  80.4612064  28.8775325  86.1970997  87.7265549  20.6342602
  85.8450890  87.2357941  21.3768697  85.7434177  88.5687637  20.6670690
  33.5620284  88.0554104  38.2694674  33.2169199  88.4965897  39.0456700
  32.7900267  87.6857758  37.8409624  69.2402124  81.3852978   3.5196137
  68.7798738  82.0193195   2.9697630  68.7931824  81.4320469   4.3647248
  30.9683032  69.2014428  72.2617284  30.2332063  68.6625501  71.9693867
  31.7393108  68.7827703  71.8789843  46.4972258  71.9395113  32.6517797
  46.4178705  71.7067719  33.5768580  46.3324308  71.1208963  32.1838617
  63.8254166  96.9824409  30.5718756  64.1689062  97.8724480  30.4935431
  63.9982605  96.7381668  31.4810991  49.3556781  27.3206779  83.6057970
  49.5971675  26.9058057  84.4339255  48.5256858  27.7600118  83.7910799
 100.9047794  94.4305325  23.3056474 101.1028290  93.5057735  23.1579518
 100.5786896  94.7433758  22.4618316 104.5561150  40.0829240  89.2409397
 104.5665196  39.7252198  88.3531511 105.4708866  40.2977773  89.4233271
  85.4527473  96.4359951  27.3909163  85.0693321  97.0218945  26.7382765
  85.1844501  96.8059635  28.2319665  25.3377004  32.1935483  67.1717147
  25.4595895  32.9038831  67.8016380  25.1164861  31.4326211  67.7086309
  11.1964981  96.5220737  27.1812630  11.2258426  97.4782372  27.1477008
  11.2027828  96.3149071  28.1157565  76.6352177  91.4571667  23.6208844
  77.3370552  90.8261299  23.4613323  76.0008049  90.9797096  24.1554737
  57.9441735  16.4368352  35.3874660  57.2122284  16.9517239  35.0477958
  58.1752964  15.8468350  34.6700287  74.1582489  33.8365107  89.9700537
  73.7929392  34.7159700  90.0667412  73.5314989  33.3769159  89.4113249
  36.2459779  78.0897903  29.1320181  36.6566396  78.9085722  28.8541937
  35.3062439  78.2669640  29.0903091 100.5432224  81.1376667  13.0735946
 100.7402229  82.0437908  13.3110023  99.8225403  80.8896160  13.6526716
  55.0948000  68.0914927  55.5663157  55.3698349  67.7523613  56.4181232
  55.9132433  68.3009768  55.1163101  53.8354107  17.8177651  32.1085215
  53.9613720  17.8757199  31.1614180  54.7224613  17.8106793  32.4681330
  68.8032150  85.0792599  23.4066582  69.0173483  85.7482433  22.7564049
  68.6330795  84.2905045  22.8917217  57.7620840  94.3572903   1.8900342
  58.1046677  95.1368046   1.4527431  56.8316889  94.3460560   1.6653779
  18.2309957  28.1727334  88.7956706  19.1074033  28.3563634  88.4574122
  17.7186580  27.9420014  88.0207471  20.3941913  39.8161813  83.2556490
  21.2208791  39.9121209  83.7285248  20.5934615  39.2049523  82.5464723
  68.3756924  61.4862967  33.4691262  67.8697824  62.2885275  33.5983777
  69.0795183  61.7405319  32.8722811  27.3167033  32.5113221  86.6090632
  26.4621492  32.0944997  86.7196307  27.1422286  33.4466954  86.7132640
  68.1813860  91.2664986  26.1857867  67.6342487  90.4859543  26.0984015
  67.6019859  91.9230843  26.5723324  51.0565567  92.9788685  72.6649141
  51.3226986  92.5634289  73.4851694  50.1275063  93.1748390  72.7861071
 102.7045345  87.1298885  31.4545107 102.6128769  87.0663738  30.5038285
 103.3685780  86.4767838  31.6752768  41.2444639  93.5600853  61.8057585
  42.1394444  93.2470798  61.9371891  41.3226748  94.5140743  61.8007755
  24.5581289  56.4331361  80.0562016  25.3869815  56.4398500  80.5349401
  24.7570558  55.9755631  79.2393271  98.3791065  84.9252796  11.1227775
  97.4426460  85.0373459  10.9593689  98.5120201  85.2749157  12.0038676
   1.4106890  12.9180917  35.1029778   1.1198088  13.7487325  34.7266126
   0.8582445  12.2585305  34.6834278  32.7153277  77.5829220  36.5669918
  33.4425139  77.0149755  36.3123035  33.0733800  78.1323624  37.2642350
  50.3026099  32.5399419  86.5537778  49.3914981  32.2518559  86.6094748
  50.3033633  33.1991788  85.8597726  48.8039684  91.9939518   5.5900007
  47.9272413  91.8506527   5.2335531  49.3887234  91.5578938   4.9702084
 110.3400162  35.0648042  73.5582927 110.2214364  35.4423734  74.4298485
 110.0171570  35.7382413  72.9595712  83.6834717 103.3800220   1.8615460
  83.1608772 103.7142086   1.1325429  83.2448101 103.7144852   2.6438141
  55.3285742  85.1723480   7.2194499  55.8018732  85.2977467   8.0419427
  55.3425598  86.0333157   6.8013996  46.2239070  69.0610047  88.1580785
  45.9714408  69.9723359  88.0098561  45.8141799  68.8315888  88.9921806
  38.0105114  83.5553265   0.9195963  38.6081624  83.3609200   0.1976183
  37.7567792  84.4678688   0.7813857  23.6590286   4.3596085  41.5328550
  23.1727406   3.8939008  40.8525038  24.1993138   3.6855229  41.9450712
  95.0665717  25.0086125  30.4106045  94.9216990  24.3632516  29.7186852
  95.9743600  24.8703298  30.6808472 110.9786797  90.7305622   9.9402010
 110.7553387  89.8953724   9.5293385 110.5723572  91.3902378   9.3780917
  29.9698110  28.1217214  60.9590200  29.6111579  28.9846440  60.7517365
  29.3406434  27.5047561  60.5852107  34.9595904  68.4205341  19.0798807
  35.4918313  68.8542557  18.4129190  34.0742683  68.7538862  18.9339030
  86.9503403  86.7371178  51.8730116  87.1831036  87.6426506  51.6679335
  86.8480206  86.7257595  52.8246593  67.8864527  71.9638109  41.1303616
  68.7977409  72.1783876  41.3297129  67.9357958  71.1466312  40.6343555
  91.4636664   1.3962373  11.7043579  91.5996175   0.5296811  11.3211834
  90.9091954   1.2361440  12.4680102  66.9346428  73.4479046  34.2534184
  66.0395908  73.7848186  34.2133832  67.2452450  73.4850883  33.3487773
  90.1005554  85.7420635  45.9729147  89.9178123  86.4855957  46.5473795
  91.0238075  85.5417156  46.1268377  74.3177080  91.0689735  21.9084644
  75.1771784  91.3545609  22.2182775  74.0539503  91.7413807  21.2803411
  50.9584999  95.6189060  21.4694905  50.0784826  95.2423477  21.4670587
  51.3340902  95.3554058  20.6294107  19.2370316   2.5777635  47.2931433
  19.6338745   3.1466779  46.6335297  19.2714306   1.7027196  46.9066858
  31.6250420 102.0971870  34.3931675  31.4050055 102.3337650  35.2941942
  31.1471796 102.7291870  33.8560891  19.0518327  74.1103192  89.2485513
  18.8158984  74.0588113  90.1747884  19.8894878  74.5734521  89.2401538
  62.0138931  97.0366287   8.7453252  61.1230707  97.3711872   8.8489807
  61.9195938  96.2792206   8.1676865  68.0719852  88.2517719  52.1420383
  68.4491825  89.1238499  52.0261383  67.2755480  88.2628155  51.6111898
  97.2981219  18.5143956   3.3872241  97.2754483  19.4416531   3.6237076
  96.3991980  18.2121190   3.5168108 105.1091580  13.0985841   4.2380112
 105.5266480  12.3707112   4.6985814 104.2087178  12.8068646   4.0954173
  19.7723336  33.9093991  89.0447945  19.2793937  33.3498117  88.4447015
  19.4294925  34.7892304  88.8880162  49.6669006  96.9627190   2.4404351
  50.5058718  97.1620083   2.0249388  49.8992395  96.6747284   3.3232197
  87.8390694  65.7781601  10.2660799  87.7350616  65.1530218   9.5487130
  87.4402332  65.3451443  11.0208380  64.8322444  36.1775216  54.3027687
  65.2781992  36.8204221  53.7513781  64.2561750  35.7050809  53.7017870
  45.8005524  89.5473099  86.8569946  45.3026438  89.5884895  86.0405254
  46.3879538  88.8003540  86.7418957  53.8312817  98.7989616  29.3271255
  53.1001377  98.2800961  28.9918160  54.5206928  98.6929798  28.6715984
  34.2532516  96.4167690  11.9885635  34.0107799  97.3424530  11.9652247
  35.0720310  96.3711262  11.4948535  54.3492270  94.3534184  10.1885450
  55.1795292  94.6910191   9.8526013  54.0602922  93.7257671   9.5261198
  31.7225548  10.1437386  17.0262814  32.4851509  10.5560407  17.4321032
  31.9984528   9.2426785  16.8583488  43.1006808  59.9574777  88.5395182
  44.0514369  60.0483056  88.4759820  42.7799316  60.8547135  88.6307446
  62.1121264  58.6723185  14.7931373  62.2089052  59.0214348  13.9071465
  61.7803097  57.7835941  14.6654594  75.0564146  84.0699959   9.5199156
  74.8639822  83.1956387   9.8586088  75.1309109  83.9491177   8.5733050
  96.3586955  13.8153752  45.6176567  97.2850280  14.0316781  45.5111361
  96.2830930  12.9186353  45.2915192  34.4514890  48.5885736  78.0613271
  34.4207854  49.4989320  77.7671674  34.9530883  48.1348058  77.3840347
  53.3842039  80.5871582   5.4172653  53.9121008  81.2897301   5.7966703
  53.9603615  79.8228359   5.4266798  68.8665819  83.1937790   7.1277189
  69.7268581  83.5388279   7.3666668  68.2458305  83.8251305   7.4914336
  33.2759309  80.5755711  22.7120256  33.4047937  80.4723930  21.7691660
  34.1477084  80.4528332  23.0877566 106.2072185  33.9193936  88.7751619
 106.7235378  33.8251039  89.5756335 105.5709676  33.2053777  88.8150359
  62.7945662  85.7681751  41.8671036  62.4865627  85.7962418  42.7729607
  62.1512318  85.2247238  41.4121103  84.9209404  98.0169487  51.4823818
  84.7725582  98.1973362  50.5541182  85.4874229  98.7299061  51.7773581
  12.7847477  25.4043397  46.2922859  11.9475647  25.8527383  46.4118576
  12.9244038  24.9345502  47.1144962   0.2132121  86.4900970  64.2327166
   0.9324066  86.1841583  64.7853470  -0.4602154  85.8155918  64.3208504
  39.4048285  79.8774624  14.9082386  39.7999978  79.3996954  15.6374919
  38.6008072  80.2479553  15.2722716  54.2998934 102.7092075  54.4111776
  54.1610575 102.3887730  55.3024006  55.2439642 102.8565025  54.3539619
  71.7885208 101.9039345  25.3174734  71.7107916 101.3238144  26.0748744
  71.1271048 102.5800133  25.4647279  95.8063698  78.4489870   1.1932060
  95.7321453  79.2467785   1.7168954  94.9278545  78.3128023   0.8383808
  10.2135459  95.1995945   6.1726660   9.4398872  95.7631016   6.1605090
   9.8674098  94.3149757   6.0548431  34.9504372  19.9756249  54.5078802
  34.9929425  20.0257501  53.5529423  35.3458496  20.7938584  54.8085070
  53.2152605 105.0409126  31.1172986  52.8358889 104.3543911  30.5686593
  52.5875759 105.1509190  31.8315434  75.3786807   6.4075383  59.4643879
  75.6453543   5.7809075  60.1370335  75.7323890   7.2451409  59.7636223
  50.0510359  93.4605122  54.5195484  50.8821154  93.5183430  54.9909306
  50.2798605  93.6404419  53.6076832  41.4476724  20.1082440  75.7662550
  41.1693711  19.9388143  76.6662971  40.8943219  20.8337613  75.4770080
  95.2124600  28.2070359   5.2184898  95.2710013  28.0690106   6.1638755
  94.3092303  28.4885510   5.0730163 108.7896304   5.2547654  37.9840994
 108.8370089   6.1811360  38.2203507 108.4745555   5.2539071  37.0802426
  48.0796046  40.2364751  86.1598301  48.1822295  39.7713300  86.9900933
  47.2195430  40.6518956  86.2227378  65.5808783 102.4991798  24.7194099
  65.2717209 102.7418423  25.5922055  65.1273441 101.6792011  24.5240593
  51.0522509 101.8001556  38.1758857  50.4489756 102.3544788  38.6708832
  51.4178371 101.2022400  38.8278604  80.2763176  96.4834595  10.9169900
  80.3867054  97.3466492  10.5182898  81.0345078  95.9822273  10.6167603
  31.4402814  38.6046525  81.3875768  30.9567924  39.3568917  81.0461030
  32.2641130  38.6081525  80.9002117  66.1459732  72.2556877  28.4031510
  66.2749434  71.3298082  28.1973839  65.2473259  72.3057175  28.7289715
  32.1279807  42.8169175  87.9450435  32.0108695  43.4038182  88.6920757
  31.9658418  43.3682557  87.1795634  91.9346099   7.8204545  26.1043024
  92.7476697   7.4203404  26.4126444  92.1679549   8.7319383  25.9282470
  43.0750080  27.6820001  63.2337141  43.2287976  27.2023782  62.4197435
  43.9448735  27.7830132  63.6201954  99.2375183  97.8262806  35.2302933
  98.3833313  97.6020813  34.8610663  99.8485851  97.7218437  34.5009589
  53.8214159  92.3412514  36.1423564  54.1683626  93.1258869  36.5668750
  54.5626974  91.7363071  36.1145949  83.2694297  14.3148335   6.8024260
  83.4448771  14.0144929   5.9106600  84.1341929  14.5075997   7.1647221
  81.0712528  72.6466608  50.5257034  81.7664719  72.0450640  50.7921362
  81.5276051  73.3517599  50.0665569  36.0847878  82.3310852  60.5247164
  36.8771315  82.5966835  60.9914970  36.0831594  82.8668308  59.7314882
  43.5278416  88.3737278  24.8049378  43.2983494  88.1898308  25.7158422
  43.0384493  87.7250767  24.2990017 104.4516352   7.6378270  79.5123223
 103.9834431   7.0318433  80.0866119 105.3750161   7.4154445  79.6312419
  10.0626084   3.0918797   2.6152247   9.2059132   3.1002816   3.0421016
  10.2900406   4.0164002   2.5163761  10.9932132   5.7292434  62.3896698
  10.7222743   5.3375169  61.5593842  11.9358916   5.5691024  62.4337319
  56.1714645  10.3274985  79.6411649  55.4424758  10.6908341  80.1439515
  55.9433932  10.5023690  78.7281290  89.2537498  99.7504807  57.2569656
  89.1160488  99.3202591  56.4130592  90.1895428  99.9510765  57.2736788
  55.6513643  87.2747326  52.9508924  54.7694445  86.9580936  53.1463003
  56.0651445  86.5535831  52.4765873  23.7939954  75.1205111  13.3293319
  24.6988797  75.2983570  13.0728436  23.6478758  75.6775522  14.0939140
  56.9303751  79.6037054   8.6178017  56.6710520  80.4067993   9.0694863
  56.1367273  79.3155718   8.1668752  64.3646002  98.3955956  26.3693881
  63.6215544  98.0149078  25.9012103  63.9789391  98.7861633  27.1535778
  19.5616814  20.1664075  16.1128736  20.4384705  20.2327260  16.4911163
  19.5824333  20.7519921  15.3559756 102.2576575  23.9346703  22.7538824
 103.2007270  24.0888127  22.8094530 102.1213012  23.1120881  23.2239747
  52.8092051  78.4366608   9.0261334  53.6555624  78.1353378   8.6958027
  52.6408291  77.8861904   9.7908956 107.2139602  10.6859883  22.2974467
 107.0638947  11.1118421  23.1414652 106.3697200  10.2945718  22.0732045
  80.4923491  14.8340806  47.7898455  81.1464124  15.1128014  48.4307480
  80.9955888  14.3716439  47.1196651  76.6951518   5.6062898  10.3105593
  76.0566597   6.1849603  10.7273281  76.3424187   5.4520902   9.4341838
  37.0131111  95.3316879  22.6710510  36.5192699  95.4947281  23.4746480
  37.4522257  94.4952583  22.8253150  29.5084047 100.4295254  74.2281437
  29.4680285 101.0218048  74.9790144  30.4047918 100.5151272  73.9034986
  79.3809514   4.9151715  18.5281765  80.2207141   5.2457627  18.8471293
  79.4001632   5.0820359  17.5858295   9.9219605   8.0604180  39.1791487
  10.2960297   7.2877797  39.6026301   9.4316670   8.5003957  39.8735976
  94.2260412  34.4076844  87.2443423  94.6011523  33.7955113  87.8773985
  94.7129754  35.2205773  87.3797468  23.3005138  47.9483243  65.0073746
  23.1232877  47.0095273  65.0662807  23.4335036  48.2243272  65.9142188
  74.2469645  81.3500023  27.5447631  73.7525272  81.2687206  28.3603358
  74.8544264  82.0724201  27.7039242  51.3028526  88.8013744   1.8346386
  51.6966200  88.4061813   2.6124555  50.5021858  88.2973862   1.6891563
   3.9234443  72.3768254  85.5348591   4.8363919  72.6615067  85.5762676
   3.5462852  72.6598569  86.3678518  96.2622643  71.6867876  15.2775884
  96.5750599  70.7855320  15.3558886  96.9176769  72.2088432  15.7403314
  62.5492430  65.2581501  33.2752991  62.4452734  65.9203815  32.5920200
  62.8966379  64.4932079  32.8165889  11.7774388  38.8732823  31.5645862
  10.8478829  38.8946065  31.7919874  11.8939682  38.0384263  31.1110687
  18.2438656   8.5307225  25.4977751  17.4995419   9.1323384  25.5145669
  18.5653492   8.5222348  26.3993311  19.5133492  14.1524800  25.9858155
  19.0655323  14.8614510  25.5242419  20.2233406  13.8947591  25.3978324
   0.4953376  86.4798164  27.0542622   1.3918964  86.7964745  26.9440889
   0.4440490  85.7058620  26.4933705  76.4207916   8.4960183  13.6116147
  75.5943374   8.9044007  13.8693404  76.1608224   7.6896390  13.1661820
  61.3548994  82.5781441  34.2936110  60.7932520  82.0337105  34.8453140
  61.9288015  83.0323410  34.9105167  29.1350599  47.4380704  83.0864755
  28.8174958  47.6250192  83.9698986  29.9405427  47.9492589  83.0083260
  62.9912233 104.1808224  25.2835846  62.5134706 103.3571339  25.1860571
  63.4811592 104.0783787  26.0994887  78.6891270 100.8759499   8.5606194
  77.9745817 100.2390480   8.5579562  79.4302273 100.4060650   8.1782377
  63.2022953  81.0887432  32.5163960  62.8395224  80.2505493  32.2299457
  62.4918461  81.5021038  33.0069375  17.4627682   3.2070645  27.3180747
  17.8396794   3.1261357  26.4419341  17.3944851   4.1507348  27.4632025
  81.8298154  44.1841420  17.1735394  81.5444188  45.0707253  16.9527292
  81.0446887  43.7586411  17.5181484  44.0394115  97.0237064  23.6061144
  43.2206821  96.5316105  23.6674452  44.2499161  97.2521973  24.5114946
  10.6995579  17.1418866  27.2058439  10.2288433  17.4973115  27.9597211
  10.5474087  16.1979684  27.2517514  50.0540148  74.4740045  75.4401699
  50.2108728  75.2033364  76.0399202  49.1541075  74.6004617  75.1394907
  31.9557357  72.8727055  10.0143445  31.1648488  73.3277559  10.3035808
  32.2473526  72.3858023  10.7851338  52.7553200  17.9005825  73.2708791
  52.2006594  18.6083638  72.9428116  53.2351076  17.5956952  72.5007633
  50.3789282   4.4565564  47.2623348  50.7224846   4.2045107  46.4052057
  50.8519459   5.2587849  47.4835014  74.7715186  53.7798066  88.0749563
  74.1121506  54.4511234  88.2504532  74.4190859  53.2856252  87.3348162
  24.5799518  49.2248821  13.0169165  23.9597416  49.0247488  13.7179995
  25.3888059  49.4587421  13.4722161  78.0756854  95.9613812  88.6374793
  78.5034512  95.2053606  89.0395821  78.3117770  96.6980517  89.2012255
   3.3837743 102.3322106  25.4696369   4.1440482 102.6753720  25.0001097
   2.6856942 102.3149428  24.8149467  72.4306916  90.2414023  86.1802003
  72.6126861  90.1452934  85.2453891  71.9016766  89.4749105  86.4012594
  44.5025444  40.7837725  11.9384956  43.8258028  41.4578056  11.8758011
  44.0364504  39.9615765  11.7868996  89.7566508  91.9744098  70.4041485
  88.8616752  91.8883597  70.0757459  90.0309419  92.8482020  70.1257924
  82.2133349  56.7214220  83.8772628  82.5494718  57.4579507  83.3666078
  81.7617082  56.1720618  83.2365820  60.2823305  28.4612441  13.4354937
  60.0564957  29.3526268  13.7013245  59.4646883  28.0985165  13.0947256
  56.5003585  74.3703568  81.5660355  55.8932744  73.6747419  81.8186245
  56.4363395  75.0125110  82.2729806  31.0435772  27.7251959  12.2441471
  30.9791493  26.9039369  12.7316034  30.8186507  27.4880099  11.3444901
  25.3225398  58.0983925  14.7389841  25.1541185  58.7066174  14.0193129
  25.0502992  58.5743904  15.5235481   2.0558448  38.6086679  21.9307685
   2.0492549  38.6480117  22.8871369   2.0528021  39.5247769  21.6533399
  81.5603161  39.6214604  16.1146855  81.7918587  39.9466109  16.9846809
  82.1660805  38.8964534  15.9609044  62.4293875  97.8181898  84.9415979
  62.8077983  98.6720669  85.1512048  63.1760882  97.2193062  84.9394700
   4.2377801 104.8387523   7.9091990   4.8537154 104.1408577   7.6860410
   4.2524810 105.4227018   7.1508992  13.8713546  40.3147527  84.3571982
  13.3736987  39.5603009  84.6724412  14.1872306  40.0493642  83.4934709
  67.1319817  96.4883148  87.9610533  66.7463373  96.0085213  88.6940688
  66.5890454  96.2530481  87.2086558  57.4953175   0.6556706   3.2875326
  56.9442940   1.3227782   2.8781748  58.3219337   0.6998684   2.8069276
  74.1877316  96.9149029  63.3451728  74.3069719  96.6532194  64.2581562
  74.0053963  96.0965597  62.8833226  17.4382889   1.5883207  21.0492778
  18.1825125   2.1006456  21.3653278  17.2903526   0.9343257  21.7323875
  46.4537668  62.0052528   7.0170063  46.6070080  62.9164696   7.2668630
  45.8526611  62.0584774   6.2739933  26.1056514   7.9688140  59.6419648
  25.6015344   8.6510964  59.1985754  25.8156724   8.0107280  60.5532221
  31.8094730  81.8502331  13.7971210  32.2725844  82.3488140  13.1239367
  31.7393136  82.4539852  14.5365739   3.6490145  83.1043994  86.9623694
   3.5437432  83.3370959  86.0398719   4.2866078  82.3904740  86.9580460
  63.3917856  61.0212088  16.9997180  63.4093142  60.7624006  17.9210985
  62.4800062  60.9007740  16.7344117  22.6721025  39.3179512  64.0942955
  23.0058885  39.9130535  64.7656155  23.4167910  38.7556624  63.8809729
  63.0615091  16.6630113   3.5179064  62.3464918  16.2061489   3.0748954
  63.4190035  16.0158277   4.1258392  69.8172951  41.7757511   9.6536100
  70.4724407  41.9544172  10.3282177  68.9781141  41.8620586  10.1058829
 107.8458260  46.0651105  79.1696612 108.1734942  46.9121110  79.4720772
 108.3468007  45.8846295  78.3742467  61.6613817   1.9432919  16.1579120
  62.5980759   1.9669545  15.9622800  61.3171434   2.7522922  15.7794285
  29.1307139  56.6525555  15.4247928  28.9191580  56.5871191  14.4935608
  28.9091969  55.7924700  15.7817447  33.6200833  23.8035893   2.7148148
  33.0594850  23.2871461   2.1358076  33.2355213  24.6800375   2.7013642
  79.7349358  65.5829859  34.4761419  80.3545666  64.9762440  34.0709901
  78.9207840  65.4543781  33.9894629  50.7779455  47.7917814  27.6135898
  51.4079618  48.5000086  27.4804592  49.9737835  48.2344294  27.8849196
  28.5785198  27.2827935   7.5533921  28.8787079  27.8466892   6.8405527
  27.6286006  27.3997831   7.5675279  63.4156322  69.9409437  27.6966429
  63.0209923  69.1505527  28.0651212  62.9165792  70.1073742  26.8969655
  70.2057314  41.6503286  22.8021169  70.2500439  41.2256145  23.6587882
  70.7152605  41.0807467  22.2257614  59.9893904  52.7203226  17.6780486
  59.6105909  53.5992718  17.6644266  59.3860626  52.2078133  18.2161641
  44.5027924  28.1791759  20.2306676  44.3510628  28.9374614  19.6665621
  45.1937580  27.6860547  19.7883666  35.9613609  45.7963228   5.5021900
  35.5829835  46.5104008   4.9892005  36.4463186  46.2345839   6.2014574
  27.8778338  66.5053034   0.4523068  27.6305866  66.7981482   1.3294305
  27.5480604  67.1893549  -0.1304083  59.4636488  10.2539575  22.3853898
  60.1136303   9.5724815  22.2140884  59.1980171  10.5554092  21.5165973
  39.8555946  33.0707169  46.3416386  39.9706411  33.8313437  46.9112349
  40.2495241  33.3328271  45.5095625  46.9301224  32.9571962  20.0808191
  47.0484209  32.3132062  20.7790399  47.4098349  32.5941229  19.3363166
  46.2683349  80.3992235  87.1772785  46.4425509  79.8002421  87.9032958
  45.3982984  80.7529342  87.3620949  37.5792074  39.9529171  33.6580515
  37.4422956  39.6557164  34.5575833  37.3278809  40.8764553  33.6700630
  31.8816328  33.1209326   2.2968468  32.1031570  34.0484667   2.3795611
  31.1952829  32.9795361   2.9488930  19.4649267  22.0787978  13.4650099
  18.8884342  22.2376370  12.7175760  19.3698347  22.8592730  14.0109468
  63.4492134  90.6383621  76.2619868  63.1702970  90.9879815  77.1082762
  62.6438879  90.3120648  75.8604709  46.7756176  36.0751247  23.8554215
  46.3915825  36.4354539  24.6547413  46.8906546  36.8330336  23.2822108
  26.1224837   1.7419549  85.3950027  26.7068525   1.1404391  84.9335638
  25.7440944   2.2855922  84.7039804  52.2296095  32.5420332  22.5782156
  52.2072935  33.1800890  23.2913923  51.5892506  32.8674722  21.9455528
  42.6612043  41.3553715   7.2099453  43.2091093  42.0700741   6.8855518
  42.4159431  40.8661604   6.4246088 103.4034061  26.7093897   3.0374515
 103.0251408  27.4631095   3.4902832 102.8727722  26.6141081   2.2465107
  54.9963522  69.7891855   1.0318914  54.5260191  69.9446583   0.2128394
  54.3456602  69.3906069   1.6097942  96.0708808  84.6766507  53.6949471
  95.7928561  84.0539920  54.3666843  96.2855958  84.1319978  52.9376606
  61.7903757  25.4616213  17.2473931  61.2639952  25.7601690  16.5057588
  61.7517614  26.1836720  17.8745961  72.7033137  93.6509764  68.2985214
  73.5962771  93.6422026  68.6431531  72.4067019  92.7444326  68.3787445
  33.6070593  96.8116963  80.6327418  34.4304817  97.0523655  81.0573420
  33.6917128  97.1452772  79.7395507 102.1048926  82.7802741  81.0653279
 102.8496694  83.2085120  81.4874080 101.8027877  83.4127867  80.4134921
  10.2245378  33.1921697  12.9403222  10.5593204  32.3638606  12.5967300
  10.4455650  33.8370252  12.2683549  33.5767031  52.7465248   6.4596313
  33.4066844  53.6866856   6.4011276  34.5174527  52.6830626   6.6245365
  44.6165133  39.3421793  20.5793500  44.1929150  40.1719284  20.7991433
  44.4970465  39.2554092  19.6336055  58.4310389  47.9933977   9.2252731
  58.5345554  48.4907246   8.4139889  57.6018000  47.5277853   9.1166300
  16.9081497  74.0398312  27.3929524  15.9720218  74.1172743  27.2088385
  16.9507790  73.5568237  28.2182527  27.3620629  63.1599283   5.1949376
  26.6280270  63.6863518   5.5116409  27.0972013  62.8827620   4.3178642
  47.8859568  25.6832099  14.6496558  47.6929998  26.6202331  14.6182048
  47.6677847  25.4236603  15.5447924  75.5782127  34.3671155   7.9134113
  75.6728315  33.4172726   7.8421402  76.1042166  34.6035552   8.6773825
  22.5833845  60.4375935   8.1547576  22.5210047  61.1937523   8.7383354
  21.7477918  60.4257059   7.6879871  52.4055624  35.7987595   7.0239270
  53.0524778  35.8504868   6.3203228  51.5641832  35.7373595   6.5716630
  44.2407560  16.4241219   9.7079009  43.7702084  16.2322795  10.5190802
  44.1726255  17.3738992   9.6103716  66.9557356 102.6501906  57.1258358
  67.1617388 101.7865145  57.4834064  66.7276882 102.4826634  56.2114171
  53.1335449  44.6758556  11.8197453  53.0886936  43.9109707  12.3934782
  52.8757524  44.3452501  10.9592378  89.0428320  13.8079330  88.5931269
  89.6417288  14.1316768  87.9202638  88.2326440  13.6166020  88.1206671
  42.9075098  32.6690960   6.9431025  43.0905771  31.9082499   6.3918954
  42.5639343  33.3262444   6.3378382 102.2992181  81.0138619  64.4071606
 102.0939397  80.1378142  64.0806130 101.9479035  81.0260164  65.2974752
  40.5351067  55.5070734   3.5706231  41.3593388  55.9932041   3.5471734
  39.8582411  56.1837578   3.5842302  25.3832050   7.2219916  65.7133058
  25.8622070   6.4315721  65.4642585  24.7163673   6.9144746  66.3273028
  50.1907383 102.8734457  72.2013084  49.9426447 103.7008488  72.6137201
  49.7820257 102.2017252  72.7471808  32.4212122  43.1684971  35.7164931
  32.5490332  43.2233000  36.6635346  32.8893065  43.9269304  35.3673482
  71.9205904  70.9205580  31.3486934  72.4091196  71.6390657  30.9470510
  72.4968052  70.5967188  32.0410395  20.8541627   1.0221931  54.4674829
  21.5846915   0.6316396  54.9470977  21.0673757   0.8761855  53.5458258
  61.4158297  67.3161411  11.1048055  61.0434961  66.6816902  11.7172360
  61.6226912  68.0782604  11.6457450  97.2739839  98.6038363  68.5325197
  97.7399062  99.2860853  68.0491117  97.1089934  97.9203045  67.8830651
  89.4779252  73.4323656  83.1251237  90.3003167  73.5760724  82.6568768
  88.8162135  73.3773458  82.4356750  93.3104229  45.0970316   5.9868473
  93.1972980  45.4009199   6.8874514  92.9029846  44.2309809   5.9733361
  98.4672073   9.8725482  78.0977086  98.3566717   9.9914619  79.0410391
  98.3528379  10.7491895  77.7307645  77.2738122 104.4481384  85.3395185
  77.6110410 104.2375671  84.4687906  77.5594758 105.3482544  85.4957751
  67.2107886  61.7973405  77.5827757  67.9085158  62.1228248  78.1515173
  67.3664330  62.2280472  76.7422417  18.7377632  53.6986876  18.6921144
  18.5167670  53.3600807  19.5597184  17.9052389  53.7090635  18.2198572
  25.2425575  74.1868496  22.6995826  24.3800378  74.5756054  22.5541091
  25.0793529  73.2439709  22.7234793  85.7873820  74.0516984  72.6170889
  84.8690461  74.2069351  72.3961893  85.7582950  73.4013664  73.3188406
  57.6871776  88.5828101  68.7072686  57.2148012  88.4291398  69.5254854
  57.0015358  88.7726700  68.0668954  50.8866596  26.1419320   1.9231759
  51.1599255  25.3743696   2.4255773  49.9551201  26.2384748   2.1210203
  39.7977901   6.6551763  29.0647769  40.7527304   6.6144091  29.1163874
  39.5884180   6.2874889  28.2061720  88.8624191  71.7821693  10.3082001
  89.6695614  71.7727089   9.7937500  88.5085964  70.8976603  10.2149868
   4.0629139  80.1964914  76.2780956   4.8720255  80.7065785  76.3152543
   3.3837262  80.8392727  76.0737256  92.9634570  60.6264281  86.9783655
  93.7321662  61.1646473  87.1671346  93.2621478  59.7269249  87.1121839
  80.4109477  79.3229353  49.3476180  79.5447682  79.3771088  49.7513894
  80.3683900  79.9282157  48.6073092  84.1578770  67.8409338  37.1643209
  83.7145519  67.2589016  36.5471196  83.5448456  68.5645866  37.2936893
  38.0658293  43.5932159   2.8969735  38.2246447  44.4658470   3.2568666
  37.7283931  43.7552404   2.0159984  96.6892861  64.0609145  83.6519465
  97.1357154  64.1661989  84.4920925  97.3972177  63.9979446  83.0107782
  85.3339337  64.2393601  80.0454668  84.9849509  64.3896544  79.1669146
  85.5430459  65.1141309  80.3730015  84.5411490  86.1624539  88.1410248
  85.3244780  86.5629136  88.5181942  84.6409415  85.2272331  88.3188960
   4.5618816  13.7197610  29.1605929   4.1825385  12.9026290  29.4840459
   5.4713960  13.4987565  28.9601592  77.8901481  91.8384444  89.2526824
  76.9633483  91.7979967  89.0168055  78.1786822  90.9257829  89.2474540
  67.8495525 103.2449400  71.9458858  68.6334466 102.6971066  71.9056383
  68.0785107 104.0278399  71.4450101  86.6332196 100.0276339  52.2964457
  87.3662614 100.3837072  51.7943577  86.7390727 100.4001629  53.1718019
  45.3524113  80.2840042  17.6394522  45.9314489  80.7689953  17.0514631
  44.4829750  80.3772449  17.2500718   6.9489151  34.9461794  13.8257051
   7.0586306  34.1653252  14.3683457   7.7951539  35.3910804  13.8723242
  87.5339977   7.4930211  71.5260509  87.1160880   7.1823808  72.3292235
  86.8641499   8.0265685  71.0984293  19.7231145  19.8092385  70.5167369
  20.6690736  19.6653958  70.5431799  19.4384618  19.3825217  69.7085789
  36.3608718  62.3042297  20.9614778  36.3176847  61.6258574  20.2875495
  36.3506222  61.8216610  21.7880702   7.3426910  31.8139955  84.7959909
   6.5482326  31.7986794  85.3296844   7.6107593  30.8968564  84.7391478
  42.2859287  51.0255337   7.6257324  41.6226244  51.7154551   7.6093447
  42.0507908  50.4498768   6.8980217  67.6332330  90.2182424  72.3715464
  67.4467849  91.1453497  72.5196592  66.8584179  89.8877656  71.9169251
  38.5065937  42.7185011  12.1571505  37.8435779  42.1315956  11.7935836
  38.9875484  43.0385733  11.3939548  40.6803417  24.6864057  14.5627785
  40.2264214  25.4672050  14.2456913  40.2885628  23.9650726  14.0704179
  71.0615444  23.0437326  17.0931768  70.9438610  22.0945406  17.0555043
  71.1766863  23.2340384  18.0241752  57.8475046  35.8215904  12.4056208
  57.7980042  36.1687636  11.5149748  58.4433365  36.4159775  12.8616059
  56.7696285  76.7194653   3.0396733  56.8085814  77.4455261   2.4171346
  55.8534861  76.4423895   3.0274639  45.4785872  79.0717649  26.2538028
  44.8115635  78.6097527  25.7460141  46.2455606  78.5001945  26.2178564
 105.1879405  74.5602023  87.2105247 105.9236144  75.0820005  86.8899873
 104.5507478  75.2063024  87.5151071  79.0253877 100.2321779  87.5767899
  79.3076562 100.7142174  88.3540910  79.6866559 100.4358923  86.9153825
  33.3531284  19.6511602  32.3775005  33.9542341  20.3203559  32.7047348
  33.7586308  19.3400896  31.5681601  42.5516748   0.6611484  25.6223941
  42.3427677   1.5894581  25.5183172  42.3470306   0.2727665  24.7717977
 106.0180043  99.7101605  65.8269886 106.5978002  99.0074646  65.5332378
 105.5886458 100.0161278  65.0280741  46.9196558  20.7406712   0.8415025
  46.0784531  20.2842808   0.8235488  46.6941643  21.6633010   0.7225936
  83.6341286  27.9543352  25.1571441  83.8474941  28.8366485  24.8534489
  83.6307144  27.4215961  24.3619013  16.8655248   4.4955750  75.8627526
  17.6795001   4.3721124  75.3744570  16.7104621   5.4397269  75.8350614
  38.8767886  52.3797035  22.2666240  38.8407016  52.9114294  23.0617309
  39.0590119  51.4935160  22.5791907  52.4438381  34.5371103  30.7370543
  51.6370821  34.0388799  30.8679795  53.1216621  34.0112758  31.1616516
  25.2107048  31.2849331  29.7653222  25.0178719  30.3649735  29.5844364
  25.6483006  31.2750387  30.6165814  88.5455703  62.3447144  73.9343778
  88.3551406  61.4120143  73.8341824  89.0764760  62.3967427  74.7291509
  75.9074520  85.1624310  78.5059563  75.4328488  85.9736549  78.3245734
  75.2758931  84.6145212  78.9719621  36.0276937  37.5555539   1.2807171
  36.6723037  36.9758749   1.6865280  35.5004740  37.8768468   2.0121829
  63.8150978  65.4124784  29.2661500  63.7977219  65.3493643  28.3111906
  63.2114744  66.1268473  29.4699907  27.2024107  22.1071649   9.3523490
  27.4813056  21.2336707   9.0776479  27.0097589  22.5653744   8.5343266
  53.0777359  29.7131276  39.1367030  52.2110987  30.0319004  38.8845921
  53.4300089  29.3200946  38.3381677  54.0281331  94.5843756  80.8556131
  53.7225043  95.4243767  80.5132464  54.6883701  94.2949974  80.2258662
  79.9877391  22.0707723  53.9904073  80.5517707  21.6802045  54.6579102
  80.4759440  21.9669028  53.1736473  58.3743620  77.9886675  10.5236673
  58.0248308  77.3611832   9.8909563  57.8630352  78.7847996  10.3789318
   4.8281738  83.2481575  10.9283721   4.8710614  83.2423306  11.8845940
   4.3150297  84.0278816  10.7163811  92.8168630  80.1472103  79.4413034
  93.3114337  79.6117746  80.0617365  92.1225881  80.5438435  79.9675158
  57.1503735  23.4902000   9.0979850  57.1098614  22.5834703   9.4020104
  56.3161039  23.6301255   8.6500514  70.3409671  80.3115141  73.9797345
  69.4839238  80.1192414  74.3601826  70.5484795  79.5389115  73.4541348
  43.8055277  20.1822782  20.0327563  43.6337709  19.7174919  20.8517218
  44.2538357  20.9840465  20.3018641  39.9708652  65.2896547   4.8485637
  39.2793512  64.8393869   4.3634900  39.5074463  65.7757950   5.5305791
  83.5286902  85.4646837  79.4195679  84.4633531  85.6546795  79.3386642
  83.1702851  86.2197840  79.8860410  39.7330661   0.9211513  69.6148876
  38.8723417   0.6057426  69.8903898  39.5475478   1.7120048  69.1085533
  43.4889746  81.1717606   4.7260210  43.7083769  80.5113792   4.0687579
  43.8324261  80.8169174   5.5459988  48.0622435  63.6124659  12.3813212
  48.5316706  63.0642796  13.0101001  48.2920456  64.5087337  12.6265395
  34.0555716  57.0797300  53.3273792  34.9763536  57.2238636  53.1091595
  34.0584159  56.2901115  53.8684225  79.0621232  79.2655527  59.3114475
  79.8618268  79.3200051  58.7882427  79.1615628  78.4592950  59.8177055
  73.0398344  98.6988794  76.3206474  73.8069796  98.6788427  75.7485310
  72.9474305  97.7974426  76.6290382  19.6682162  15.9189530  83.0254791
  20.5842538  15.7107945  82.8416834  19.6706004  16.2321969  83.9299706
  79.7027493  49.8342657  16.7906237  79.2871618  48.9804697  16.9112563
  80.4798794  49.8033476  17.3485982  31.5328312  49.8840714  38.7955260
  32.1467209  50.5997086  38.6305165  32.0510626  49.0895844  38.6672354
  50.8453655  39.1266966  29.8225141  50.2365017  38.9398551  29.1079473
  51.3282633  38.3094478  29.9455786  53.7742567  51.4886141  17.2278214
  53.9155483  51.1478376  16.3445675  53.1701040  50.8653212  17.6312208
  66.7958307  66.2198067  51.1071968  66.1351824  66.9123936  51.0973024
  67.4636412  66.5169668  50.4891729  81.4183997 101.6260349  62.0732263
  81.8609904 100.7814419  61.9895319  80.5906056 101.5099060  61.6068486
   8.6919685  27.9369851  77.8444222   8.7709518  26.9833394  77.8209368
   9.5398517  28.2552453  77.5345246  47.8284407  47.7316427   7.2505730
  48.6235714  47.2227335   7.0924228  47.5668383  47.4967384   8.1408620
  17.1198168  72.9342901  68.1817535  17.1080008  73.5530722  67.4515465
  18.0494395  72.7888429  68.3574322  77.8436518  99.6201611   3.7664098
  78.0934572  98.8988590   4.3439484  78.1303406 100.4076290   4.2289373
  91.9902376   7.0420953  80.2918593  92.5242833   6.3564511  79.8907164
  91.1360255   6.6319390  80.4272143  68.5665846  92.4608326   7.8906536
  69.0928698  91.6889286   8.0990332  67.6857996  92.1170425   7.7414560
  51.5603923  84.9263393  71.7803231  50.6789600  85.1906311  71.5167729
  52.1101283  85.6806433  71.5680722  77.9938792  87.0581257  72.0956067
  78.5691070  87.3570978  72.7998511  78.4666966  86.3296401  71.6931311
   6.5861602  18.9782878  68.7576393   6.7211480  19.3062993  69.6466926
   7.1853109  19.4944449  68.2183603  75.7518530  19.0627253  20.6857467
  76.4943266  18.4623921  20.7533121  75.8982420  19.5333076  19.8651648
  69.3977165  37.2903895  18.1158078  70.2105379  37.0348024  17.6796567
  69.0563011  36.4750147  18.4829950   3.9411731  22.5762959  79.0524021
   3.8056846  22.8797408  79.9500636   3.0640693  22.3550244  78.7394158
  17.8076386  71.9276285  15.5934155  18.7209582  71.9414997  15.8795774
  17.4695683  71.0906363  15.9118295  59.5876122  60.2807331  30.5313754
  59.3950272  60.1249504  31.4559698  58.7574959  60.1186323  30.0832009
  74.7546287  18.5398456  72.1541432  73.9293666  18.7293454  71.7077450
  74.7667976  17.5866338  72.2405771  75.3441000  52.6796293  30.6790543
  76.2108088  52.9089499  31.0144091  75.0010681  52.0495987  31.3127899
  34.4690824  52.3251200  21.5379643  35.2185154  52.8778601  21.7594695
  34.6201777  52.0702314  20.6277823  50.2181902  99.0025389  86.1523057
  50.6118574  99.8101437  85.8221052  50.8522883  98.6691296  86.7871252
  89.1253471  38.5073447  18.8924432  88.3509636  38.1081247  19.2889106
  89.7836971  37.8125477  18.9004648  43.2467747  61.7570734   8.3773988
  42.7818823  62.5015831   8.7592530  43.5728836  62.0830059   7.5385588
  27.4522443  41.5384599  75.1575366  28.0467792  41.9715043  74.5449773
  26.6933103  42.1197339  75.2061359  43.4555769  85.8799362  12.0417047
  44.0839958  86.4664936  11.6206622  43.1259632  85.3313065  11.3299549
  79.3062639  79.1191959   1.1703596  79.8727703  78.7656689   1.8561566
  78.4190226  79.0094519   1.5123999  68.4618568  97.6232147  23.4122539
  68.1713104  98.4450436  23.0167651  69.0585232  97.8914547  24.1110134
  90.8246278  97.1284783  84.4784836  91.6343068  96.6990864  84.7546670
  90.1839351  96.8837607  85.1462094  21.1005473  68.9488983  33.8378501
  21.0814428  68.9845324  34.7941947  22.0293975  69.0085697  33.6144543
  44.6920867   1.5393516  53.7121085  43.7969012   1.3412448  53.9871148
  44.8427482   2.4350759  54.0141205  22.4682422   1.3184711  84.5163677
  21.7615695   1.5864392  83.9289699  22.8534742   0.5511781  84.0931759
  60.8358049  42.5064754  12.9242980  60.4386711  42.9066086  13.6978650
  61.3473701  43.2108021  12.5262356  63.3125353  34.5668197  11.2563741
  64.2128658  34.7463369  10.9854233  62.8249598  35.3500319  11.0012758
  95.4043721  90.4033410  74.5865325  96.0260581  90.0429117  73.9542130
  95.2269696  91.2890374  74.2698256  27.6269908  11.7517491  85.1309225
  27.6925941  12.1635791  85.9925053  28.2611699  11.0353251  85.1589880
  64.0472698  42.2483683  18.7318623  64.6901798  41.6411161  18.3656168
  63.2495499  41.7270470  18.8218927  74.9137211  41.4743757  21.1408138
  74.3109751  42.1555471  21.4390278  74.3448162  40.7785654  20.8115220
  43.6218739  31.3229966  16.8032706  43.4510183  30.8150697  17.5963962
  42.7552652  31.4812589  16.4288771  44.3945169  63.7871456   2.6035425
  44.9549007  64.5400429   2.7915481  43.5030746  64.1289091   2.6725826
  20.7591462  58.5186863  11.6879332  20.2467608  58.9962912  11.0355628
  20.2009559  57.7827263  11.9389760  12.9897638  29.0576478  89.6042485
  12.1970554  28.7455483  90.0406416  13.6931606  28.8779183  90.2280802
  91.9572638 100.0339329  83.7260572  91.3440989  99.3641722  84.0288541
  92.7087163  99.5399916  83.3980731  69.8958206  65.8901787  10.2596331
  69.9184179  66.8436623  10.1784515  70.4466009  65.7013607  11.0193849
  19.4042297   0.2788325  73.2192937  19.3730779  -0.4178409  72.5636235
  20.2814765   0.2135345  73.5966591  70.9599590  65.2181244  13.1316829
  71.7696571  65.5227137  13.5413742  70.2633619  65.6342220  13.6394668
  52.6749988  21.3265248  55.2406934  52.8229804  20.4546042  54.8745135
  51.7364021  21.4772388  55.1285843   7.4716849  33.6751863  89.1511252
   6.5734954  33.3730622  89.0161838   7.5192781  33.8749524  90.0860360
  85.6718062  88.8577282  84.9785618  86.4309119  88.4836304  85.4258201
  85.5797242  89.7331845  85.3545031  49.0862846  40.8605814   9.9398011
  49.0881252  41.6696548  10.4512942  48.3638191  40.3488350  10.3036547
   2.2897668  29.9620172  82.2944740   1.4938874  29.6710797  81.8493173
   1.9743843  30.4273721  83.0692074   1.4127846   7.8544780  83.0070553
   1.4502759   6.9502278  82.6953516   1.8524666   8.3615132  82.3245410
   9.0088792  33.9883443  85.3621200   8.8195176  34.1500112  86.2863711
   8.5073180  33.2014390  85.1489470  88.9089108  56.4667797  26.8514752
  89.7140789  56.0541677  26.5389276  89.1196442  56.7628479  27.7370071
  97.9403542  93.2076037  58.8581589  98.5569381  92.4983799  58.6763242
  98.0837535  93.8367855  58.1511930  48.6669154  17.2687598  84.9884353
  49.0599818  17.2665854  84.1156659  49.3431277  16.8997260  85.5565784
  75.7504082  51.3915110   4.1409448  75.9679651  50.5932474   4.6222749
  75.4978132  52.0185089   4.8186591  44.6732612  19.2031451  55.1907710
  44.8847766  19.8432323  54.5112327  43.8255782  18.8451644  54.9270896
  75.2290721  37.4679204  83.7502578  75.5262084  38.1528588  83.1512675
  76.0356803  37.0813104  84.0910611  22.6635213  15.0587579  67.2361139
  22.7378745  15.2805205  68.1642989  23.2413526  14.3040534  67.1231393
  91.2483500  74.2139637  87.4247772  91.7971419  73.7953651  86.7615793
  90.4318856  74.4155299  86.9676212 108.0066585  97.5954687  65.4428295
 108.9187049  97.8366959  65.2809147 107.9864835  97.3404801  66.3652185
  19.7476764   2.7351447  67.8907040  20.3096862   2.0114823  68.1676415
  20.2293964   3.1528445  67.1767644  80.5113362 101.6945612  53.9892391
  79.7552203 101.5579617  53.4184006  81.2110518 101.1797678  53.5872272
  23.1563516  18.0341455  75.7744232  23.6888261  17.6674672  76.4802912
  23.7932105  18.3565351  75.1366869  29.4564080  20.6372476  20.2325511
  29.9720407  21.4162278  20.0238848  30.0082970  19.9044394  19.9593449
 108.1447076  89.4905102  77.5288883 107.6270341  90.0149405  78.1398061
 108.5329293  88.8042771  78.0716625  87.4926472  63.1490564   8.8796657
  87.2167015  62.7554512   8.0519187  88.1747437  62.5631618   9.2078465
  54.3291616  61.7425728  23.7905526  55.2640581  61.5377808  23.8066840
  54.1264534  62.0073509  24.6877909  61.4805651  79.3226004  16.1081517
  61.4480686  80.1446342  15.6188262  60.9192419  79.4741488  16.8685341
  96.1205005 101.0924017  72.0839146  95.9014510 101.6481936  71.3360194
  97.0765113 101.0453951  72.0755187  33.0218458  48.3142662   9.9220842
  33.3717632  49.1828680   9.7237796  33.1372404  48.2196999  10.8675849
  41.0125923  28.7729645   5.8108187  40.1350975  28.9710355   5.4837048
  40.8676910  28.4296393   6.6925001  52.4883456  45.0674935  78.5094694
  52.2382255  45.2642175  79.4122258  52.1401496  44.1902085  78.3502082
  73.4853315  73.5719681  17.4669504  74.1715717  74.0271282  16.9789612
  73.5204792  73.9550114  18.3434618  54.9913692  39.5054030  17.9739618
  55.4629278  39.7384644  17.1742451  55.5109882  38.8012862  18.3618367
 106.7587089  72.7392208  89.1882982 106.2611484  71.9679665  89.4600168
 106.0941743  73.4103191  89.0325553  52.7142711   4.6809360  67.4112300
  53.1013293   5.5091878  67.6948146  52.1827884   4.3977662  68.1552509
  22.0730805  36.5194869  16.6272342  22.9411769  36.6138363  17.0193279
  21.5861034  37.2831440  16.9369352  73.7191677  42.3527193  29.4093895
  73.9621115  43.0064344  30.0650334  73.6971378  41.5263033  29.8918653
  60.7528829  97.5662195  82.6531891  59.8570036  97.7645456  82.9257653
  61.2907790  97.8006088  83.4094701  50.5935855  21.9122716  69.5642213
  50.7739349  21.2559005  68.8912562  49.6659942  22.1206876  69.4530300
  20.0751348  18.4211417  57.7401856  20.2869792  18.0292054  56.8929914
  20.6771369  18.0021020  58.3551911  75.3432322  17.4502981  16.0887158
  74.5647430  16.9350290  16.3001013  76.0762548  16.8618226  16.2692773
  35.6222844  79.6708202  23.3352065  35.8744121  78.8240480  22.9669118
  36.2139392  79.7949457  24.0773463  41.5389585  39.6465659  26.8755054
  40.6417370  39.9727011  26.8057990  41.8439674  39.9643493  27.7253389
  29.6152063  24.2992612  77.2336630  30.0871654  24.6885415  76.4974919
  30.3033586  23.9822265  77.8186134  44.0637875  24.7720432  17.9133809
  43.1878901  25.0471520  18.1842124  44.0061760  23.8187575  17.8488863
  36.1763187   5.9408399  62.5568966  37.1019502   5.7027408  62.5045565
  35.7725520   5.2259036  63.0489019  83.2919358  99.5473158  86.4705676
  82.5291442  99.8663485  85.9882799  83.5188149  98.7223589  86.0413802
   3.9659829  19.3881961  87.6908991   4.8720021  19.0797015  87.6770413
   3.7321372  19.4028779  88.6189786  40.8940983  37.9625678  36.2148571
  41.0156727  37.3360848  36.9282770  40.7708311  37.4186778  35.4368973
  27.2028852  38.0145168  17.5755632  27.6757383  37.4974465  18.2276964
  27.0187759  38.8444328  18.0155349  90.8125786  17.5056525  85.5461792
  90.9052459  16.7529984  84.9620960  89.9692408  17.8909656  85.3083811
  36.8939157  12.3847886  63.3099202  35.9541650  12.5590726  63.2577304
  37.0304008  12.0731994  64.2046336  95.0174998  91.3449084  80.9681878
  95.3420829  90.5535590  80.5384878  95.7150983  91.5908587  81.5757230
  68.0021118 100.4511892  65.1795295  67.3719357 100.0214922  64.6011976
  68.3508896 101.1744654  64.6585110  98.0229997  99.7249996  78.4668151
  98.3017014  99.8629677  79.3720881  97.8076028  98.7934363  78.4218529
  89.6609083  43.0886384  72.4494127  89.5117072  42.3358651  73.0215207
  90.4853002  43.4644815  72.7582029  13.9890182  42.8226471  16.3642859
  13.9335084  43.3223534  15.5497670  14.8182189  42.3489904  16.2986529
  36.0114288  43.3972502  24.2344260  36.6867232  42.7839327  24.5243430
  35.2193928  43.1152964  24.6920443  13.5448923  98.3501017  78.1701997
  14.1567221  98.0142176  78.8252369  13.5388270  97.6829874  77.4837950
  15.4691592  96.5441429  85.3257803  16.3002386  97.0119392  85.4076616
  14.9060622  96.9377815  85.9922672  59.3999624  68.7129354   8.3683300
  60.2644300  68.3289623   8.5149425  59.5815277  69.5848560   8.0175847
  66.0686350  54.3486595   7.1986854  65.4438972  54.3150377   6.4742512
  66.9270992  54.3304062   6.7756784  89.3813610  39.6364212   8.6584151
  88.6603165  39.2591286   9.1623783  89.9119091  38.8832283   8.3987010
  40.2548409  73.3856058  19.3482614  41.1431122  73.6013794  19.6322358
  40.3186083  73.3139944  18.3958769  17.9359193  45.7165166  70.0483445
  17.6341529  45.1954766  70.7924489  18.5387464  46.3539716  70.4310707
  57.5684643  29.6538186  35.3914976  56.9128561  28.9674282  35.2678919
  58.3707714  29.1814685  35.6138134  11.6240401   4.4490834  90.3815832
  11.5703769   3.7006637  89.7872621  12.4938102   4.8170014  90.2254807
  74.5799040 103.9854824  78.5969166  75.0235008 103.9512074  77.7494029
  74.6500253 103.0946886  78.9401499   1.3756218  82.0842397  76.4777151
   1.6894188  82.9673397  76.2830344   0.7809010  82.1993410  77.2188584
 106.9573592  88.6457407  87.2759826 107.8164386  89.0388810  87.4297837
 106.6645001  88.3635461  88.1424884  89.3169022  63.4575510  27.7435923
  89.8632526  63.3575392  26.9640207  89.7408199  62.9106140  28.4049416
  44.8986292  39.9749732  31.3338923  45.2800131  40.1529264  30.4741740
  43.9819098  39.7688413  31.1512256  84.7740296  13.8403483  63.2558063
  85.6692067  13.6399432  63.5291699  84.8759261  14.4873305  62.5577644
 102.2693919 101.7094910  72.2820440 101.7837190 102.0636522  71.5371112
 103.0122041 101.2520754  71.8880490  52.9912710  40.4225922   9.6779627
  52.7707767  39.7566605   9.0266931  53.5063982  39.9540114  10.3347063
  77.9377936  70.9065950  85.5599115  78.0034732  71.8506014  85.4157922
  77.0245217  70.7653582  85.8093510  61.9515467  60.9590864   2.9007784
  62.5321293  60.7591391   2.1664938  61.1073828  61.1522055   2.4929501
   7.3111451  53.4527969  13.3704102   6.8038613  52.8201294  13.8789618
   8.1834364  53.0639696  13.3059859  73.9029598  38.3741426   2.1041721
  73.5741138  39.2184496   1.7955653  73.4814262  37.7303481   1.5348978
  96.3824653  98.0084526  90.6168769  96.8308066  98.8535416  90.6492814
  97.0043134  97.3924076  91.0042054  50.9507513  80.4124641   9.8852354
  51.7052269  79.9532509   9.5162892  50.1992989  80.0603867   9.4081712
  71.7622422  57.5195807  88.6603137  71.1617350  56.8366024  88.9589182
  71.3021325  57.9429286  87.9355336  54.9026060  35.7347894  11.7270231
  55.1413822  35.7676005  10.8006632  55.7151842  35.9362674  12.1910906
   1.3800879  37.9352304  72.6770476   1.9556184  37.2276135  72.9673341
   0.5392523  37.5081559  72.5132528  82.1039294 104.2014706  74.3707350
  81.9004106 104.7699940  75.1134292  82.4665259 103.4095060  74.7676483
  53.3330722   4.7470351  71.9277624  52.3982806   4.5424577  71.9043878
  53.3844466   5.5792066  72.3979548  38.7611651  71.8400860   5.2983981
  39.6916628  72.0469618   5.3856260  38.4383488  72.4597311   4.6441311
  76.7882872  37.8200674  31.9453621  76.7786407  37.2920561  31.1470246
  77.7172136  37.9312301  32.1477842  11.4559355  93.7629616  61.7606286
  11.5116873  94.4733250  62.3997763  10.8864107  93.1136524  62.1732596
  15.7012792  10.9190627  85.7295284  14.9005027  11.4434358  85.7336739
  15.8269830  10.6810781  84.8109463   4.3815179  19.5128079  84.8492608
   4.3123956  19.1575833  85.7354138   4.9582620  18.9018651  84.3906287
  46.5804858  10.6054135  86.4316062  47.1314521  11.3866158  86.4805392
  46.1071487  10.5936690  87.2635022 103.3595656  95.3465855  83.4534452
 102.7324628  95.0105774  82.8130755 103.3332824  94.7124207  84.1699479
  81.0025406  97.9551411   3.3839971  81.9557476  98.0391788   3.4077278
  80.7465267  97.8714752   4.3025249   4.8831644  91.7829549  81.2643049
   4.0047684  91.9522273  81.6048900   5.1449528  92.6082527  80.8561668
  19.0649462  84.0878773   7.7401465  18.3770669  84.7512054   7.7953172
  18.6649704  83.3680630   7.2521710  17.2349878  12.7110597  90.7013189
  16.4067025  13.1907292  90.6918177  17.2469659  12.2373124  89.8696625
  38.2646823  67.3182344  15.1488078  38.3486557  67.0437002  14.2356753
  37.3479676  67.1493101  15.3663635   0.5800333  78.1586420  68.3620504
  -0.1453123  78.2133662  68.9842347   1.0379353  78.9941799  68.4539083
  76.9286537  75.6055403  22.2006059  77.0214272  75.4080200  21.2686133
  76.6454792  74.7798538  22.5933981  16.4691682  13.0010434  80.1534918
  16.5848108  13.9118358  80.4242614  16.8445535  12.4887582  80.8696512
  75.9979773  88.0782700  25.6589580  75.7711649  88.9954853  25.8123064
  75.4335690  87.5887108  26.2572932  35.0878425   5.6419917  75.3266219
  35.3979011   5.4468509  76.2109390  35.7722516   6.1947127  74.9493722
  15.8775659   1.7908879  79.1311911  15.7733007   2.6866790  78.8103846
  15.4683442   1.2464591  78.4586099  82.7086830  60.9383345  27.1075392
  81.8717384  61.3178015  26.8396473  83.3676720  61.4913368  26.6878366
  82.5915908  94.5658552  72.9158107  82.5747727  93.7606966  73.4331766
  81.6767167  94.8446285  72.8767887  96.6151856 103.3086693  77.3005918
  96.6072701 102.6654017  76.5918091  96.3918923 102.8052103  78.0834690
  59.9381065  43.4109688  18.5563815  59.2719221  42.9677820  19.0817511
  59.5492601  44.2590332  18.3423400  66.5178585  92.4196053  35.1197815
  65.7765245  92.4289322  35.7252336  66.8216133  91.5119076  35.1270247
  83.6484337  83.3370113   1.0940960  83.5779953  83.0018520   0.2002613
  82.9212856  83.9540195   1.1765309  69.4109488  65.1658344  29.6879601
  69.8857546  64.5606899  29.1182327  68.5115147  65.1467800  29.3610263
   1.6468854  26.3771554  76.3425366   2.0420547  27.2457953  76.2681214
   0.8697744  26.4190122  75.7852427  73.4733105  34.2512345  16.2887836
  73.1683540  33.5352993  16.8461609  73.3289480  33.9378405  15.3959358
  98.4920120  80.4857254  14.5470202  98.1885433  79.9102306  15.2491176
  98.1065464  81.3375378  14.7520816  80.3407574  62.7900410   8.3259428
  79.7414637  62.1868515   7.8863478  80.8160591  63.2172394   7.6133245
  27.8088260  72.1924400   1.8407430  28.4754276  71.5102243   1.7603780
  28.1294751  72.7591562   2.5423434  50.4549837  57.6016998  23.8666987
  50.2592230  56.7422104  23.4936237  51.3931990  57.7193451  23.7178779
  43.6247753  93.6790955  73.5312906  44.5555746  93.4882748  73.4153930
  43.1766396  93.0044186  73.0211750  23.2035184  62.1954060   0.1749863
  23.7793970  62.7533054   0.6978128  23.6471939  62.1180296  -0.6696422
  47.2324085  81.8452644  16.7584920  47.6806116  81.6582966  17.5833488
  46.7350149  82.6444721  16.9319713  47.2910786  30.9920144  22.0191336
  48.1019688  31.2428856  22.4615765  46.6287756  31.0001969  22.7101636
  59.8345852  66.7712402  16.8937445  60.6100082  66.8254519  16.3351607
  59.8937702  65.9077501  17.3025334  48.3668137  66.2738276  12.9729342
  48.7884140  67.0899916  12.7039278  47.6809120  66.5479040  13.5817444
  41.5818258  42.7419396  86.0112477  40.7523580  42.4119016  86.3566313
  42.2199817  42.0634004  86.2316606   9.4095082  16.4214679  63.8609246
  10.0175138  15.6839820  63.8092164   9.9345203  17.1405240  64.2124275
  54.4850059  25.7097884  68.6518291  55.3897090  25.3999730  68.6099509
  53.9732452  25.0102922  68.2455758  70.4505920  26.3835192  10.7373142
  71.3176155  26.3294983  10.3353310  70.2088308  27.3066282  10.6621349
  52.6477714  10.3430053  84.2703811  52.6643081  11.1524983  84.7809491
  53.4178920   9.8575278  84.5661256  96.1044884  55.2990866   5.3261662
  95.4471016  54.6403217   5.1023209  95.9701157  55.4640818   6.2594146
  46.0631990  72.3690271  24.0560222  45.3367186  71.7657995  23.8992500
  46.5550232  72.3701811  23.2348394  92.3128032  90.5588162  52.6250223
  93.1771897  90.8856952  52.8744677  92.4929236  89.8664248  51.9891099
  22.6629686  92.4640942  11.2754190  23.4217262  92.3583794  11.8493032
  21.9204736  92.1709347  11.8036151   9.9244209   3.7708779  54.8432044
   9.6278424   3.5860463  53.9520768  10.5260654   3.0553075  55.0486616
  85.6985473 101.0836136  77.1672169  86.3654851 100.5324089  77.5766042
  84.8907184 100.8683121  77.6333646  89.7340679  81.0076332  29.6679473
  90.5570507  81.2665749  30.0825357  89.9148273  80.1447678  29.2950964
  36.2012339  42.2444677  41.5615129  36.1918879  41.7516279  42.3820305
  36.7722106  42.9922390  41.7377520  66.7694139  71.1247826  35.9884834
  67.4737358  70.4785204  36.0385942  67.0945978  71.7866087  35.3781772
   8.5282941   7.7607175  85.7095162   8.2767768   7.7573272  84.7859577
   7.9313798   7.1367904  86.1226035  72.6783514  66.8173552   4.6736073
  72.0230961  67.5102091   4.7562328  72.1842670  66.0552168   4.3715265
   0.6034366  70.7807589   9.9372613   0.3739730  70.4596996   9.0651977
  -0.2214154  71.1068058  10.2971673  11.1420763  36.5203381   6.6619259
  10.4820836  35.8427382   6.8085569  11.8343568  36.3207603   7.2921240
  62.2508478  58.1482744  19.3608952  62.1120501  57.7260494  18.5131359
  62.3962069  57.4231958  19.9686491  77.4747181  57.5073290  19.4208384
  76.8325090  57.1013165  18.8386405  78.2320833  57.6772451  18.8606977
  59.3534040  36.5617228  14.4479990  59.2495012  37.4655056  14.7456753
  59.1668177  36.0314322  15.2227306  51.8867874  49.9873686  10.4496706
  52.3688078  50.7738686  10.7052290  51.4422750  49.7082138  11.2501144
  89.8068570  86.8982541  88.1734694  90.5655717  86.4786875  87.7678225
  90.1805352  87.4829065  88.8328463  25.9922695  37.0211053  13.6971939
  26.6898251  36.6365099  14.2279804  25.4400444  36.2784195  13.4528613
  16.8548763  19.1934538   4.1182449  17.3840845  19.1087937   4.9113417
  17.4940789  19.3055332   3.4146184  52.4735160   1.1282607  90.4382786
  52.1985526   0.7584592  89.5993067  51.8913741   0.7229587  91.0809845
  82.7058315  36.5909147   7.7447397  81.9080925  36.8701386   7.2954220
  83.1045628  37.4047542   8.0528188  42.6733966   9.0411206  87.3926244
  43.5315700   9.3674775  87.6632894  42.3130889   9.7394296  86.8460191
  18.1681418  55.3143454   0.3552060  17.9403746  56.1634970   0.7337438
  19.1063941  55.3759241   0.1759730  74.1956520  68.9044333   7.2451264
  74.9277544  69.5105076   7.1314240  73.5788298  69.1413164   6.5525591
  28.3208604  16.9993564  87.7924312  28.1876559  16.2429162  88.3636422
  27.8900094  16.7589208  86.9721935  46.4553928  41.9307423   5.3636408
  46.5830898  41.0910559   4.9222228  47.3203230  42.3406458   5.3534925
  68.8501835  76.2540245  50.4340839  68.2527685  75.5109835  50.3490877
  69.4477415  76.0016060  51.1379576  81.5769052  87.0142638  89.5117187
  82.4822997  87.0578730  89.2041578  81.0496043  87.1212828  88.7200532
  66.5018082  59.1047812  19.4757950  66.7059040  58.4737015  18.7856376
  65.5703068  59.2926550  19.3607271  75.4729866  99.2804062  84.9072430
  75.8138489 100.1656162  85.0355045  76.2353467  98.7120115  85.0166211
  36.1874938  60.6210279  23.2501793  36.2745452  60.6610632  24.2025709
  35.7273746  59.7978640  23.0861187  43.3368063  34.8907304   1.0555874
  43.6482239  34.7417283   0.1628107  44.0102482  35.4410219   1.4554489
  94.3120003  77.9557514  25.6866550  94.3260002  77.0189810  25.8828664
  94.1131783  78.0016375  24.7514558  49.2573738  65.4380512  16.0471058
  48.4370136  65.0034094  16.2802017  49.3425131  65.2989817  15.1038969
  51.0202789  47.4350595  22.0332313  51.5570307  47.4564552  21.2409782
  51.6279793  47.6521683  22.7401924  33.1862254  19.2377873  68.6473111
  34.0179820  19.5174380  68.2649401  33.4305425  18.5761519  69.2944435
 110.7135466   8.2122441  84.8124007 110.8639005   9.1197511  85.0770876
 111.2734250   8.0904981  84.0456245  27.5879502  83.1966591  27.8692985
  27.4268770  83.0059814  28.7933826  28.3724117  83.7451553  27.8711176
  41.0940313  75.0149059  34.7759414  40.5360413  74.7431278  35.5046487
  41.9721699  74.7282839  35.0268412  70.5014563  73.8690472  34.9693823
  70.2335215  74.1909075  34.1086555  70.6020069  74.6593666  35.4999685
  85.7341576  97.5735760   4.4582176  85.0669956  98.2439518   4.3107840
  85.4371262  97.1079159   5.2399921  24.8786588  40.9052583  82.4169359
  25.5085464  40.1846810  82.4015222  25.1654430  41.4891263  81.7147360
 102.3019843  10.3906831   2.3897392 102.8042559   9.6340093   2.0874092
 102.3645215  11.0216817   1.6726851  26.3530011  39.9169847  80.0433890
  26.8440051  39.0957948  80.0153760  25.7184692  39.8410817  79.3307630
  52.7784915  24.2709609  46.0941151  52.3085685  24.1162559  45.2746848
  52.2451492  24.9164744  46.5578870  41.8998003  50.8565235  16.1858833
  41.7915630  51.2568569  15.3231835  42.7767992  50.4736090  16.1639130
  38.4879684  59.9020576  11.8034589  37.9181266  60.3898716  12.3980594
  39.2863584  60.4275513  11.7519128  76.8849850  92.6258659   0.4387907
  76.7482853  92.5222683   1.3804977  76.1999750  92.0914078   0.0371043
  90.8540916  68.8724136  33.3946109  91.6327572  69.0719748  33.9143157
  90.8168030  67.9161072  33.3765602  72.1532488  80.8081150  25.6895614
  72.5888109  81.0069561  26.5184069  72.8465843  80.8736324  25.0328875
  49.1386080  83.9390564  22.8911352  49.6950865  84.5120716  22.3636770
  48.6377335  84.5365334  23.4464478 101.5233855   6.8459805  21.8417692
 102.1605353   6.9685277  21.1380291 101.6973929   7.5641831  22.4501586
   9.1555591  47.8801461  80.0624529   8.6435266  47.0855638  80.2130929
   8.5820480  48.5920449  80.3462151  13.9317026  91.5235030  84.6249953
  14.7654333  91.9892585  84.5602337  13.8910952  90.9932911  83.8290939
 104.7542476 103.3827984  79.6384422 105.0159930 104.0210974  80.3019873
 104.8177003 102.5367987  80.0817147  86.8566990  82.8083038  16.2430704
  87.5223446  82.1334267  16.1100733  87.0393562  83.1561565  17.1159160
  85.5359077  68.9444256  47.3889351  85.4101562  69.7850275  47.8291655
  86.4843845  68.8155460  47.3851824  41.3015027  23.4531995  73.8685003
  41.0724540  22.5238105  73.8717798  41.9624038  23.5394212  74.5555273
  37.1449704  37.2778245  79.0511957  37.2001786  36.3542481  78.8058618
  37.0104976  37.7380773  78.2227544  54.2960978  57.1717167  19.5424998
  55.2463722  57.0573378  19.5538652  53.9525795  56.3589716  19.9135435
  68.1772232  55.5930901  29.2127943  68.3596039  54.9969339  28.4864569
  67.9838133  56.4309072  28.7922144  31.8867822   2.0246955  77.0775453
  32.4388213   1.2433883  77.0452181  32.4650903   2.7131482  77.4059132
  96.7194557  76.3481712  29.4104362  97.3543262  77.0607710  29.4837093
  95.9054470  76.7163181  29.7540951  85.0424718  76.9879520  69.1215733
  85.0978135  76.5655410  68.2644061  84.1982030  77.4388992  69.1123012
  31.4373107  24.9484178  90.2806457  31.1070342  24.0503856  90.3069575
  32.0563264  24.9973889  91.0091082  53.0967045  78.7358618  51.1744595
  52.7500677  78.7829256  52.0654488  52.8459167  77.8652716  50.8655691
  74.7169733  54.6972704  12.6679862  74.6109867  53.7467909  12.7077758
  74.3117428  55.0173998  13.4739244  67.9655643  24.5385619  68.4531144
  68.6373611  23.9059421  68.1987337  67.7199645  24.2826577  69.3421749
  33.4709831   0.1523312   0.9502153  33.7368389   0.8498200   1.5494262
  33.3526894  -0.6137363   1.5118082  60.8891344  74.4565678  12.1202087
  61.5962791  73.9534044  11.7164731  61.3344812  75.0646687  12.7102232
  51.3427925  68.7462425   6.7442805  51.6761017  68.7867308   7.6406610
  50.5891800  68.1582832   6.7952996  78.5049868  83.3714104  12.8227723
  78.6351442  83.2084084  11.8885756  78.5619688  84.3229103  12.9101050
  91.2989235  62.9178762   3.9575255  92.1464920  62.8890944   4.4013950
  90.6816006  63.1881046   4.6373227  57.1532774  69.7238684   5.0927436
  56.6147423  70.2099895   5.7171655  57.3816204  70.3671551   4.4217169
 103.6374763  13.6863585  45.5834416 104.0336636  14.5244142  45.3448371
 103.9727334  13.0691548  44.9331359  60.5714412  23.8160153  61.1153535
  61.4370055  23.8255998  60.7067779  60.7503696  23.8214990  62.0556644
  74.4261360  70.9739399  32.7965808  75.3209400  70.9728146  32.4566388
  74.2932892  71.8655920  33.1183553  73.7897391  46.6054078  77.5927023
  73.5651298  47.5264474  77.4605278  74.4832797  46.4341947  76.9555858
  25.2453561  14.0822764  90.2144806  25.8227296  14.8376151  90.3255279
  24.4265361  14.4530364  89.8853910  33.8882251   3.4259292  80.5638961
  33.7059875   3.6791154  79.6589557  34.4353051   2.6441213  80.4883329
  46.3767433  57.8897762  28.1840491  46.8126535  58.2404423  28.9607406
  46.4994192  56.9426060  28.2476521  61.4201641  93.5241604   1.7546619
  62.2676802  93.9672852   1.7147945  60.7920933  94.1810036   1.4541368
  32.8834844  75.9854221  15.4538202  33.1680894  76.6764164  16.0519481
  33.4083915  76.1203861  14.6648407  72.1034288  64.5779753  26.7465472
  71.3064909  64.0534449  26.8239260  71.9134665  65.3763485  27.2392392
  23.5740590  55.4622936   7.3389590  24.2908382  55.4085255   7.9710722
  22.8541350  55.8624077   7.8266573  92.0342784  13.3356007   1.6475108
  91.5894275  14.1458615   1.3988972  92.1874242  12.8823480   0.8184474
  44.4685550   6.7666932  87.8590364  44.5538898   7.6574441  88.1989098
  43.5968776   6.4863702  88.1380237  56.4378066  19.7245666  54.7974471
  55.6202789  19.4407817  54.3883685  57.1152682  19.5005008  54.1594318
   7.2609515   8.2343551  64.9475173   7.7901597   7.9161044  65.6788758
   7.2242494   9.1825553  65.0732092  61.6308451  90.5497646   1.6191682
  60.9866428  90.6681442   0.9211537  62.0036507  91.4214134   1.7513758
  50.5229139  79.4847345  29.2771959  49.9386263  79.9810743  29.8503327
  50.4223442  78.5762501  29.5614052  75.1056147  60.4246426   4.9631637
  74.3740559  60.6288385   4.3806174  75.8136940  60.9972334   4.6682158
  44.4891691  81.3195324  33.5414147  44.5914316  80.9190178  32.6780701
  45.3133678  81.7832184  33.6894798  73.2591581 102.7915668  11.7082858
  73.0425453 103.7016773  11.9108164  73.2347298 102.3454666  12.5548244
  73.7883453  13.2721147  28.0291605  73.7455802  12.3273381  27.8814864
  72.8785972  13.5337838  28.1710172  24.8876186  39.4530889  71.3118282
  25.7573791  39.6710034  70.9767727  24.5911260  40.2527162  71.7464760
  68.1171608  32.7659965   5.3227133  67.7629662  32.8861713   4.4416147
  68.0692577  33.6352062   5.7207221  24.4827409  30.1829453  61.0667423
  25.2630420  30.1980897  61.6209367  24.1431613  31.0769864  61.1067561
  78.2247353  59.6473646  26.0316586  77.3220015  59.7069979  25.7190132
  78.7402153  60.0974941  25.3624082  16.6384263   8.0615827  86.2628627
  16.0744090   8.7571212  86.6010067  16.4458699   8.0314227  85.3257159
  84.5919800  92.5285339   0.1384964  84.9060631  92.8590298   0.9801354
  83.9360619  91.8706703   0.3692027   7.7363963  21.7670747  89.2294089
   7.0551295  22.3440143  88.8840791   7.5026460  21.6443988  90.1494866
  29.3958850  18.2800361  76.2519649  28.9959569  18.0254479  77.0835141
  29.3923421  19.2371007  76.2675754  65.5343533 104.8822689  39.6434927
  66.0962677 104.1106796  39.7151041  66.1374903 105.6236076  39.6970797
  97.7004242  84.1005516   1.2677643  98.0223083  84.9532700   1.5601572
  98.2775402  83.8626766   0.5421029  60.7918882  90.6077766  11.8804562
  60.3347826  91.4281750  12.0655012  60.1833057  90.1129913  11.3317788
  97.2123723   8.4358796  10.0552797  97.4809174   7.5474843   9.8210323
  97.9120545   8.7551888  10.6251216  39.5126724  61.2362623   2.7267605
  38.6381602  61.4071655   2.3771110  39.4854903  61.5814352   3.6191443
  10.8667274  13.9381858  81.5335599  10.8489700  13.5454627  80.6608132
  10.3238387  13.3586856  82.0680568  60.6452270  44.5277425  86.5109879
  60.4541106  43.9457627  85.7754538  61.2806792  45.1531526  86.1627174
  62.5096846  65.9427500   7.1760368  61.7696285  65.7336235   7.7459580
  62.8399658  66.7772436   7.5088602  82.1282768 101.7868042  10.6076324
  82.4661255 101.9769096   9.7324443  82.8959751 101.5039921  11.1045074
  82.3972607  80.6912804  11.3779652  82.8335094  80.1955986  12.0709383
  83.1101227  80.9972000  10.8171856  91.7722511  84.5306969  30.6005788
  92.3046684  84.2710590  29.8486805  91.0057068  84.9557590  30.2159190
  60.7070683  95.4888785  70.6007293  61.0610985  94.8904764  71.2586120
  61.1385440  96.3243067  70.7799510  47.8642511  50.4132557   6.6912931
  48.1594229  49.5186472   6.8609470  48.2903957  50.9385681   7.3685533
  60.6915426  82.9089737  12.4270165  61.0341167  83.4994221  11.7560089
  60.8519316  82.0319080  12.0788050 110.1040568  37.1406221   6.6525006
 109.4310745  37.7287531   6.9951761 110.8960375  37.3752260   7.1361941
  71.5840673  76.2207508   4.1442177  71.4362574  76.9328642   3.5218981
  70.7760096  76.1779165   4.6555272  85.8522511  68.1850290   1.2179975
  86.7746830  68.2613945   0.9740330  85.6777763  68.9663935   1.7426538
 102.8697995  20.0705119  90.0294456 102.2065047  19.3870660  89.9336760
 102.8450445  20.2998086  90.9584470  13.1316848  33.1789990  83.9826093
  13.8237519  32.5379487  84.1448692  12.6808114  33.2625505  84.8228261
  51.2266493 102.9871559   5.9818488  51.7360687 103.6597347   6.4339042
  51.8831587 102.3891926   5.6245482  53.6357737  54.8869658  21.3282943
  54.3732643  55.1475382  21.8800569  53.1012630  54.3272543  21.8915462
  78.6783266  50.0793505  14.2501855  79.0896940  50.0272846  15.1129127
  79.1750193  49.4643259  13.7104917  30.1142688  21.5297385  67.0115856
  30.8878656  22.0240899  66.7406753  29.5498939  22.1790906  67.4311761
  66.3616085  73.5742521  21.6175532  66.8979406  74.3557978  21.4842391
  66.8088770  72.8892183  21.1206532  63.7285519  72.9429817  14.1517520
  63.1886721  72.3622417  14.6879458  63.8182545  73.7386417  14.6762621
  62.0805311  86.8555737  32.4030685  61.2528610  86.3854313  32.5038433
  62.7074957  86.3504314  32.9207325  30.0697465  23.9277764  83.2266954
  29.5763774  24.7292872  83.0523477  30.9329505  24.2336579  83.5051665
  58.3145046  91.0639000  17.9014099  57.7782488  90.2897358  17.7301753
  57.6898527  91.7889881  17.9183090 108.8724946 100.6767571  80.5859784
 108.8119983 101.0991156  79.7291306 108.6444472  99.7622645  80.4188708
  16.7477842   5.6788894  87.7642474  16.8119569   6.5741750  87.4317113
  16.6022582   5.1435205  86.9842259  64.8406410  62.2347689   9.1116893
  65.1604223  62.9299402   9.6867627  64.5761061  62.6886034   8.3115101
   2.7105709   7.9724416  22.1319485   2.2830864   7.8374299  21.2862158
   2.2927805   7.3389253  22.7153349   6.8980594  44.9133988  88.2886929
   6.3540263  45.0433274  87.5119153   7.7945705  45.0358029  87.9764197
  54.9514818  65.0478745   4.5329583  55.8573580  64.8201752   4.7421831
  54.9273729  66.0035324   4.5816341  40.0439310 100.4136753  39.6653628
  40.1065588 100.8867359  40.4951382  40.9351063 100.1081371  39.4959998
  81.3759613  63.4087181   5.7760066  80.5839920  63.7866640   5.3936845
  82.0748711  64.0125942   5.5248469  60.8086777  60.3551245  16.6112995
  59.9351645  60.5692768  16.2836659  61.1914206  59.8028278  15.9296036
  70.4682827  67.9440117  23.9907146  70.2391291  68.1694031  23.0890942
  70.8979845  68.7283659  24.3318534  15.3716078  84.2709004  87.1156157
  16.1471167  83.7113750  87.0737759  15.6938448  85.1439988  86.8917990
  87.9483223  47.9173279   6.2554401  87.6776886  47.0373297   6.5173447
  88.2285213  47.8207970   5.3452742  70.3332090  71.8189096  39.7339678
  71.1590862  72.1425581  40.0936985  70.5663967  71.4731312  38.8724041
  48.8046503  42.9914808   4.5787376  49.0683746  43.8673210   4.8608491
  49.5197916  42.4226046   4.8636657  73.8869190  79.7222424  19.7252333
  74.0082693  80.3486252  19.0116835  74.3141460  80.1309776  20.4779911
  33.5032439  55.5677128  17.1472049  34.0999722  55.8251476  17.8499663
  34.0681481  55.1604986  16.4904773  52.7104568  77.1585703  20.7336617
  52.4159431  76.2744904  20.5147958  52.3488379  77.3227453  21.6045880
  84.6806049  85.4224777  21.4859748  85.3133011  84.8957443  20.9976292
  84.3506050  84.8327923  22.1639180  80.3879070  59.8429966   1.1711000
  81.3125706  59.6191406   1.0656549  79.9210691  59.1758299   0.6679274
  50.4617310 101.3074207  32.6771021  51.3018560 101.6283894  32.3493814
  50.5507565 101.3328648  33.6298132  70.1127100  80.7829189  17.8614640
  69.2636824  81.0349083  18.2246232  70.7243347  81.4314747  18.2100582
  55.8070087  94.4147301  27.7611160  56.6195345  93.9391899  27.9340196
  56.0616970  95.1124859  27.1573782  74.3195057  52.6115274   2.2143494
  74.7976780  52.0363092   2.8116003  74.1079330  52.0555687   1.4644304
  23.6750980  13.4290048  76.4208511  24.6038003  13.6302396  76.3057617
  23.6605735  12.5103684  76.6894273  77.5846291  52.3300648  43.9674425
  78.1171370  52.4248075  44.7571850  77.0488119  53.1228781  43.9433241
  99.5275688  61.3527250   1.9147271  99.8160553  60.6990004   2.5516316
 100.2736282  61.9457340   1.8255059  68.5911560  64.9391651   2.0941754
  68.8012743  64.1325712   2.5648037  68.0271339  65.4267406   2.6944903
  92.6796627  77.7851772   6.3226736  92.3613834  78.6622047   6.5365684
  91.8853569  77.2637558   6.2068486  36.9172473  14.1556235  82.7480200
  36.7928500  14.1265174  83.6966560  37.3527236  14.9930879  82.5891439
  20.4675956  21.5873929  88.8993995  20.7637973  21.0829612  88.1417439
  19.5995755  21.9052955  88.6509865  66.7948198  79.9536991  16.8687904
  66.1077118  79.8976946  17.5328517  66.4633989  79.4335794  16.1367607
   6.9278569  13.8289901  89.6126355   6.6266771  13.5660096  88.7429423
   7.7342649  13.3312484  89.7474934  17.6690860   4.1126319  82.7103600
  17.8823562   3.6744901  81.8864802  16.9395251   4.6923467  82.4914805
  70.5497169  87.8349304  14.8416305  69.9920321  88.0195141  14.0858853
  70.3908014  88.5645771  15.4404616  69.1793728  68.8198137  37.4387193
  69.7853947  69.5470285  37.2968745  69.7432280  68.0506897  37.5208640
   4.2276565  75.6650162   6.6668612   4.2324058  76.0712433   5.8001500
   3.5482589  74.9929237   6.6126448  62.7254057  78.6982012  31.4720750
  62.3943329  77.8016996  31.4180875  63.5605764  78.6177588  31.9327784
  49.1193008  86.2145042  24.4943666  49.0405130  86.9588757  23.8977551
  49.4167709  86.5989208  25.3189707  45.2241039  54.2395210  23.9108682
  44.2932606  54.3684626  23.7288404  45.3738451  54.7045326  24.7340155
  61.8293047  86.9335842  54.0013456  61.6274214  87.7083206  54.5259857
  61.1346245  86.9020653  53.3435774 110.5544757  89.8494422  61.3589433
 110.8190297  90.6188166  60.8546547 109.6470117  90.0260937  61.6070107
  15.8673902  20.9116145  75.9198407  15.2626176  20.5509778  75.2714411
  16.1348100  21.7551156  75.5548445 109.4700527  64.8072529  21.0950518
 110.2229404  64.2433262  20.9178877 109.7207832  65.6600809  20.7400179
  15.7815492  64.6873617  24.3686032  16.4508057  64.4847107  23.7149525
  16.2227535  65.2640772  24.9922800  85.1289940  99.0094757  14.2992270
  86.0052299  98.6446762  14.1752994  84.5379257  98.3239651  13.9878702
   6.7841998  99.7608757  15.1493180   7.5125781  99.8057747  14.5298982
   6.8757717 100.5493450  15.6842589  51.6584773  22.0596763  83.9045004
  52.2253509  22.5412866  83.3020542  52.2482867  21.7482396  84.5910588
  94.4015026  90.2658749  12.9447818  94.2250729  91.0954857  13.3884656
  94.6392250  89.6632290  13.6494327  49.2434883  71.0348225  20.9896517
  48.8942146  71.1364412  20.1042628  49.6711397  70.1785040  20.9816027
  76.9164653  59.9261018  68.6093000  77.2178073  59.8646565  67.7028516
  77.6105495  60.4067346  69.0603832  14.5443483   5.3430959  84.9518833
  15.4571338   5.0878402  85.0856576  14.5822282   6.0254689  84.2816863
  29.2515560  10.3819951  31.8505478  29.2868801  10.5215653  30.9042382
  28.3196446  10.2777776  32.0426583  43.3582592  77.4833822   5.3478247
  42.5060225  77.0491409   5.3846657  43.4734440  77.8593206   6.2205416
  18.1593605   3.8368520   4.7108713  18.3130070   3.8118371   5.6553286
  18.0211445   4.7635850   4.5151588  65.5617762  91.6991711   9.9533612
  64.9867392  91.0568428  10.3692663  66.2697506  91.1775208   9.5753491
 100.6967163  83.1659031  30.3880262 100.3654575  82.2712994  30.4665875
  99.9378967  83.6787319  30.1097655  21.0451694  56.8593045  82.2013131
  21.5270991  56.0526296  82.3836747  20.4455466  56.6251203  81.4929030
  93.2149701   8.6391267   9.2270523  92.5405602   9.3151196   9.1604352
  93.8905101   9.0286454   9.7821718  56.4788055  24.4128251   6.3359129
  55.6075144  24.5069051   6.7209160  57.0151091  25.0582314   6.7964154
 108.6852550  91.7935049  59.8963765 108.3184289  91.8690836  60.7772616
 109.6125840  92.0048844  60.0041441  67.8876351  45.9993243  76.3810757
  68.1854843  46.1735379  77.2739175  67.7005552  46.8649280  76.0178093
  96.4135360  99.2935955  53.8044814  95.4605912  99.2225372  53.7489895
  96.6952275  99.4465649  52.9025487  37.0750642  26.9946551  11.2125003
  36.1764526  27.3218441  11.1715245  36.9817305  26.0618329  11.4058006
  79.7655201  72.7163315  25.2671647  80.3405666  72.3632908  25.9460711
  79.8056221  72.0719957  24.5604444  94.2498111  77.3715078  76.2108782
  93.9634608  77.0257008  75.3655056  93.5760211  78.0079710  76.4499525
  94.7564601  76.5985882  81.5367875  95.1778506  75.8317363  81.1487124
  95.2526425  76.7645681  82.3383406  74.0467787  36.2429953  14.2420149
  73.2589006  36.7860818  14.2650330  73.8334179  35.4880714  14.7904658
  44.8355007  51.7099857   5.8054167  44.9030828  50.7734203   5.9911865
  45.6686687  51.9325018   5.3900260  60.9429764  89.5828378  86.6044185
  60.7737469  88.8643109  87.2137717  61.8803929  89.5245564  86.4197979
  17.2560823  25.7944608  31.9447351  17.4673891  26.5576267  32.4824691
  17.6224387  25.0530243  32.4266934  57.9528522  36.2558913  19.1358030
  58.2823706  35.3631115  19.0328753  58.7236691  36.8108678  19.0171421
  61.5547609  43.3322239  15.8660960  61.5588140  42.4928188  16.3261068
  60.6590366  43.4228611  15.5409920 103.8679313  78.6644303  66.3922075
 104.8167705  78.7071716  66.2734321 103.5149144  78.6648190  65.5024818
  19.8633757 100.7057297  79.8468879  20.1604452 101.3899910  79.2470816
  19.9339762 101.1014950  80.7155744  21.7900272  19.3653508  34.1435364
  21.4407869  20.1194354  33.6685399  21.1748595  18.6569520  33.9538745
  14.5230093  71.3429582  68.4312180  15.1349821  72.0766019  68.4902791
  14.7199049  70.9340608  67.5884465  88.9049577  89.0178001  90.0259688
  89.2116307  89.9057519  90.2096063  88.7572192  88.6320555  90.8894545
   9.4687453  72.9508698  46.3903979  10.3124419  73.4029805  46.3926247
   9.1277495  73.0757558  47.2760371  84.9106931  88.1157744  76.7832962
  85.2700566  88.8917386  77.2133795  85.4590415  87.3948323  77.0927886
   2.8921166  70.4222440  59.4017914   3.0500069  69.9701893  58.5729674
   2.8281775  71.3467133  59.1619996  32.3063226  23.8419076  38.9996604
  32.4247928  24.3487807  39.8029545  32.4618335  22.9350396  39.2635516
  18.7571950  12.4100514  82.5009320  19.4430204  12.8515264  81.9999615
  18.7946601  12.8155442  83.3671913  79.3289613 104.3308174  78.2209805
  79.1586303 105.2450478  77.9942671  79.6808433 103.9464914  77.4180440
  85.1970005  57.7620649   7.3671961  84.4012070  57.7524042   7.8990340
  84.8830318  57.6986217   6.4651805  13.8254252  52.6188515  81.7218426
  12.9949084  52.1512319  81.8101636  14.2731181  52.4713469  82.5549368
  74.8578310  25.9530568   6.7269933  74.3841791  25.2459311   6.2889755
  75.2841949  26.4319277   6.0162699 106.4640288   0.5711373  16.0497224
 107.2119479   0.0089559  15.8477402 105.9623675   0.0782403  16.6990519
  50.4651451   8.8812888   1.4885004  50.6905413   8.8561571   0.5585551
  49.7046661   9.4607121   1.5350533  76.6889905  95.2878677  79.5340673
  76.0701035  95.6721031  78.9131216  77.4792336  95.1295054  79.0176657
  50.7627101   8.8805839  71.0313753  49.9039169   8.4608766  70.9808413
  50.8782954   9.0784236  71.9607464  88.2229424  77.0044947   1.1239403
  88.4425545  76.9408178   2.0534286  88.3512783  77.9286766   0.9102802
  26.3700056  44.8739195   7.4464977  26.8509459  44.0629005   7.6113629
  25.4599023  44.6582842   7.6500821 110.3077506  91.8484652  86.8230779
 109.9773358  90.9810602  87.0568854 111.2494420  91.7982971  86.9871918
  67.6199436  72.6485538   7.0120132  67.5654554  72.7326202   6.0600704
  68.5579538  72.6721382   7.2012395  13.0287595  15.9582587  74.2370979
  12.5668426  15.1642343  73.9680341  12.9741283  16.5365764  73.4763089
  34.1883516  34.0589094   8.5674942  34.6631360  34.3363285   7.7840090
  33.7641478  34.8559666   8.8852715  66.8085216  99.3511784  87.1728385
  66.9440793  98.5411322  87.6644481  67.4510049  99.3117678  86.4643941
 103.4785699  89.5529449  73.6415425 104.1388368  90.1322448  73.2611552
 103.9587211  89.0332424  74.2862109  46.5028524  60.3113556   9.6926963
  46.5708923  60.7877970   8.8652873  45.9993696  60.8923626  10.2629328
  40.0273557   4.0751954  87.4918497  39.5210691   3.5477468  86.8740261
  39.3764968   4.4157096  88.1055800  89.2675494 104.1022408  80.6278113
  89.1211366 104.8265183  80.0193576  89.3705605 103.3343279  80.0657288
  16.7226834  25.7561084  75.4913417  16.6522403  26.0447761  74.5814303
  17.5306459  26.1594697  75.8087174  29.3109508   9.4926568  84.9190221
  28.5824580   8.9778825  85.2662096  29.9706216   8.8421603  84.6783653
 100.5497168  93.6062204  82.6930520  99.8444795  93.9695036  83.2286808
 100.1252984  92.9302656  82.1646736 104.7641610  72.8030026  70.0843767
 104.4385575  73.1333983  69.2470864 105.2453612  72.0073723  69.8571042
  69.0852474  92.5985920  86.2962848  68.7797665  93.4062969  85.8833358
  70.0285505  92.7242195  86.3993720  20.0905366  27.9057714  59.5012954
  20.7383771  27.3391410  59.9201730  19.2546840  27.6360627  59.8818735
  60.9729095  21.6575261  82.1825240  60.2884288  22.2051354  81.7980221
  60.7445903  21.6051360  83.1106166  76.0598110  74.3386232  82.9886362
  75.2069377  74.4191825  82.5616155  76.4429878  75.2134907  82.9252646
  68.3400912  10.9475394  87.0014290  69.1325565  10.4280635  87.1369955
  67.8481860  10.8512612  87.8168959  39.7473188  28.3659669  74.2726484
  38.9314790  28.4961530  74.7560600  39.5658918  27.6276990  73.6910311
  76.8738793 101.5679180  84.9353806  76.8991970 102.5030911  85.1379577
  76.9956206 101.5249216  83.9869282  93.5386704  69.1522598  57.4411372
  94.3655204  68.9192044  57.0189575  92.8687571  68.7225842  56.9093279
  32.8429361  15.6140491  90.7378644  32.7927489  14.8512336  90.1618240
  33.2079311  15.2737542  91.5546940  46.9166560   7.6789971  58.6738208
  47.8379245   7.8640100  58.8562063  46.6263194   7.1518012  59.4181350
  72.9307842  33.9362192  22.4953723  73.6946011  34.3782377  22.1246552
  72.7803850  33.1903553  21.9145989  22.0579238  30.5816289  72.0187381
  21.8477435  31.5132829  71.9549850  21.3834663  30.2228566  72.5954739
  95.5803441  84.0659082  67.4598077  96.2493609  83.3854925  67.5352052
  95.9238004  84.7974026  67.9728249  98.4419918  53.6423969   1.1879896
  98.9071083  53.2198858   1.9100568  98.4337997  54.5712042   1.4192414
  58.6971951  45.2544403  22.1215034  58.1834698  45.5649996  21.3759375
  58.1617117  45.4661179  22.8861475   1.8305531  67.9026961  86.5574894
   2.5750485  67.8679645  85.9568656   2.0784130  68.5592222  87.2084657
 107.6601123  94.0749371  72.2779456 107.2966289  93.9915859  73.1595150
 107.6014565  93.1930935  71.9103244  39.2225785   8.6790296  90.5113505
  38.9576049   8.0094453  91.1419662  39.4471736   8.1881114  89.7209140
  56.3566065  52.1935940   8.8983679  57.1410370  51.7908096   9.2707431
  55.6670952  51.5431833   9.0316767  57.7760839  73.3673668   0.4716644
  58.4918976  73.9727545   0.6649362  57.7101612  73.3714724  -0.4832540
   8.0848399  97.4968922  77.3301545   8.8795748  97.8996574  76.9802753
   8.2932654  96.5642893  77.3852757 110.5617427  90.3746140  74.5501772
 110.5255889  91.3111984  74.7444383 110.8537911  89.9715244  75.3677705
  64.0156031  48.7171030  20.6958985  63.5677290  47.9039478  20.4626060
  64.9361992  48.4682941  20.7784939  26.4481206  16.0682078  67.5479773
  25.9802098  15.2458640  67.6930264  25.8576198  16.7423125  67.8843096
  66.2318993  54.4422960   3.1772596  66.3532114  54.8278332   2.3095751
  65.4629517  54.8883772   3.5321757  83.0229568  59.0948963   1.0700029
  83.1403160  59.5680761   1.8937504  83.8419342  59.2347717   0.5946591
  97.7002524  88.0294096  64.5689753  97.0843982  87.5600969  65.1317385
  98.5348271  87.9819357  65.0353078  88.0770492  86.2172138  54.4578508
  88.8108252  86.7840469  54.2201356  88.4885310  85.4231488  54.7989849
  56.1941047   6.9422122  66.9013623  56.8004794   7.5657531  67.3010353
  56.5519328   6.0830899  67.1251849   3.3287091  24.1924163  89.1605224
   3.9419074  23.7773772  89.7671213   2.6419063  23.5386725  89.0295578
  55.5090332  63.5290575  13.8964093  55.9985638  63.6532164  14.7095382
  54.7442245  64.0972853  13.9881349   0.3640547  47.7354556  85.1973740
  -0.3607473  47.1293074  85.3506068   1.1467400  47.2373533  85.4330156
  83.5014153  37.3220849  26.0436153  83.2653332  38.2149529  26.2951827
  83.8741016  36.9399881  26.8381810  10.6422606  70.4293716  71.6717521
  11.5266028  70.5764031  72.0072297  10.6837836  70.7077777  70.7568768
  89.9721765  99.2059481  51.3881425  90.6991433  99.0777075  51.9974903
  89.6959733 100.1110851  51.5319136  44.7182655  86.6305733   5.3712541
  44.8919249  86.7695904   6.3022470  45.5818462  86.6603851   4.9594638
  48.8309336  60.5014753   6.2366462  49.0831757  60.3177071   5.3317517
  48.1419992  61.1620045   6.1638153  35.0417037  11.2853166  82.5718359
  35.9605117  11.3512727  82.3116908  34.7894807  10.3925773  82.3359535
  25.1984067   4.2275020  89.7220372  24.7558637   4.9545308  89.2840586
  24.4935603   3.6227866  89.9538707  13.7486549   9.0303918  87.5755960
  13.7398668   9.3325110  86.6673676  13.0683036   8.3580037  87.6109383
   1.1686316  95.8340180  75.4098860   0.3054467  95.6906950  75.7979659
   1.1455431  96.7402041  75.1024417 107.7167605  87.9485452  60.9589723
 106.8785953  87.5548970  61.2013606 108.2917737  87.2022950  60.7895616
  93.9014149  89.5574760  30.9523010  93.5553551  89.3349266  30.0880408
  94.3857765  90.3714275  30.8140326   4.9584093  98.1346047  64.1478399
   5.3808489  98.0856478  65.0053838   5.6401673  97.8714430  63.5296277
  55.0615883  32.7883554  14.9010563  54.5079899  33.5559249  15.0445712
  55.7338619  33.0888796  14.2895305   5.4876037   8.5701772  71.7638794
   4.9894281   9.3745633  71.9088379   4.8919387   8.0048772  71.2720982
  29.7412062  62.6140356  18.8806605  30.3887486  63.0153275  19.4602168
  29.6374226  63.2423162  18.1660104 105.0915717  98.5475123  59.6279935
 105.7512950  97.9392588  59.9612025 105.4812478  99.4133818  59.7490267
  38.9996429  10.9560462  69.2962865  39.8662801  11.2118503  69.6120981
  39.1754861  10.4108068  68.5294584  70.7074881  15.7896066  47.9449987
  71.5758753  15.9358859  47.5698519  70.6560802  14.8416710  48.0674982
   5.3870526  97.5651896  77.8722862   6.3134375  97.4825632  78.0986015
   5.2740612  98.4917032  77.6600603  67.9183192   3.5953017  43.2630995
  68.2645030   4.4735118  43.4216622  68.3688827   3.2994624  42.4720887
  98.2639388   4.1391488  88.6020881  97.5053648   3.9955827  88.0362371
  98.1165961   3.5618421  89.3512464  60.7239008  31.4217353   7.8200591
  60.5014753  30.5788946   8.2155013  61.3758421  31.7988634   8.4108078
  75.0498438  57.6067829   6.0729718  74.1697931  57.9001045   6.3089889
  75.4140472  58.3293486   5.5616117  48.1124969   9.5448514  82.6892171
  48.5852523   9.7638961  81.8862513  48.6926742   9.8315116  83.3945200
  56.6411304  45.5036640   6.1362100  56.3323307  45.0980282   6.9463545
  56.5961170  46.4444113   6.3070911  71.8093967  60.9036493  17.0459163
  71.0284233  60.7138491  16.5260279  72.4772787  61.1332226  16.3997984
  41.6832495  42.1348524  18.9580512  41.4564323  42.5789642  19.7750902
  42.4331760  42.6240969  18.6197054  95.5907154  79.5941591  18.9904380
  95.1403713  78.8218689  19.3324828  95.0086689  79.9281073  18.3078504
  43.7487025   7.2047158  60.0370387  43.2726283   7.8884240  60.5083469
  44.2068477   6.7167254  60.7212905   7.6015559  74.0665996  48.1472901
   7.7329340  73.8596761  49.0725735   7.8131857  74.9975121  48.0776480
 110.0230531   0.9949657  25.9111003 109.7338680   1.7393228  26.4388684
 109.2282037   0.4822131  25.7643536  59.2417765  56.1232233   6.2289405
  58.6897850  56.3868570   5.4927135  59.2328310  56.8781376   6.8173748
   1.7828408  96.2925970  71.4570669   1.1545935  96.9127619  71.8271104
   1.2490454  95.5486548  71.1780540  38.7663646   3.0244895  67.8257469
  37.8625150   3.2903930  67.6567033  39.2801995   3.4888526  67.1650103
  57.9635572  12.1886277  30.8112502  57.4293232  11.5471554  30.3429174
  58.1011486  11.8005502  31.6753650  96.9906712  89.2249393  25.0455594
  96.6198349  89.6169090  25.8361793  96.2912083  88.6681747  24.7035313
 100.7371902  83.6013794  13.5846782 100.5000496  84.4168377  14.0262914
 100.8898163  83.8572407  12.6750243  40.1324697  11.8915530  53.6190489
  39.5286412  12.4117490  53.0889372  40.1972957  11.0555764  53.1573442
 102.1126131   2.9476472  73.1990365 102.0562533   3.9011498  73.2613889
 101.2910227   2.6858111  72.7835087  38.0139823   7.1160670  79.1697935
  38.3346648   7.9981109  79.3579439  38.8068671   6.5941497  79.0466324
  36.9606157  12.8843852  69.3343333  36.3516374  12.5586387  68.6715606
  37.7416654  12.3410340  69.2296437  29.4885722  85.6881439  59.5358089
  28.6436549  85.2439439  59.6067027  29.8596182  85.6390988  60.4168013
  72.8573179  71.9953680  21.2051797  71.9066477  72.0668411  21.1194658
  73.0148172  71.0633087  21.3558221  37.0083037  76.6368091  69.5216039
  37.0946589  75.9982216  68.8138059  37.1932307  76.1384904  70.3176645
  75.1989698  90.0906467  37.0977259  75.2895451  90.3791523  36.1895466
  75.1167774  90.9015846  37.5995851  41.4001508  10.4041787  73.9257721
  41.7083306   9.8833438  74.6673874  41.8349500  11.2504931  74.0303210
  42.1444273  92.2622490  26.8485928  41.9988346  92.9092884  26.1583877
  42.9826307  91.8578148  26.6248012  99.6447372  73.9003181  23.7456942
  99.8124981  74.8426676  23.7538385  98.7101364  73.8217545  23.9369607
  16.2955642  51.2000513  18.1084847  16.0907984  51.9889688  17.6065743
  16.0106242  50.4786444  17.5475800  92.9670128  30.0509918   4.6056386
  92.0445404  30.0950325   4.8573037  92.9710242  30.2631748   3.6722585
  13.4592593  91.3555717  73.5374928  12.8991401  92.0131588  73.9499044
  13.9339757  90.9546471  74.2655993   6.4334802   4.1831788  84.1846848
   6.2451415   3.2609185  84.3584347   6.8409734   4.5003899  84.9906349
  40.7354689  89.2323780  48.6139774  41.4885759  89.1081047  48.0363750
  40.9387398  88.7082481  49.3886995  25.5264711  88.2489109  48.0384493
  25.4925609  88.5090828  48.9589834  25.0002265  87.4504852  47.9956722
  97.5823673  81.7407703  27.3497248  98.1611284  82.1746922  26.7228460
  96.7336007  82.1656132  27.2259045 103.0309328  50.9681320  32.1394014
 102.9521587  51.3764906  33.0015326 103.2044890  51.6972399  31.5439892
   2.2318289  63.7238884  44.8805094   2.1862361  64.6571541  45.0883007
   3.1603670  63.5057163  44.9608183   5.9420496  97.8135681  36.6980338
   5.2149886  98.4100533  36.5196323   5.8839351  97.6393414  37.6374483
 107.3877039  48.2677937  53.2174158 106.8177982  49.0337658  53.2861662
 107.9862501  48.4781551  52.5006723  57.0614298  89.4830418  33.0396962
  57.9004725  89.6224785  32.6006150  56.8527135  88.5641956  32.8712130
  71.1665365  48.6906517  12.6265737  70.9436593  49.4730842  12.1222516
  70.4595652  48.6088455  13.2666799  87.9746445 101.3509655  49.7223854
  88.6553129 101.5229034  49.0717268  87.8611358 102.1858501  50.1766157
  32.2981215  83.6267662  68.5868692  32.4330139  84.0582180  67.7431345
  32.8689384  82.8589630  68.5572290   0.6575190  83.4043884  40.0726938
   1.3488145  84.0162373  40.3256321  -0.1252455  83.9488506  39.9886012
  20.8864360  32.0272263  39.4215131  21.7593126  32.1764192  39.0581131
  20.6177358  31.1825475  39.0602040  30.2363110  78.3231306  48.6300898
  30.3620076  77.5618029  49.1964912  31.1148381  78.6864805  48.5187483
 106.4142769 101.2586212  68.1508398 106.2745526 100.6683064  67.4104071
 106.5617301 102.1151447  67.7497768  90.4036435  96.1389732  64.9354124
  90.5668720  97.0649719  65.1146507  90.7339414  95.6832981  65.7096815
  66.8420466  85.5244064  71.1642838  67.4193057  85.9362411  70.5213261
  66.6928490  86.2036610  71.8219900  19.4612956  93.5893440  48.7602711
  18.9895308  92.7669048  48.8917017  19.6257865  93.9151573  49.6451569
  23.3422327  91.7400837  65.5506897  24.1212296  92.2755814  65.4002190
  23.6774564  90.9354115  65.9461021  26.2781029   0.5152520  53.4865713
  26.3829284   1.0861787  52.7254629  26.9505458   0.8093556  54.1010237
  20.7289910  61.7896891  58.5978699  20.0246692  61.6842175  59.2374325
  20.9897685  62.7072001  58.6779022  23.9474440  88.2844162  57.5020123
  24.2244053  87.4781513  57.0667458  24.5832467  88.9408684  57.2173023
  45.4211514  11.4607343  39.6258259  45.0109367  11.3372048  38.7698483
  45.1460664  10.6986150  40.1354742  43.1751578  24.5292386  21.8461752
  43.2231794  24.6863660  22.7891684  42.8196959  25.3416356  21.4857888
   8.0024046  58.5036421  80.7300186   7.2038484  58.6006355  81.2487984
   8.7004858  58.8198709  81.3035297   0.0211360  79.0645123  49.1303158
   0.4102001  78.4018087  48.5596275   0.2179118  79.8965693  48.6999798
  21.0917807  88.6551285  57.6097918  21.0079193  89.5547962  57.9256773
  22.0358539  88.5021591  57.5703096  78.8808092  81.6721916  38.5854244
  79.8110374  81.6521549  38.8101578  78.5367592  80.8421421  38.9153743
  92.7885123  82.7626705  43.7349701  91.8977114  82.4790001  43.9404821
  93.1018885  82.1233177  43.0952406 100.7154878  75.8959484  44.4969416
 100.6968351  76.8250656  44.2675495 101.5420296  75.5764389  44.1350365
  31.7074323  54.7115564  58.5838318  30.8910704  54.8069382  58.0932331
  32.2514176  54.1457558  58.0359411  14.7843945  94.3418026  37.6091218
  15.4718757  94.7509193  38.1346941  14.1620171  94.0015697  38.2518649
  75.1849942   9.1099461  63.1905413  74.8867326   9.5532903  63.9847183
  76.1124663   9.3369492  63.1234646  75.2649199  67.2697914  12.1631643
  75.3246157  67.9662216  11.5092107  75.1144228  66.4741695  11.6526910
  23.0630517 101.1365032  89.0091324  23.0340290 101.3205147  88.0702400
  22.1442938 101.0617352  89.2670631  28.9388442  78.1256866  53.4387732
  28.2881665  78.8206387  53.3392859  28.4222221  77.3321152  53.5786772
  25.9707856  82.1747398  40.4356480  26.4360666  82.9672909  40.1680470
  25.3615046  82.4714184  41.1116600  28.4579806  12.7342805  56.5811586
  27.5961147  13.1320294  56.7044830  28.7522619  13.0593594  55.7303047
  27.5620723  75.5451393  59.0983200  27.6644826  76.4052486  58.6909437
  28.1529784  75.5647755  59.8510981  39.1080415  16.4226731  62.7806473
  38.3122542  16.6399487  62.2951126  39.1866520  15.4722318  62.6986742
  95.5125948  89.9380589  22.1789861  96.3838180  90.1663017  22.5031853
  95.0745042  89.5384789  22.9304194 108.3937385  91.2204838  53.7134552
 108.6894592  90.8020401  54.5219660 107.8374337  91.9420719  54.0068197
   3.1298380  10.5581578  61.7704868   2.4603801  10.2528771  61.1582279
   3.9307408  10.6006726  61.2480164  91.6595968 103.4396935  39.8911738
  91.6007610 104.1370964  39.2381859  92.3255964 103.7442589  40.5075455
  42.4731064  69.9974918  45.5015659  42.6351070  70.5016708  44.7041988
  43.0466509  70.3948307  46.1568499   1.9392104  77.8290558  58.1964254
   1.8119325  78.3705902  57.4174690   2.8646681  77.9379988  58.4152699
  14.8134685 101.9456768  60.5672312  14.4289768 102.4400616  61.2910986
  14.3927002 101.0871601  60.6133699  98.3906158  64.0323496  28.6183906
  98.6530849  64.6857119  29.2668223  98.2354756  64.5365000  27.8196454
  90.1210030  78.3219385  61.2303257  90.7980903  78.9930630  61.1444664
  89.6526965  78.5553408  62.0318508   5.4865223  80.5603695  48.2983351
   5.0238216  80.5035114  49.1343403   4.8311925  80.8908463  47.6838779
  10.0311570   0.0177392  60.3199911   9.8318271   0.7966145  60.8394623
   9.7042517  -0.7115832  60.8467340  17.1860051  74.7731161  43.5476208
  16.3091409  74.9475813  43.8895321  17.6584053  75.5968332  43.6683035
  54.7315721  23.8177785  50.7054090  54.6120910  22.8908452  50.9121609
  54.0117829  24.2585858  51.1568737  24.0788507 100.5543804  20.9466124
  23.4539127 101.2382507  20.7057834  23.8668633  99.8217392  20.3682208
   3.6278167 100.0447750  27.3490977   3.3144909 100.5795097  26.6196370
   2.9621902 100.1527500  28.0284476  21.8172026  98.0786419  58.4683609
  22.3592496  97.2926998  58.3996868  21.9395208  98.3759308  59.3699646
  15.1452327  82.8950024  81.2262344  15.1760459  81.9476414  81.3596725
  15.5754209  83.0321121  80.3822136   5.6803781  46.4221859  46.3978958
   5.2886772  45.6060457  46.0868979   6.3708460  46.1426497  46.9990158
  21.0244489 102.8797913  50.0214148  21.3327098 103.7562370  49.7910738
  21.8153977 102.3406982  50.0239897  50.4791169  15.4751119  65.5741644
  51.1230688  14.9501141  66.0494947  50.1888447  14.9085435  64.8593378
  21.6488171  69.5600462  76.0503626  21.6931987  68.9352322  76.7741537
  21.6427851  69.0150309  75.2635002  40.9548569  71.5654707   2.8422129
  41.4587307  72.2242594   2.3643565  40.1020575  71.5545130   2.4076517
  37.1225071   4.6280679   2.5881144  36.3078462   5.0819501   2.3723541
  37.7942661   5.3086575   2.5459787  88.0387274  40.7206651  87.7001501
  88.4209994  41.4444753  88.1963412  87.3044697  40.4233666  88.2374681
  40.8744614  17.4181565  49.7472000  40.1010578  17.8728875  50.0808144
  40.7549848  17.4074944  48.7975454   8.5271698  38.6424565  69.8116207
   8.2264113  37.8984261  70.3333426   8.5352635  39.3773484  70.4248905
 108.9453285  88.3649445  35.8521700 108.3140384  88.0357742  35.2123618
 109.7062510  88.6180210  35.3295016  93.8339861  67.7299976  60.1801252
  94.3307801  67.3540783  59.4534111  93.2939597  68.4087658  59.7753048
   6.9252181  98.3955669  24.3847895   6.9125360  99.3447018  24.2613864
   7.4592781  98.2629871  25.1680112   2.0843327  90.0425434  22.2526526
   1.6119608  90.8749294  22.2678614   2.9714516  90.2653980  22.5347686
  15.2264655  47.9143953  42.5394773  15.0519431  47.0440674  42.8976727
  16.1808670  47.9874992  42.5420713  98.7800773  90.0546169  30.3027725
  98.0644318  89.4831657  30.0243425  99.5017119  89.4568729  30.4981756
  89.8846348  95.5684757  89.2519283  89.1091641  95.0097275  89.3037510
  89.6150263  96.3016701  88.6987877  59.3059187   2.0830830  52.8419924
  60.0814228   1.7148026  52.4186707  59.3234353   1.7231568  53.7287760
  62.8317642  96.2752533  47.6626205  63.7451601  96.4145279  47.4125290
  62.8410339  95.4554272  48.1566143  48.0069094   7.1905431  52.1394396
  48.0993478   8.0758675  52.4914122  47.0886378   7.1323689  51.8755722
 109.1439299  21.0788831  48.5132599 108.8198476  21.9217500  48.8307142
 108.7061648  20.9557923  47.6709747 106.0178223  93.0721664  39.4044995
 105.7393935  92.2924328  38.9241576 105.2062943  93.4414101  39.7528028
  40.4705171   5.4459199  15.2353609  39.7646822   6.0285291  15.5157113
  40.9780540   5.9667882  14.6129918  41.2975168  88.6534786  31.0060048
  42.1174383  88.2456779  30.7273293  41.2882662  88.5470486  31.9572234
  85.3186444  44.8191472  87.2312421  84.4785432  45.2679082  87.1359933
  85.9725896  45.4932424  87.0463586 109.4195502  36.4556313  49.2725611
 110.1193091  36.0497451  49.7842503 108.9201575  35.7179546  48.9223099
 103.8334652  93.1449318  41.0487747 103.4938236  93.5732651  41.8345261
 103.6322512  92.2177410  41.1754656   7.3122841  56.6072750  68.8871193
   6.4426029  56.9849491  69.0184546   7.5771219  56.3076687  69.7567892
  34.8468637  88.9070511  45.1129866  35.5228353  88.2666492  45.3347492
  34.2460489  88.8888168  45.8579206  61.7687111   2.7672490  19.5824122
  61.7499070   3.7176522  19.6947026  61.6378360   2.6343545  18.6435592
 107.5625237 104.5877934  56.2226868 107.4890252 105.1686287  55.4654169
 107.4329340 103.7096596  55.8644724  90.5200204  97.3985100  61.5636444
  90.1492938  97.6903629  60.7308102  90.3203710  98.1066418  62.1759510
  67.0078187   4.7684964  55.1396561  67.5743632   5.5017003  55.3798008
  66.3612394   4.7247037  55.8441067  45.1513910  83.7980366  46.6913891
  45.7313251  84.5547009  46.6055059  45.2705717  83.3111477  45.8759356
  97.0448836 102.5715733  37.1870589  97.3299965 103.4795761  37.2894192
  97.5318512 102.0907307  37.8562999  33.3925571   1.7636022  44.7030067
  34.1526781   2.3266801  44.5567322  33.7459697   0.8742532  44.6833754
   6.3896281  69.0142632  43.3026075   6.3213474  68.9285660  44.2535162
   6.2422061  69.9450397  43.1348085  89.5450005  68.8540924   2.9649278
  89.6693000  68.8402450   2.0159360  90.1490614  69.5284164   3.2757875
  95.8029827  95.4852009  44.1269636  96.0630461  96.0384178  43.3903742
  95.1375910  95.9965992  44.5873594  21.1551929  60.2913427  86.6968536
  20.8291602  60.0658894  87.5681210  21.8749976  60.9006453  86.8607426
  54.7168081   0.2425202  31.6913605  54.0029244  -0.1465694  31.1861730
  54.3001811   0.5517682  32.4957347  40.1177968   2.8896150  63.2352924
  39.9993827   3.3711919  64.0540075  39.7427158   3.4608373  62.5650263
 107.8896724  88.5764313  82.4555874 107.6354595  88.9526463  83.2982445
 108.2732507  87.7281094  82.6779842 109.7898369  73.5943937  18.6901903
 110.6544264  73.3201456  18.3844054 109.1799059  73.2085896  18.0614054
 109.1695879  80.2862740  52.7377939 109.1683368  80.8418751  53.5172462
 109.5765880  80.8256721  52.0598316  13.0921412  82.6313972  63.7932396
  12.4125731  83.2352161  63.4935474  13.6091709  83.1425858  64.4158030
  52.1278231  17.0059594  37.8242803  52.6069610  16.1808022  37.7482963
  51.6751544  16.9435033  38.6653638  62.9385571   5.0343236  31.7158556
  62.2230868   5.6291779  31.4911747  62.6209669   4.5562753  32.4819112
  69.5638542  16.1862859  20.9891438  69.4777160  16.4873799  20.0846219
  70.2665310  15.5369862  20.9595513  31.1333488  38.1643113  52.2827101
  31.3292740  37.4002847  52.8250313  30.3457962  37.9180726  51.7975760
  33.9645839  80.9351158  20.1170707  34.7882938  80.4926872  19.9121606
  33.2912540  80.3852940  19.7163820  17.3120558  35.5931997  22.8501582
  17.1706975  35.5324864  23.7949157  17.6672828  34.7386241  22.6057267
  46.5118027  74.3563414  41.2482166  46.8866682  73.7640667  41.9000721
  46.8576956  75.2180862  41.4805746  72.1005440  88.4510803  57.9818535
  71.4956856  87.7434158  57.7591658  71.6139507  89.2521191  57.7874613
  13.8248706  35.3265524  45.3945351  13.7345028  36.2781382  45.4450417
  13.8080525  35.1337838  44.4570971  45.6537388  21.6683206  73.4022284
  45.0983869  20.9090337  73.5791349  45.2282076  22.1103200  72.6675224
  81.4849238  24.1232308  38.7219596  81.4827828  24.1295537  37.7647829
  80.6753259  23.6716088  38.9603066  27.3088507  31.9587716  45.9315586
  27.7125995  32.2098073  45.1007748  27.2867267  32.7685460  46.4414549
  74.2101102  16.5416535  37.3048854  73.7591820  16.6359624  38.1439328
  73.8402324  15.7460126  36.9222903 101.3584801  49.5499468  45.7617378
 101.6197046  49.3234110  46.6543007 100.5638846  50.0725508  45.8700705
  51.9422118   2.1346482  33.5245228  51.3918392   1.7681416  32.8324270
  51.6983073   3.0595693  33.5599327  33.9864969  97.7336693  54.7280312
  33.3907104  97.6024246  55.4656219  34.2149734  96.8485165  54.4442511
  48.5668890  14.3192586  33.4600043  48.0620949  14.7875699  34.1249108
  49.1164260  14.9922761  33.0583906  48.7077336  42.7241906  34.4308877
  49.5531480  42.3696240  34.1555929  48.1166200  41.9714364  34.4179130
  27.1487975  64.7175264  40.1041412  26.6411543  64.2942333  39.4117856
  26.8015957  65.6085968  40.1450586  86.4687308 100.9556961  46.0840988
  86.1006173 101.4397526  46.8232918  87.2166928 100.4864693  46.4537048
  23.3851671  69.2786551  52.3925161  23.7784219  69.1313601  51.5323496
  23.8208675  70.0639343  52.7237701  17.4300468  17.0818424  55.2926874
  18.3853137  17.0916510  55.3526926  17.2034204  17.9420424  54.9392319
  11.1060500  58.5072136  10.4970336  10.1999354  58.2197523  10.3849840
  11.1472237  58.8231325  11.3996577  86.8821105  96.5864563  62.9143715
  86.9638213  96.4178085  63.8530493  87.0139106  97.5306225  62.8282928
  98.7437566  78.1890631  51.2664032  99.5235427  78.7420559  51.3150072
  99.0793785  77.2952223  51.3345528  81.7113145  19.6322632   8.5613668
  81.8565878  20.5722451   8.6688846  80.7603439  19.5424020   8.4995985
  85.7082614  68.3478355  54.0694094  86.5057119  68.7496567  53.7246752
  85.3406223  69.0095234  54.6552753   1.4739229  79.2919827  45.6362247
   1.2726413  78.6363649  46.3039684   1.6198543  78.7840271  44.8381519
   6.5317476  57.9819107   7.7508235   6.8285811  57.1107101   8.0137599
   5.6860679  57.8296375   7.3290759  26.6890669  48.8639069  20.2829146
  26.5878439  49.4758558  19.5538712  27.0813036  48.0847263  19.8888910
 102.0305070  74.6834183  36.7851758 101.1401983  74.3804932  36.9635463
 102.1572425  75.4199314  37.3832726  14.5284498  71.8336391  51.8340063
  13.8938749  72.4295473  52.2320461  14.0367317  71.3845730  51.1464119
  71.9834886  24.7899505  73.5406164  72.0167958  24.0423318  74.1374353
  71.1072106  25.1552030  73.6629227   5.3817683  81.0084248  13.1842196
   4.5082769  81.0064411  13.5756791   5.6819111  81.9130135  13.2728696
 101.4898016  52.7156067  45.1335716 101.0706683  52.6289320  44.2773914
 100.8436259  52.3749590  45.7521582 108.7706650  76.3879442  60.3169060
 107.9035356  76.4273262  59.9134588 108.6503669  75.8363247  61.0898685
 106.1756856  93.2023632  74.4261995 106.5220220  92.4005901  74.8179129
 105.8867843  93.7279713  75.1721922  12.2377801  65.2859211  16.2285149
  13.0408740  65.1605749  16.7340446  11.9576502  66.1762571  16.4407849
  94.4762179  70.0609493   8.9188612  93.5700544  70.2089691   9.1894019
  94.8126706  70.9347916   8.7202853 101.4013203  45.8957529  18.4586048
 100.9797748  45.0882673  18.7527120 101.6094609  46.3652277  19.2663825
  11.4291918  19.8914587  24.8275542  12.0731235  19.9719810  25.5311894
  10.5827439  19.9117434  25.2740383  16.0007036  49.2196560  13.5395908
  16.9287431  49.0736151  13.7230206  15.8756399  50.1595354  13.6707854
  13.1751192  15.4117715  35.4975128  13.6261559  16.2008762  35.1973248
  12.7264619  15.0815666  34.7191167   9.4482762  74.6663952  11.7052650
   8.9383733  73.8590860  11.7722046   9.1799545  75.1828623  12.4651980
   2.3651654  62.0026016  10.4808426   1.8891868  62.3252535   9.7156155
   2.8931171  61.2776041  10.1463604  87.6654681  68.4695387  16.3086474
  87.9638632  69.3790245  16.3139606  87.9210933  68.1386232  15.4476106
  86.9921120  43.6107254  62.3736906  86.9756158  42.9192257  61.7120361
  86.6786631  44.3896055  61.9139862  29.2659998  72.1193790  38.7808943
  29.3453741  71.4254904  38.1263304  30.0229740  72.6839495  38.6244464
  87.9197343  77.0939350  35.5081677  87.7472075  76.6040564  34.7041249
  88.8720831  77.0725012  35.6020117   8.5127169  80.2259350  18.1909418
   8.3696300  81.1606979  18.3392239   9.4643056  80.1338196  18.1437826
  54.7424936  70.3306341  52.1581507  54.0993881  69.8273373  52.6574802
  54.6193600  71.2336922  52.4506569  11.4102364  62.0601654  67.3583508
  11.3517022  61.1118317  67.4743938  10.5866277  62.3008442  66.9341135
  30.3843546  33.1741714  26.2397647  30.1789355  33.9955425  26.6862893
  29.7858548  32.5350952  26.6265607   2.3771062  54.5662403  17.7310562
   3.0662680  54.0052509  17.3752761   2.8464475  55.2363968  18.2278872
  80.7394032   2.4678334  32.3390269  80.4262547   1.6837796  31.8879962
  79.9436621   2.9547414  32.5533915  52.6972965  16.5097447  70.3617052
  51.8886212  16.0218307  70.2060918  52.7261952  17.1565743  69.6567205
  19.3648171  73.9366198  17.5315237  18.5780704  74.2562485  17.0898223
  19.0342748  73.3788061  18.2356644  16.6693449  72.3848295  24.8911381
  16.1129820  71.7770958  25.3783202  17.0092320  72.9838181  25.5559111
  11.8858683  69.0463495  47.7563477  12.4234641  68.8618755  46.9861603
  11.7599475  68.1926680  48.1705999  13.6277771  33.9028001  50.4928112
  13.9173806  34.1746640  49.6219206  14.2727160  34.2830372  51.0892248
  71.5708431  81.5180111  46.2043953  72.5211056  81.4639282  46.3059139
  71.4435490  82.0636177  45.4282856  96.5046950  91.2562275  26.9895458
  97.3187657  91.2613869  27.4930263  96.5097316  92.0889282  26.5175176
  15.7056749 101.0715580  82.7875710  16.4256859 101.5089607  82.3331547
  16.1350679 100.5197620  83.4413052  27.6878715  89.8448277  21.1352396
  27.8625059  90.1594067  22.0222449  28.5530305  89.6471882  20.7765365
  29.7598886  62.1707439  30.6470251  30.6621361  61.9162416  30.4536128
  29.7182727  62.1975613  31.6029453  30.3441041  98.5470211  90.0710995
  29.7062706  98.1883299  90.6881423  31.1174302  97.9929268  90.1768391
  85.1041178   3.1527539  60.3432325  85.4090861   3.0595275  61.2457493
  84.8251835   2.2720977  60.0924948  26.9403672  78.0457926  38.4293509
  26.4678168  78.8778496  38.4046674  27.3731923  78.0414009  39.2830944
  12.6758420  64.7975826   9.0419888  13.0690205  64.9975777   8.1924921
  13.3370805  65.0641823   9.6806771  89.5786580  57.1164131  29.5931506
  90.4885539  57.2292137  29.8681021  89.0820750  57.0956230  30.4112005
  96.7013057  92.8185558  21.0670757  97.5788566  93.1809902  21.1886215
  96.6329607  92.1297646  21.7282319  71.1003575  19.3607064  65.8872846
  71.5308971  18.5907861  65.5156854  71.3430915  19.3473741  66.8130997
   6.0319857   2.5011071  25.6591344   5.4913120   1.7166909  25.7518983
   6.9273262   2.1686753  25.5951881 104.1406526  88.4611130  22.9716086
 104.7916683  88.3882618  22.2736812 104.6171447  88.8525581  23.7037015
  73.2903432 104.1826260  48.7488011  72.8820013 104.9572813  48.3622864
  73.6153053 104.4816887  49.5980290 106.3750150  99.1611195  74.9194002
 105.7142570  99.4781303  75.5351353 106.1387279  98.2465935  74.7643423
  10.5247903  71.9925737  27.6061988   9.6935749  71.5950251  27.8655624
  10.6731260  72.6816320  28.2538319 110.4622482  61.1322165  31.9599414
 110.6617145  61.9164991  32.4711633 110.8237068  60.4115963  32.4759722
   9.3869597  82.1343708   6.1126220   9.9522996  82.0153999   5.3494251
   9.3019366  83.0835819   6.2020779   3.3877805  48.7174940  23.0895853
   2.6559627  49.3041706  23.2806063   4.0968305  49.0278101  23.6527777
  29.5796537  77.2057247  68.1525230  30.5007911  77.1652365  67.8954315
  29.3124270  78.1013155  67.9457760  14.5970905  43.7100983  51.9748735
  13.9957011  42.9719925  52.0736933  14.5069313  44.2033243  52.7902412
  20.2379012  66.4034128  12.7417088  20.4191041  66.5604210  13.6683941
  19.4871473  66.9640732  12.5461173  22.2699857  61.4440584  67.2360468
  22.8253984  60.6958246  67.0172071  22.8732014  62.0914793  67.6010275
 103.4646382  73.3161211  27.0969462 104.4051924  73.3188248  27.2746611
 103.1967445  72.4081469  27.2385430  16.2226987  82.4084854  43.2773685
  15.4920936  82.9950047  43.0812836  15.8558536  81.5293407  43.1837845
   8.2211763 104.9294281  78.3706141   9.1148901 105.2250862  78.1971359
   8.2876557 103.9752960  78.4085417   9.9555665  94.1436195  23.9682484
   9.5284480  94.8913002  23.5501981  10.7915509  94.4894028  24.2809725
  90.1891240  65.9172726  14.1894794  90.0498875  65.6008720  15.0820792
  89.3128904  66.1394787  13.8747168   6.4655739  78.6495447  31.5881085
   6.5769511  78.2182598  30.7408667   7.1616411  79.3060064  31.6160393
 108.9343456  90.1204109  56.5066767 109.5589577  90.7741737  56.8208170
 109.0179513  89.3933868  57.1236658   7.9521018  57.2531462  15.5112183
   8.2107753  58.1506157  15.7206702   8.3902377  57.0651197  14.6812093
  87.5531801  65.6967449  23.1038785  87.9576381  66.1081839  22.3400974
  87.9850586  64.8454094  23.1741428  96.4750823  94.4785213   3.0137691
  96.3382801  94.4375134   2.0672834  95.5958482  94.4106102   3.3860165
  71.9340635  17.3880025  89.5647188  71.9186220  16.7660352  88.8372917
  71.0692615  17.3075219  89.9670531  64.4141873  77.2422266  44.4100475
  64.1599377  76.4047194  44.0225267  63.9338120  77.2790909  45.2371597
  57.5151234   1.5804395  38.0560565  58.1676607   1.1543378  37.5003004
  58.0114775   1.8908891  38.8133502  50.9831683   5.1308545  60.3934908
  51.5160208   4.3357190  60.3864098  50.1850145   4.8884972  59.9239731
  11.4598823  52.0881557  60.5756092  12.0134079  52.8632689  60.6707144
  12.0042682  51.3653278  60.8876801  30.9293699  96.2045479  32.0125222
  30.7306433  96.6653824  32.8276110  30.1460624  96.3204765  31.4747286
  26.9205976  63.3815718  53.0632448  26.4787436  64.2072153  52.8649807
  27.1756363  63.4611082  53.9824104 110.3626776  61.1508608  13.7115014
 110.2422401  61.2505579  14.6558464 109.6149095  61.6067886  13.3252299
  10.8691525  44.0365839  60.6182575  11.7146862  44.3059206  60.2594233
  10.4248047  44.8583174  60.8269215 106.6583689  63.3309937  77.3542643
 106.5801000  64.0348721  76.7103243 106.0572042  62.6540756  77.0434380
  23.9163876  84.0368557  29.3409753  23.5651231  84.4426632  30.1335454
  23.2529426  84.2047215  28.6717272  50.5281258  94.4473362  37.6126385
  50.5623627  94.2760754  36.6715074  51.3919687  94.1896915  37.9345489
 100.8739289  89.8517990   7.7499413 100.7403608  90.0702381   6.8276203
 100.2537068  90.4088974   8.2202685  11.9656086  94.9077034  42.4093294
  12.4818969  95.3256512  41.7201281  11.1812627  95.4512596  42.4840403
  92.2722837  47.8011370  38.8921547  91.8945190  46.9544125  38.6542773
  91.8353852  48.0368996  39.7105479 107.6381095  69.8807478  23.8990307
 107.1862917  70.6310558  24.2852044 108.2012176  70.2612209  23.2249522
 102.1229728  73.7992048  22.0160747 102.5774177  74.4612312  22.5370693
 101.2239178  73.8116980  22.3443675   3.1398848  61.1936855  83.3919811
   2.4734777  61.2114096  82.7050877   2.7715611  60.6253576  84.0684223
  87.9242810  63.5749960  40.7561159  87.2003015  62.9548740  40.6693077
  88.6701664  63.0367994  41.0211229 100.5285367  55.2890062  35.7878184
 100.5923375  56.2395096  35.8811331 101.4350017  54.9961710  35.6940126
 101.5128758 100.4339695  24.0570045 101.1792847  99.5590878  24.2558265
 102.3372301 100.2770424  23.5965180 106.1283692  86.4592457  39.4548941
 106.4439472  85.7431126  40.0060749 106.4651828  86.2561512  38.5822296
  12.8860915  77.3618603  41.8083096  12.5765240  78.2667446  41.8480825
  13.6107385  77.3289537  42.4328375   6.5583563 100.5473042  35.1704526
   5.8268195 100.4790115  34.5569205   6.1441237 100.6088161  36.0311842
 104.2255654  81.6588020  28.0031800 103.4195062  81.2764072  28.3499932
 104.3307760  81.2551785  27.1416378  92.7528254  39.3848248  66.4984564
  92.2725443  40.1789018  66.7329649  92.0953432  38.6897775  66.5278152
   3.0173379  52.7648497   7.2403181   3.7037286  52.1231556   7.0577550
   3.2806298  53.1684589   8.0673659  40.7779156   7.2026547  24.3154955
  40.2627029   6.4648637  24.6417785  40.3612585   7.4376973  23.4864092
  97.3929425  76.1735678  66.6680908  97.3947211  76.5710497  67.5388575
  96.7685863  75.4511929  66.7358255   8.1854302  49.9623156  81.4337826
   8.2152456  50.1655912  82.3686790   7.2834307  50.1524782  81.1759758
  22.6680231  51.1212826  37.4934912  22.5623083  51.5371180  36.6378427
  22.8831625  50.2105427  37.2922397  41.0200290  31.6120168  69.4627074
  40.2815846  31.9795533  69.9483517  41.0439614  30.6914159  69.7237400
  97.9875179  87.1408939   8.4181869  97.7150103  86.2602615   8.1603861
  97.1728083  87.6418304   8.4575111 104.3963208  60.5748749  64.7363329
 104.8360970  60.2414942  63.9542294 104.2333927  61.4983320  64.5442200
 101.4882340  68.0120182  32.6233506 101.5474852  67.0604134  32.5386786
 100.5585345  68.1815100  32.7755451 104.9954119  79.1908693  51.2095690
 104.4811615  79.4315386  51.9801903 104.9735787  78.2340097  51.1963320
   5.8120787  84.7412586  55.6176233   6.7656863  84.6684074  55.5781698
   5.6512225  85.6549358  55.8533239  26.4781833  73.3749771  34.2628384
  27.3222613  73.5138226  33.8333225  25.9299755  74.0955400  33.9522028
   0.6197921  86.7491436  40.5091381   0.1619741  87.4342537  40.9962368
   0.2209306  86.7665005  39.6391726  91.7900845  86.4740849  27.8784943
  91.2538060  85.6981087  27.7157140  91.4099046  86.8675041  28.6639309
  56.7298651  92.4388981  34.1385937  56.1289120  91.7287922  33.9131117
  56.6617966  92.5172043  35.0901532  11.2453163  45.5765009  33.8312674
  11.9789207  44.9956036  33.6297441  10.5067301  45.2060556  33.3480573
  77.6934537  57.0566893  21.9805598  77.4938043  57.1553946  21.0496306
  76.9077333  57.3700094  22.4285603 107.2089938  12.6458570  89.6871410
 108.1391124  12.6324197  89.4614660 106.8807224  11.7935153  89.4008145
 109.6742962  47.3129797  26.3543153 109.2537915  47.8938055  25.7202411
 108.9537557  46.8078852  26.7310524  32.3953009  81.7942619  17.4632549
  32.9041362  82.2915363  18.1035960  32.0597649  82.4557209  16.8581772
  22.0472646  88.3542633  47.6933098  21.9046521  88.7840652  46.8500042
  22.2105026  87.4377918  47.4704742  19.4782793  99.5514023  76.8231813
  19.9975621  98.8262856  76.4756480  20.1051020 100.2675926  76.9251457
  25.4078953  16.7955979  23.3611298  25.4142694  17.2539147  24.2014480
  26.3204019  16.8118581  23.0725145  93.1213912  75.9022808  55.4696703
  93.0582007  75.4065037  54.6533108  92.4235626  75.5470943  56.0202217
  76.8724998  81.7573929  45.1409197  77.1571978  81.2687111  45.9131622
  76.2121233  82.3658180  45.4725170  12.7248836  48.1558418   2.2565156
  12.9034817  47.8267479   1.3755891  12.2069204  47.4650860   2.6698029
  12.8117700  10.9706756  80.6054524  11.9003625  10.7876178  80.8336238
  12.7852960  11.8297788  80.1841811  33.3992386  82.5473976  76.6109037
  33.5726666  83.4051991  76.2231827  33.7755322  82.6011276  77.4893951
  99.8821672  52.5912809  42.3272800  98.9253076  52.6042366  42.3492575
 100.1331659  53.5137653  42.2798729  15.7435811  95.9297943  16.6364312
  15.1948977  96.1738396  15.8910298  16.2364244  96.7243671  16.8413568
 103.0369230  78.1702423  21.0771871 103.3629879  77.2778368  20.9608626
 103.4003534  78.6564112  20.3370595  29.2423630  39.0775800  36.7362618
  29.4240928  39.8223901  37.3093796  28.3979988  39.2841601  36.3355088
   0.2108957  94.1304684  14.8359764   0.6718159  94.6559143  15.4899549
   0.9040035  93.6510563  14.3821013  40.1817322  43.7460327  28.4342170
  40.7398129  44.4401312  28.0835032  40.6209469  42.9343176  28.1803656
 111.0129374  44.1656065  55.8352566 111.8071603  44.0102959  55.3240585
 110.3760085  44.4862938  55.1967335  96.4395376  66.0025787  35.4446030
  96.7825934  66.8961048  35.4571486  95.4924341  66.1083651  35.5342484
  99.9390658  80.5239391  39.9113083  99.0939661  80.7878304  39.5474410
 100.0145241  79.5951366  39.6925211  19.7107589  47.6520443  15.5273807
  19.9407709  46.7310047  15.4048538  19.4419897  47.7118826  16.4441216
 109.8445176  44.0269661  25.2227259 110.7161260  44.3986940  25.0872755
 109.2454792  44.6892118  24.8780322  35.0515485  73.8065624  17.5642979
  34.6346211  73.3732510  16.8195546  35.9189510  74.0529823  17.2431684
  15.9226620  98.3413315   1.5641290  16.1541498  97.9385757   0.7272110
  15.2195489  98.9540863   1.3487084  23.4469771  78.2139921  71.0372591
  23.8898039  78.9169359  70.5618620  22.8709126  77.8112984  70.3874731
  23.0746293 103.0488205  20.5075622  22.7401853 103.8381100  20.0816512
  23.9765668 103.2671547  20.7422280  88.6025008  77.7935457  12.0560730
  88.7616690  76.8921423  11.7761397  88.2857855  77.7125740  12.9557216
  81.6477665  52.6303005  20.2692986  80.7644876  52.9988194  20.2848887
  82.1793016  53.3003616  19.8395133  86.1838325  89.6719646  66.6531801
  85.7048305  90.0331020  65.9072781  86.1347326  88.7236118  66.5329170
  10.5924428  65.5905151  23.0466294  10.9871519  64.7452116  22.8324008
   9.9419564  65.7322931  22.3588800 106.6957482  79.3414450  54.4980192
 107.4048405  79.5432806  55.1084948 107.0580336  79.5425892  53.6351633
  46.9035721 104.3513489  12.3802209  46.0286188 104.3269634  11.9927967
  47.4981308 104.3352795  11.6302419  25.0348282  71.6769028  52.9817200
  25.1688957  71.4414597  53.8997698  24.5964789  72.5272179  53.0140781
  12.3615420  73.1296301  40.6763172  13.1898606  73.4933233  40.9891176
  12.6170254  72.4844933  40.0169563   4.3914732  78.4576225  59.5503139
   5.1528943  78.7851000  59.0715361   3.9008513  79.2446423  59.7872162
  15.8955312 104.4665241  43.8376808  15.6994605 105.1576328  44.4702625
  15.3455472 104.6709824  43.0814123  43.6943065  17.9322251  59.1067934
  42.7659021  17.9112252  59.3388605  43.7077563  17.7920350  58.1600094
   8.6531037  79.5386696  43.8129997   8.4063560  80.3786087  43.4258795
   9.0250099  79.0397596  43.0856705  51.4557648 101.1700726  69.9902248
  51.6046000 101.0892487  69.0481281  50.5049658 101.1181545  70.0878191
  35.1276347  11.6889485  24.1610408  34.2880137  11.2988385  23.9179683
  35.0580493  12.6013764  23.8802195  15.8541417  34.0117240  27.9507565
  15.3392148  33.8156128  27.1680546  15.4660511  33.4669566  28.6354780
  33.5726857  63.9244270  55.0599432  34.4663835  64.0803385  55.3652763
  33.6355472  63.9626598  54.1055775  57.6888566  14.8487958  41.0155296
  57.0047419  14.2641553  41.3417387  57.2148447  15.6142434  40.6904936
  37.7416968  76.6860247  25.6828952  36.8319702  76.4604473  25.8771682
  37.7494025  77.6426125  25.6496024  45.3158555  21.9496286  14.8637983
  45.3677830  21.0071361  15.0226804  46.1982784  22.1945465  14.5852777
  47.0734607  18.1288537  12.9862595  47.5066464  17.9900845  13.8284743
  46.1393248  18.1323537  13.1950891   8.9034194  79.7130489  60.1350927
   8.0043125  79.9066973  59.8698807   9.4383442  79.9982595  59.3943214
  59.3306828  94.3589211  23.3411646  58.5276890  94.5077610  22.8418899
  59.0411091  93.8985348  24.1288376  25.5950284 100.5964375  61.5988779
  26.4476299 100.2811623  61.2990379  25.0480461  99.8116779  61.6332912
  44.3486071  80.7954502  51.5313673  44.7278690  80.8903599  50.6576490
  43.4753275  81.1801815  51.4564848  40.8561485  32.4037942  26.4927745
  40.0445406  31.9252118  26.3240147  40.5687793  33.2449159  26.8479753
  60.8132057  22.4133595  34.7765470  60.0788693  22.0285806  34.2980909
  60.6770758  22.1406945  35.6839347   9.5372975  94.8833752  19.0267920
  10.1658189  95.6052780  19.0341818   8.9072704  95.1212978  18.3465767
  23.4511423  94.0928555  31.4504266  22.5727797  94.4331932  31.6203690
  23.5700750  94.1975403  30.5064321   6.8660736  89.2518044  40.0820637
   6.5677792  89.4402409  39.1922641   7.7678061  88.9496231  39.9734282
  64.1533518  60.2622795   4.2654806  64.1247416  59.4227409   3.8065788
  63.4011555  60.7468557   3.9254597  21.2628460  46.6344213  27.6835608
  20.3603244  46.6449118  27.3648500  21.2021232  46.9499016  28.5852337
   5.7015222 100.5432034  55.5621338   5.9607273 100.2608871  54.6850109
   4.8381642 100.1516056  55.6944132   0.2870134 103.4161186  17.7318645
   0.0610285 103.5004425  18.6581755   0.7371560 102.5735760  17.6708829
  35.8044589   3.9226922  38.3072233  35.9748094   3.9944848  37.3680425
  36.3874821   4.5684060  38.7064409 109.2202384  73.6930418  50.3770447
 108.4014907  73.2438469  50.1670218 109.6954697  73.7254143  49.5467806
 104.8882421  77.8262854  38.6140871 104.5384070  76.9723606  38.8683605
 104.5934995  77.9467201  37.7113938  24.4878721  56.4202356  74.1178417
  25.4425216  56.4537144  74.1791439  24.2564917  57.1711397  73.5711813
  77.2005420  12.2973927  25.7960558  77.6201348  12.6660737  25.0187206
  77.9081445  12.2193822  26.4359379  95.0739606  69.8601341  73.2704639
  94.6308681  70.6755543  73.5049629  94.3672892  69.2207384  73.1808805
  17.4144328  86.7152786  60.0105429  17.2583866  87.6488304  59.8678112
  16.5537000  86.3596249  60.2316427  37.3388449   5.7544907  30.7599306
  38.1718859   5.5765733  30.3233290  36.6837913   5.6785687  30.0661182
  98.4709092  86.6495895   1.9124067  99.3297776  86.9846058   2.1699753
  98.2271024  87.1757793   1.1508860  77.1735009  78.5220480  22.9615593
  78.1174239  78.4513283  23.1038284  76.9341167  77.7015924  22.5305343
   7.9939091  68.7544250  31.1365414   8.9157999  68.5128927  31.0470414
   7.6451463  68.1349421  31.7775059  37.2294245   6.3785561  33.3857656
  37.2392087   6.0338792  32.4928331  36.7390533   7.1980390  33.3208132
  16.5900886  93.9499283   7.4823916  15.7712138  93.4698200   7.6055831
  16.6053426  94.1619492   6.5490943   8.8100463  85.7542706  58.6066914
   8.4543443  84.8704052  58.6988735   9.2824143  85.7367420  57.7743483
  23.9085822  17.9534444  34.2401934  24.0309434  17.8023824  33.3029413
  23.1313603  18.5095891  34.2936969  30.3790951  94.4127750  43.9653683
  29.6618438  94.4549370  43.3329105  30.5790472  95.3279495  44.1621161
  32.3329449  77.2373819  76.6454124  32.2196674  76.3023615  76.8161201
  32.8120327  77.2733831  75.8175182  27.1929728  16.4182958  19.7203219
  26.6161816  17.1560010  19.9186385  27.8800146  16.4659795  20.3851008
  78.1521305  75.2706003  11.8252778  77.8284820  74.4986820  11.3609195
  77.8691920  75.1416397  12.7305663  47.1876717  82.4605083  26.6997910
  48.0968523  82.7010250  26.5215373  47.2352695  81.9029236  27.4763608
  26.3989067  79.3829966  52.1828270  26.1367893  78.5293722  52.5275755
  26.8440080  79.1823816  51.3594961  98.8637062  72.0794678  12.3879993
  99.4801959  71.5823174  11.8503988  99.3811437  72.8054714  12.7364409
  28.4135890  83.0420113  36.4640617  29.1291785  82.7346897  37.0205808
  28.6260700  83.9579296  36.2846947  55.8025937   7.8741845  28.9044356
  55.3346484   8.1323728  28.1103349  55.5598550   6.9579991  29.0382957
  19.9798083  92.0070648  45.7933569  19.9009621  91.6899967  44.8936462
  20.3939295  92.8659344  45.7092094  23.7747025  88.6852264  16.5989625
  24.1471004  88.3698654  17.4224281  23.9615774  89.6240044  16.5955710
 100.6684478  83.8482666  39.4015622 100.9795710  82.9581356  39.2369199
  99.7242638  83.7526989  39.5265126 106.7455830 102.4803829  30.1888013
 106.9890969 103.1312180  30.8470845 106.8028452 101.6423988  30.6478620
  53.7911801  29.3975648  24.3136644  53.8404183  29.7867211  25.1867962
  52.9017668  29.0483483  24.2568970  19.9049950  69.7286797  38.1470180
  20.0666523  70.5412006  37.6675272  19.0467417  69.8558617  38.5513163
  36.8956304 102.0645905  24.1577673  36.4667892 102.4600220  23.3988428
  36.8069696 101.1217117  24.0186787  33.1927037  83.4820080  19.5819080
  32.4658871  83.6292076  20.1871371  33.6630511  82.7339458  19.9498808
 102.2021512  37.4065133  62.9023150 103.0839685  37.7629491  63.0099467
 101.7798499  37.9965898  62.2780517  20.1518583  67.4100256  19.4269800
  20.8419037  66.7940092  19.6731412  20.6201982  68.2049608  19.1720915
  48.5004871   4.3627843  58.9955235  47.6763027   4.4389924  58.5147524
  48.6108713   3.4221181  59.1340542  28.7892376   3.5343179  38.1809402
  28.9936035   4.4562062  38.0241179  27.8969483   3.4273728  37.8513718
  43.2959227  10.5666551  26.8451667  44.1860078  10.6131467  27.1941924
  43.4139107  10.4727944  25.8999157 110.5705354  63.6191416   4.6976572
 111.1132656  62.9576302   5.1266980 110.4575486  64.3019056   5.3589427
  89.9071535  91.9775581  52.4334049  90.1327427  91.1869907  51.9431496
  90.4644712  91.9444275  53.2109213  75.0991117  16.5649291  86.5851772
  74.8954814  16.0878821  87.3896620  76.0499474  16.6733047  86.6051373
  30.3729820  76.3425255  28.0760479  29.9741936  76.8080807  27.3408890
  29.6316719  76.0648489  28.6141801  21.2204075  88.2242012  18.6111581
  21.9795156  88.3045387  18.0336344  21.4989781  88.6321545  19.4310391
   3.4920320  71.0228109  21.7872357   3.8956413  70.2850103  22.2443843
   2.5813240  71.0179186  22.0818853  28.0510365   3.2758149  16.2928867
  28.5268568   2.7883920  15.6204009  28.1054430   4.1888150  16.0105443
  36.0719275  69.4990778   1.7333971  35.5179644  69.3507242   2.4997838
  36.1884618  70.4486513   1.7022972  52.3832273  93.0666637  19.6278703
  51.5692902  92.7106094  19.2715442  52.3286152  92.8946400  20.5679011
   9.2305946  84.9873257   7.1533209   9.0326279  85.8729649   7.4577546
   9.9135119  85.1079082   6.4935362   2.1653058  77.2733974  18.1420064
   1.6028734  77.8776693  17.6574862   3.0381989  77.4116516  17.7743435
  89.8773535  77.1880722  22.6550174  89.5262083  76.7940283  23.4535503
  89.1994580  77.8021193  22.3728251 105.0406126  27.9789086  85.2387718
 104.6815661  27.4495765  84.5266453 105.0630406  27.3861476  85.9900114
  39.1028142  60.5174160  59.2914724  39.8262095  60.9458447  59.7490597
  38.8743663  61.1220789  58.5854816  83.6322578 100.3258228  46.3331270
  83.6986693 100.3275585  47.2880173  84.5291217 100.4680443  46.0304022
 109.6350095  66.4427137  26.3390160 109.3382245  66.0564566  25.5150270
 110.1110582  67.2305489  26.0764766 110.8175872  94.5651722  23.7768555
 110.2593530  94.7191238  24.5390272 110.2248462  94.6326065  23.0282950
  17.4427533  82.7291298  21.6305232  17.1552527  82.5038052  20.7457590
  16.6468000  83.0234146  22.0733404  86.6780190   9.9023160  16.0562360
  85.8461337   9.4432935  16.1724412  86.4432149  10.8301934  16.0676408
  97.0792039  74.7804832  27.3311520  96.3543340  74.9930286  26.7432594
  96.8178459  75.1470041  28.1758904  56.8310193  40.7377835  76.9907347
  57.4273983  40.9733029  76.2800327  56.8519727  39.7810956  77.0138661
 103.0779573  49.6960592  38.8381886 102.3856034  49.9701262  38.2367182
 102.7716913  49.9776936  39.7002292  96.0509821  70.7248735  25.2847028
  95.1431640  70.5144978  25.5034256  96.3995298  71.1340475  26.0767412
  23.4015059  67.4547291  60.0715017  23.4822392  67.8635740  60.9332228
  22.4612379  67.3142147  59.9602127   4.6469733  97.6360607  33.2374048
   4.5730796  96.8747616  32.6619053   5.4937088  97.5276661  33.6704421
  14.3329108  89.9882698  89.3995380  14.4485152  90.8067322  89.8822308
  13.6379921  90.1780510  88.7692165  88.2835110 102.2889709  37.6443028
  87.8776153 101.5812302  37.1437073  88.6668857 102.8624249  36.9806767
  42.1522665  98.6551476  69.3294334  41.6523886  97.8918266  69.0401316
  41.5288544  99.1692924  69.8425055  22.7962852  79.0596485  37.4825740
  22.9327345  78.1183243  37.3752308  22.1441936  79.1291666  38.1798339
   0.8608475  99.6381092  19.7262013   0.4716321  98.7640667  19.6981692
   0.1878687 100.2118397  19.3599081  99.9552413  68.7706614  10.8150601
  99.7141358  69.1696405   9.9790466 100.4985412  69.4297314  11.2471342
  14.3497145  77.5847244  67.7029514  15.1706052  77.2378874  67.3535585
  13.6877346  76.9463015  67.4375629  29.1937399  78.8361359  34.2160082
  28.3339715  79.1087437  33.8955188  29.3958664  78.0451441  33.7163019
  95.9849814  38.4780904  90.2810252  96.1379579  37.5352021  90.3426545
  96.5413336  38.7641545  89.5565443  23.4679699  53.1733513  29.2552590
  23.6847591  53.6227226  28.4383726  23.5497022  52.2429371  29.0457797
 103.9297023  61.1041737  83.3155155 104.1407355  61.9600010  82.9423523
 102.9733833  61.0886812  83.3535385   9.1054195  65.6900549  48.5735750
   9.1946054  66.2518358  49.3434334   9.3629414  66.2474155  47.8392315
 101.2890390  21.1290046  84.3332115 100.7294515  21.8900653  84.1786770
 101.6721610  20.9357282  83.4775857  -0.0881929  48.9976597  42.1645641
   0.6421566  48.3883905  42.0568085   0.2832826  49.8555851  41.9591236
 103.5875013  89.5486641  32.1888304 102.7054080  89.8143864  32.4487090
 103.4791239  88.6616707  31.8457055  43.4467350  33.2567891  25.0337720
  42.8209292  33.9451989  24.8086095  43.0091523  32.7496060  25.7175231
   5.2821636  89.7854519  27.6967978   5.7897675  89.1031551  27.2574234
   4.6927568  89.3073368  28.2800984  50.5823088  73.1814766  37.6422286
  50.2352571  72.9094410  36.7926550  51.5303040  73.0797768  37.5573897
  63.3787251  95.2875710  38.9772248  63.6326694  95.7315922  39.7862864
  62.5055361  95.6273460  38.7814569  49.7852802  90.3994751  65.4488802
  48.8881922  90.7318783  65.4799509  49.7755098  89.7490406  64.7466946
  23.8870049  97.8332233  19.7947383  24.0336227  97.1634674  20.4626870
  22.9796624  97.7022934  19.5193863  72.4404951  35.9906407  89.4815194
  72.2792668  36.2827798  88.5843623  72.6354652  36.7942067  89.9636901
  25.2799106  94.5704269  27.2740841  25.3586197  95.2769852  26.6331387
  24.4243026  94.7095299  27.6800585 106.3399857  73.1744766  49.8545074
 105.8459743  72.7569151  49.1489410 106.4620467  74.0769815  49.5598698
  15.8200479  73.6676121  49.0192842  14.9210155  73.3508873  48.9317799
  15.9686613  74.1877842  48.2296228  16.9436038  83.0675316  13.6468911
  16.6070139  82.1724319  13.6051607  17.3921132  83.1939793  12.8107810
   3.2197779  81.3665867  46.8540192   2.8407601  82.2422504  46.9301891
   2.6178819  80.8942890  46.2787914  59.4903211   9.8083409  43.3583021
  59.1654067   8.9115342  43.4383774  59.0532355  10.1527985  42.5794983
   9.1135305  98.1277466   2.6948458   8.2304829  98.2402229   2.3429842
   9.4615626  97.3669529   2.2297698  40.0904846 103.1935692  52.3166943
  40.2846193 102.5615406  53.0088615  40.0494719 102.6684189  51.5174627
  24.4947188  17.1814069  68.9501858  23.8534157  17.6180943  68.3895969
  24.3582992  17.5670060  69.8155928  56.4136736   0.7769784  42.3686266
  56.1185317   1.5643128  42.8260374  57.2275882   1.0403737  41.9392109
  83.2049184   7.8662785  12.5905597  82.4769311   7.9282578  11.9721508
  83.7935452   7.2183045  12.2034156  18.5036266  56.9794941  12.0951343
  18.0801904  57.2281075  12.9167950  17.7966285  56.9857168  11.4498854
  30.4384868  19.0616044  36.2046099  30.0222723  18.2417592  36.4707851
  30.7978509  18.8770684  35.3368354   8.4660810  75.2590084  42.2472906
   7.9119098  76.0262585  42.1042728   8.8995832  75.1164722  41.4058685
  68.4797499  32.7013036  89.4608771  68.5698233  33.5866185  89.1082557
  68.6192820  32.1279546  88.7071971   3.3387339 100.8382416  53.1737757
   2.8381920 100.0362492  53.0237627   3.7111777 100.7280159  54.0486288
  15.1633465  85.3257275  16.9296992  15.9308279  84.7959232  16.7140317
  14.6067357  85.2682686  16.1530948  24.4373441  97.8577328  60.5879974
  24.0133667  97.2766685  59.9564552  23.7241387  98.3907032  60.9394455
  92.3673912  78.7413216  58.7056255  91.6801365  79.0408993  58.1105089
  92.5307866  79.4900942  59.2790985 103.2003685  72.4044228   6.7279315
 103.1883623  71.5263462   6.3470531 103.0717673  72.2605944   7.6654851
  29.5619559  76.0437727   3.9141932  28.9270854  76.5777159   3.4366193
  29.1072869  75.2167559   4.0740365  94.6069678  47.8624725  26.7531157
  94.3236288  48.4644508  26.0649490  94.4538482  48.3409643  27.5678706
  56.0613298  75.3395081  13.7362599  56.9617319  75.0592756  13.5720062
  55.6505489  74.5876169  14.1630471  14.1069591  99.8383331  16.9496357
  13.9624906  98.9068031  16.7834795  14.0288115  99.9271393  17.8994977
   8.0473733  88.6288548  51.3979959   8.6205554  87.9415894  51.7376518
   7.5238198  88.1933594  50.7253408  61.2926273   7.6965245  39.3134069
  61.8332724   8.0596074  40.0149107  60.7429128   8.4277829  39.0317822
  20.1854682  70.3552437  23.4966516  19.6660435  70.3135777  22.6937246
  20.9652495  70.8534956  23.2518792  12.5558937  57.9268169  43.6509466
  11.6928613  58.1975651  43.3377314  13.1723547  58.3765650  43.0730724
  82.4215468  33.3587313  36.3959718  82.7581056  34.1943240  36.7196178
  82.1663173  33.5377002  35.4909539  35.0275731  54.3794060  14.9863517
  35.6104589  54.6430635  14.2743421  34.2535734  54.0294504  14.5451176
  64.8116236  20.4831513  47.6848841  65.5909662  19.9418839  47.8109217
  64.5574312  20.7466611  48.5692930  34.5007192  24.1246518  22.2274899
  35.3321283  24.5920381  22.1466112  33.8489838  24.8147973  22.3506927
 111.0661448  96.5555477  32.8809571 110.9278344  96.3054371  33.7944937
 111.4150960  97.4457073  32.9265356  90.5356630  76.6402149  31.4257312
  91.4161869  76.9568825  31.2241507  90.5522545  75.7147837  31.1817479
  29.1608310  82.0717621  33.5434937  28.9655972  82.1823502  34.4740224
  29.6123767  82.8786469  33.2959580 108.8354599  88.4699726  63.3068466
 108.1372961  87.9094410  63.6453676 108.7328240  88.4325218  62.3559046
   5.2429169  94.5035267  24.6620131   5.2181166  93.5486603  24.6000075
   5.8091766  94.6801281  25.4132748  25.6985259  87.2833824  15.0624919
  25.3950429  88.0880833  15.4827154  26.5967488  87.1741772  15.3747439
  26.9480300  87.8280449  27.0342994  26.2823534  88.2713318  26.5083623
  26.5833259  87.8130436  27.9191709  30.4323339  88.3310032  34.8842812
  29.8862028  88.5158825  35.6483436  31.1493969  88.9622593  34.9440169
   6.1113005   6.0700711  48.8593197   6.8011122   6.3814553  48.2732916
   6.1796145   5.1159676  48.8239765  29.0159941  93.3457565  54.0291214
  29.5856833  93.9820004  53.5968351  29.5979834  92.6222038  54.2614985
   7.2624367  78.0548859  62.8168297   7.7734739  78.0234814  62.0080709
   7.4439716  77.2195148  63.2474470  99.9339160  78.1847954  54.8858929
  99.0124055  78.4146023  55.0052214 100.1537748  78.5201263  54.0167284
  13.8731670  72.2418261  34.3620229  14.5531678  72.4849844  33.7337685
  14.3075490  71.6362619  34.9627209   8.3269298  86.6501808  31.5561295
   7.4877882  86.7911339  31.9945431   8.3445024  87.3035240  30.8567905
  24.2972493  87.9754734  21.5929866  25.0082469  87.4884033  22.0094943
  24.0419316  88.6296749  22.2434211  98.4400757  32.6140976  59.3376446
  98.1144615  32.6399350  60.2373886  98.9886697  31.8304300  59.3038750
  36.9966674  83.5792542  65.0432348  36.4120173  82.9622555  65.4833746
  36.4291549  84.0571594  64.4384480  56.9238334  33.2485589  13.1908083
  57.3087077  34.0844163  12.9272795  57.2785549  32.6144704  12.5676429
  26.0339713  83.2141685  10.5650532  26.6283178  82.8598499  11.2264466
  26.5449715  83.8916206  10.1221442  31.6326571  82.0442772   5.9065992
  30.7085776  82.2673512   5.7945877  32.0752525  82.4861050   5.1819444
  14.4399261 102.1632385   4.2555541  14.2665303 103.0049324   3.8340074
  14.3060625 101.5163517   3.5628387  24.2482591  98.4431839  37.4596357
  25.0700760  98.1555653  37.8572798  23.7063384  98.7156105  38.2001352
  94.4633487   1.9941541  75.5710212  94.7831587   2.4529477  76.3478509
  94.5416168   2.6355811  74.8648504  43.5871363  87.5514507  64.2385960
  43.5588980  88.3475780  63.7079239  44.1485310  87.7776814  64.9801397
  25.2544808 103.6267090   3.1796384  25.4106736 104.4762707   2.7672228
  25.8429265 103.6151123   3.9345083  29.8352051 104.3480682  12.8358245
  29.1940212 105.0581932  12.8648818  29.4333410 103.6416721  13.3415365
  42.0110221  17.1797666   6.4295822  42.9119437  16.9485864   6.2034649
  41.8662690  16.7721566   7.2834742  67.0259628  63.8426896  72.2533075
  67.5694523  63.9597341  71.4741079  66.3137535  63.2718297  71.9650212
  20.6764102 104.8223686  34.5150232  20.7457447 105.5908203  33.9485431
  20.4548383 104.1057110  33.9204311  78.6461300  39.5897027  88.4696365
  78.0448852  39.0813275  87.9253123  78.8039163  40.3901216  87.9689736
  24.5173144  76.1660242  42.1678638  23.8613367  75.9119701  41.5187216
  25.3553653  75.9515619  41.7580938  21.7393923  67.0659733  51.9346142
  21.2390995  67.5739622  51.2959528  22.4274588  67.6626492  52.2291899
  21.4111757  75.5408287  26.8101907  20.7983184  75.7728052  27.5079155
  21.6376090  76.3767719  26.4025664  45.2959013  73.5670185   2.5772536
  45.6318188  73.0459642   3.3065635  45.9420395  73.4489965   1.8809718
  12.1251428  81.0943413  34.3443251  11.5145016  81.7958546  34.1180062
  12.7883279  81.5200806  34.8876143   7.0432055  83.6923504   2.9930118
   7.5690460  84.3448544   3.4555653   6.5502298  84.1969204   2.3460093
  13.4103572  74.0376377  14.7399235  13.6097658  73.2625866  14.2147899
  13.7102020  73.8136673  15.6209230 100.7064947  92.2250557  26.1187267
 101.0355409  91.4419460  25.6774783 101.1114677  92.1994972  26.9856596
 111.0767859  78.5974884  53.4094286 110.4865118  79.3380594  53.2702732
 110.4979736  77.8684902  53.6325169  47.1944857  72.8690481  10.6242740
  46.3484287  72.6214409  10.9972477  47.8208685  72.2728634  11.0346878
  35.5968881  84.9899197  68.5297155  36.3247228  84.8152637  67.9330730
  35.5168462  84.1906452  69.0502930  22.0037866  68.9274073  14.9865270
  21.2963462  69.4355202  15.3834891  22.4064398  68.4633684  15.7205379
   1.6856319  92.4693489  81.7513180   2.0967892  93.3083725  81.5434361
   0.8059348  92.7009773  82.0491600  10.9957671  41.8335199  31.5074825
  11.6184628  42.5441027  31.6609573  11.4743221  41.0398293  31.7467928
   9.6662110  73.0545664  63.2587385   9.5615166  73.5458183  62.4439144
   9.3730026  73.6579275  63.9415407 104.2724039 104.7224903  40.0085163
 104.3817731 103.9737034  40.5946779 105.1029327 104.7802067  39.5361590
  25.0924897 104.7328091  49.0531874  24.8294449 105.5121613  49.5427227
  25.0973916 104.0312672  49.7043705  91.9570168  58.1802511  27.0137143
  91.3493200  58.7687063  27.4616599  92.0562013  57.4386358  27.6107073
  21.5083480  88.9699841  45.0169706  21.0954833  89.7755718  44.7058344
  21.1144996  88.2782364  44.4853735  27.8506041  59.7025251  13.3682525
  27.7905679  58.7881422  13.6449027  28.7874961  59.8540735  13.2437634
  61.2788296  67.9969883  21.4644146  62.0119286  68.2441616  20.9007597
  60.5206013  67.9862595  20.8802843  30.0674248  90.8779335  22.2976494
  30.3168225  90.3969002  21.5085745  30.8614898  91.3475609  22.5528741
  13.7871993  99.1103077  58.2740164  12.9698849  99.5686626  58.0787277
  13.9590764  99.3087864  59.1945028  29.2182541  94.3178177  46.5446377
  29.5475364  94.3044758  45.6459570  28.2959580  94.0742493  46.4654255
  40.2466869  88.8247776   6.7376614  39.7092104  88.9912128   7.5120330
  41.1477709  88.9161587   7.0473856   4.5199093 100.9207916  47.6581526
   5.1237363 100.2338886  47.3756790   4.0414962 100.5327225  48.3907843
  12.7285326  48.8314199  14.5757818  13.3484006  48.9088249  15.3010428
  12.8567243  49.6306133  14.0648139  85.5425318  68.2824087   4.7176883
  85.6787475  67.6835585   5.4518926  84.8086318  68.8329649   4.9906498
  23.6563420  87.9349709  43.5574484  23.8641047  87.0818043  43.9384794
  23.0989242  88.3592701  44.2097378  11.3751245  88.0078030  30.4195547
  11.2496960  88.9564323  30.3948832  10.5921388  87.6516819  29.9996257
 105.8002993  59.0988731  55.9309244 105.5852660  58.2194042  55.6202316
 106.3967221  58.9542246  56.6654921  38.8238239 102.6984119  18.2116139
  37.9419184 102.8837395  18.5343027  38.7486768 101.8441391  17.7863955
  18.8309360  66.0433722  36.1387134  19.7224689  65.7914209  36.3793826
  18.8792503  66.2283611  35.2008009  54.3581347  24.4704350   8.1467229
  53.4473007  24.1769608   8.1246060  54.3876915  25.1060208   8.8618374
  82.9983810 103.9533540  87.7561492  82.1277497 104.0453073  88.1431619
  82.9847345 104.5338174  86.9951544   0.4081063  53.1845808  28.5169220
   0.6044987  52.2623014  28.6814404  -0.3559019  53.1676531  27.9405212
  22.3324680  98.9385414  69.7908115  21.6801429  99.6384621  69.8194647
  22.1025896  98.4285355  69.0141010  35.7354394  19.7739705  51.7952061
  36.1105321  20.6226548  51.5601301  35.8008354  19.2532071  50.9947300
  79.5153193  13.1248864  34.1247272  79.6835046  12.9448804  33.1997728
  79.2987971  12.2710809  34.4993854   5.6879002  89.4691563  20.0617909
   5.9880501  89.9513817  20.8322430   6.1992836  89.8314095  19.3382645
  56.7522793  29.6762570  27.5494576  57.0734899  28.8271436  27.8528690
  57.2130232  29.8255357  26.7238259  25.2760148  81.8556786  51.2815380
  25.8442783  81.1025906  51.4433050  24.5640874  81.7587566  51.9139910
  67.6995687  36.5091332  30.7769752  67.0930962  36.9531545  30.1842928
  67.3731141  36.7158612  31.6527152 103.4116820  28.5540029  87.3867691
 104.1105751  28.9025422  87.9402108 103.7681917  28.5907193  86.4991966
  30.5407047  82.8874874  38.4730363  30.5068064  83.0009270  39.4228864
  31.1602473  82.1701717  38.3394456  28.6022401 100.0959110  30.8404708
  29.2593718 100.2192688  31.5254498  28.8574696 100.7084274  30.1506114
   5.4319578 102.8169155  45.7319117   5.2165848 102.4606609  46.5938425
   6.3157117 103.1704903  45.8328915  13.3198094  98.9214325  23.1338000
  14.0587652  98.3810997  22.8541255  12.5459945  98.4311676  22.8561497
  28.3440185  94.0629196   6.9656056  29.0917468  93.5209656   6.7137694
  28.6675191  94.9615860   6.9025344  22.6041651  87.5303364  30.2200508
  22.3981333  87.9590797  29.3894148  22.6818180  88.2488632  30.8476806
  57.5355487  29.0541562  53.1734514  57.6274757  28.5549077  53.9849472
  58.3293180  29.5872411  53.1289864   7.3983093  16.7539510  37.7429867
   7.5098225  15.8034715  37.7233624   7.1704956  16.9496640  38.6518478
  10.1930153 103.0350876  48.0451870  10.3551817 102.1884155  48.4612274
  10.1775157 103.6593723  48.7706280  85.6403975  23.1383618  26.0205531
  84.8456721  23.6399754  26.2022901  85.3419738  22.2309979  25.9584761
  45.9345150  61.7190647  13.1306326  45.3253078  61.6812372  12.3932970
  46.5688562  62.3917437  12.8829432  42.1604395  83.8214207  23.9459014
  41.7986774  83.3896637  23.1719828  43.0720901  83.5314083  23.9777827
  50.1704209  28.6154756  22.2851181  50.3919236  29.2418393  22.9742050
  51.0159473  28.2886609  21.9776917  61.5466552  20.2274999  55.0993395
  60.6381039  20.4963311  54.9633360  61.8233924  19.8808392  54.2511225
  54.2837410   9.0819081  10.5124831  53.3925931   8.7403211  10.4389405
  54.2457657   9.6939000  11.2475061  22.9638076  89.1692066  10.2102995
  23.2752395  89.9631786   9.7757375  23.4055400  89.1719627  11.0594749
  12.2683191 103.2089520  27.5853324  11.6284060 102.9559898  26.9199347
  11.8939865 103.9899349  27.9929733  54.6940760  12.8243073  34.9846697
  55.5712204  12.4807176  35.1543522  54.5843141  12.7434548  34.0372276
  37.6981103   9.1296586  33.9410090  38.3503698   9.7123631  33.5521054
  36.9978359   9.7139844  34.2315412  62.9064898   1.1805829   9.5551562
  63.0443530   0.9987077  10.4847515  63.0936746   0.3497514   9.1182178
   1.0650729  90.2426720  48.9330816   0.8913782  90.4404163  48.0127764
   1.9982260  90.4241085  49.0450573  52.8904955  45.6899461  30.0968170
  53.2163684  46.2333497  30.8142805  51.9394128  45.7921609  30.1318455
  31.9667125  97.3361492  36.0070539  31.2303209  97.5993729  35.4550815
  32.5958300  96.9488716  35.3984070  30.1898126   9.1923341   0.5792126
  30.5499898   9.0111932   1.4473668  29.4338821   8.6095723   0.5071572
  62.3305182  22.3010262  40.9933519  62.0400886  22.7790078  41.7701483
  61.5237861  22.1064290  40.5163288  52.7771378  90.7511139  26.4223385
  53.4460831  91.4266968  26.3112807  52.2325611  90.8221149  25.6383538
  17.7191186  83.9382458  10.5418694  17.1487951  83.2229710  10.2601945
  17.2465730  84.7330189  10.2943516  42.7473593  82.1850014  11.6798639
  43.3199644  82.4179363  12.4106824  42.0392036  81.6815567  12.0814717
  23.2627964  61.5924120  33.0875659  23.3864951  60.8229113  32.5318670
  22.7288508  61.2777281  33.8170242  32.8327322  96.0443974  16.5096390
  32.5374222  95.3627300  17.1132600  32.0253754  96.4447308  16.1869407
  65.2253418   9.5083531  47.6102161  66.0278420   9.3729600  47.1063375
  64.5492964   9.0491399  47.1118975  82.0976845  35.7952329  83.5806427
  82.1553556  34.8682233  83.8120595  81.2260119  35.8926316  83.1973234
  75.4499655  26.3300141  37.7610254  76.1850076  25.9102734  37.3140764
  74.8580079  26.5908536  37.0554900  84.4750552   0.3530988  40.7176924
  84.3761306   1.2153920  40.3140783  84.0782218   0.4470452  41.5836763
  60.9728460  17.9010209  34.6074343  60.4359679  17.2806558  35.1005268
  61.2649469  17.4082478  33.8405681  31.0229969  74.7143698  42.7916765
  31.2826324  75.0496674  43.6498117  31.0409832  75.4814196  42.2193670
 100.9964471   6.1451920  38.8394022 101.4103226   5.3840455  39.2463422
 101.5861993   6.8727597  39.0370750  13.0808437  85.9545517  23.5339189
  12.9383242  86.8220329  23.9125991  12.6845419  86.0048771  22.6640654
  14.1184282  97.5826073   8.6468089  13.2884526  97.4734306   8.1826389
  14.7876787  97.4076557   7.9852003   4.9392629  78.8466835  33.6769652
   4.8681867  79.7976875  33.5946941   5.4352945  78.5758495  32.9044127
  17.2403860  69.4729710  16.4641047  16.4351070  69.1321802  16.0747218
  17.1118927  69.3717384  17.4072230  30.4292893 104.4843578   8.1435424
  30.4113793 105.3341961   7.7034396  29.5637083 104.1106796   7.9781228
  13.4654272 103.7603092  24.1836715  12.9556453 104.3141747  24.7749281
  12.8188658 103.1796455  23.7823939  85.9171824  39.8800477   2.6839578
  85.6093650  40.7839402   2.6171756  85.6935506  39.4878873   1.8398996
  90.4667012  31.9941731  82.6451281  89.5911268  32.1443196  82.2886769
  90.3936425  31.1655541  83.1187222  33.3839726  66.8560457   9.9138367
  32.9392171  67.3438311  10.6070089  33.6208916  66.0229588  10.3213525
   0.4065602  96.4326763   4.2091140   0.7131286  96.3264751   3.3085760
   0.7577562  95.6725502   4.6728981  10.4414690  50.0932360  56.5672588
  10.0877130  50.3815079  57.4086761   9.8416299  50.4591513  55.9172344
  14.0099466 100.1092720  19.8273575  13.5115302 100.3615856  20.6046271
  14.5893455 100.8531380  19.6624601 108.0855911 101.1917877   7.2797328
 107.6588877 100.6563282   7.9486448 109.0105369 100.9516239   7.3347795
  19.3565643  78.2986164  38.3984590  19.1502559  79.2226553  38.5392356
  19.9230313  78.0649519  39.1338158  83.0995941  87.5780678  21.0508323
  82.3612499  87.3203754  20.4988551  83.6229134  86.7813587  21.1381173
  83.2886319   9.4598874  40.0762510  84.1451936   9.8566827  40.2346468
  83.1173234   9.6222218  39.1486025 105.3214577  19.5678874  88.7746083
 105.4939417  20.5094167  88.7735357 104.4217948  19.4895621  89.0919425
  15.5533588  89.2076683  30.8647275  14.8479748  88.5730934  30.7383108
  16.3044882  88.6799717  31.1359692  63.9237070  73.1503439  22.7776361
  63.0767155  72.9905701  22.3613286  64.5573711  73.0884409  22.0628858
  11.0361433 103.2130909  43.1676483  11.5707743 102.4390221  42.9909897
  11.6706347 103.9182091  43.2959509  34.1167450  99.3412781   4.9599943
  33.8721037 100.0951099   5.4967612  34.0124702  98.5887241   5.5422431
  55.4908323  95.0978661  57.2072220  55.2386236  95.2450943  58.1187868
  55.9855652  95.8810234  56.9661188  51.9061618   2.8949746  23.3986688
  52.0248120   2.4722775  24.2492437  51.2311666   3.5561475  23.5518646
  52.9203491  32.8802308  50.2046347  53.3803766  33.4988793  49.6372843
  53.3480780  32.9723462  51.0559845  25.8421421  82.2551060  29.7960210
  25.1955223  81.5611362  29.9245453  25.3331876  83.0007935  29.4779825
 101.5511707  53.9587518  82.2540692 102.0486168  53.2407304  81.8626312
 101.3210729  54.5216294  81.5148446  10.7817245  83.6192608  58.3431053
  10.9750307  84.3202877  57.7206707   9.8854792  83.3549690  58.1354332
  98.6967965  82.8476143  34.0709352  99.5825204  83.1759167  34.2256689
  98.4886738  83.1304741  33.1804824   8.9242905  81.1723137   3.1187400
   9.8118401  80.9402084   3.3918977   8.3778232  80.9613419   3.8757706
  71.1623030  22.0713624  19.8926771  71.7340116  21.3142022  19.7658622
  70.3017311  21.6938695  20.0747418  48.0730359  11.9911298  32.1269178
  48.3640687  12.7027711  32.6970911  47.7792291  12.4291238  31.3281250
  27.4183822 100.7519054  28.2967710  26.8790603 101.0095596  29.0444207
  27.5938511 101.5713978  27.8342962  65.7503319  73.5835838  47.7278757
  66.5002537  73.2282591  48.2049417  65.4631948  72.8654957  47.1638441
   4.1497707  76.7145681  35.0864458   4.8101252  76.5124559  35.7492542
   4.3658870  77.6004553  34.7953725  50.4527514   7.3273858  36.1335564
  50.7658427   7.1381959  37.0180964  51.0773020   7.9662141  35.7899451
  60.8132486  12.9272183  28.5348129  61.6253929  12.4234399  28.4812713
  60.8542495  13.5275182  27.7903771  48.6704636  82.1356487  20.7429981
  48.9214611  82.5350761  21.5758777  48.6674738  81.1949253  20.9197807
  62.9366636  65.4632664  37.2776771  62.4445057  64.8837090  37.8591585
  63.8521433  65.3253508  37.5207949  33.2322764  96.5113354  58.0225706
  33.2589579  97.4609089  58.1402016  32.5109076  96.2210274  58.5807610
 107.6188695 102.1291733  21.5846276 107.5661897 101.1778450  21.6764545
 106.9129430 102.4627113  22.1383905  61.1422663  14.9946221  14.7735822
  61.0741930  14.1238889  14.3818974  62.0761256  15.1043137  14.9527645
  15.3147888  69.9041986  45.6708574  16.0611427  69.3686867  45.4017591
  15.6344843  70.3986454  46.4255381  61.0730200  10.0043401   0.3779218
  60.1563721   9.7435197   0.2886993  61.3385730  10.2529344  -0.5074670
  18.7945855  65.9440136  66.5037632  19.4795752  65.5376625  65.9728193
  18.3288372  66.5178680  65.8954859  44.3050210  10.3653249  46.3024139
  44.4953923   9.4663915  46.5705729  44.4583009  10.3709706  45.3575802
  20.6625724  80.5050755  33.8720632  20.1154852  79.7217321  33.8146210
  20.0449133  81.2168121  34.0398622  62.6907091  22.4978265   8.7597382
  62.1831970  23.2832536   8.9640892  62.6207690  22.4080190   7.8093314
  43.3153872  25.2364644  39.1206336  42.4259471  25.4052171  38.8097453
  43.3720391  25.7077798  39.9518275  85.5812184  39.7620698  75.7877675
  86.2401763  39.4361707  75.1747469  84.8103181  39.2195817  75.6214884
  65.8498573  93.0158710  66.7435122  65.9555721  92.5471878  65.9156322
  65.4689980  92.3693562  67.3378181  32.5468373  71.8061590  48.1201601
  32.3520112  70.9556580  48.5137606  32.7655196  72.3692513  48.8626814
  44.1483443   7.8893098  12.2626114  44.6091662   7.6181992  13.0565727
  44.8383407   7.9853543  11.6061723  22.7265120  72.5263214   1.2845777
  22.9436398  73.0443192   0.5094881  23.5485244  72.4677658   1.7715058
  25.3536367  61.8610191  27.7250957  25.3450513  61.5571117  26.8174624
  26.1918473  62.3137569  27.8181672  49.7543638   7.5055703   8.6404169
  48.8982789   7.6682004   8.2443088  50.3050618   7.2195920   7.9115939
  24.6811533  75.6178999  31.0698795  24.8483610  74.7516632  30.6985259
  24.8763943  75.5206966  32.0019007  73.2158713  11.8388089   2.6616400
  73.3818965  12.6833257   3.0805159  73.8013868  11.8277749   1.9044867
  31.8818116  99.3693256   9.9471855  31.8270564  98.5584641   9.4414812
  31.5192294 100.0385475   9.3667459  34.4041157  94.7615528  70.6913042
  34.4874525  94.5264053  71.6154194  35.1118541  95.3877068  70.5387211
 104.4438221  96.0562992  28.7567353 103.5652276  96.0809612  28.3776641
 104.3492379  95.5231476  29.5460629  57.1884351  22.9639253  86.0436440
  58.0776481  23.0190095  85.6936455  57.2937231  22.5523290  86.9013977
  25.6349444 101.4886951  14.8316395  24.7705030 101.8596745  14.6545875
  25.8518505 100.9978485  14.0390193  78.3531909  10.7903203  35.1442194
  77.6940684  10.7472905  34.4514441  78.2900338   9.9444493  35.5877805
  43.5177994 100.7851505  35.8543921  43.7790394 101.6420937  36.1915064
  43.8130331 100.7858086  34.9438620  18.7638521  82.5387287  33.7516475
  17.8506947  82.5135994  34.0375590  18.7146139  82.5917339  32.7971864
  24.4601672  14.7488507  19.4439411  24.7795765  15.5920895  19.1227508
  24.8170345  14.6790608  20.3293824  49.0830033  22.3401174  11.7955327
  49.1045813  22.8036603  10.9583390  48.6246865  21.5217885  11.6044641
   0.9312596 103.2763195  21.2709689   1.3286835 104.1427994  21.1844039
   1.6729894 102.6712894  21.2685657  49.6536112  82.9546738  28.5579515
  48.7760019  82.5831985  28.6476374  49.5485353  83.8767242  28.7925029
  41.4277267  96.2036610   1.1638661  40.9498310  95.4306984   0.8632354
  42.3491621  95.9842491   1.0258414  41.0924816 102.9874802  30.0943565
  40.7226706 103.1916523  29.2354131  40.3706598 102.5834656  30.5760050
  88.9281658  35.5270692  71.3496903  89.6948532  34.9638864  71.2436763
  88.2479230  34.9445172  71.6875282  94.9076728  33.0545541  74.9115637
  94.0932695  33.5567971  74.8846916  94.6391085  32.1771928  75.1842240
  56.2013626  94.4116402  53.5177612  55.9907198  94.4463158  52.5846720
  57.1515656  94.2993355  53.5447836 102.1211485  63.0280801  80.6486801
 101.9460682  63.4542581  81.4876965 103.0705956  62.9072686  80.6349221
  24.5766091  93.7344074  17.9636872  24.6610737  93.9344025  18.8959432
  23.8102555  94.2329979  17.6802397  16.2567234  86.9260597  64.5198059
  16.4194024  87.3788834  63.6923265  15.6037879  87.4666977  64.9643517
  91.0158496   4.9662503  23.0418038  90.4094796   5.1916036  22.3362780
  91.7888360   5.5054959  22.8746367  28.7560010  87.3466587  18.2311606
  28.1162167  86.6355610  18.1956804  28.2327342  88.1439495  18.1490386
  67.6664475  17.9199906  88.8119619  67.9079578  17.8482362  87.8885142
  66.7288319  18.1122609  88.8000724  32.6445358   5.8860310  24.5411777
  32.1966933   5.7201966  23.7116194  31.9724910   5.7462319  25.2082944
   9.8524022  86.3584805  61.4917707   9.3768084  85.8515739  62.1498632
   9.3371195  86.2555122  60.6917000  93.7891861 104.3253899  11.3488054
  93.7330373 105.2415848  11.6202176  94.4073149 103.9307976  11.9639850
  34.1862154  88.6138344  47.8302956  35.0266027  88.3038616  48.1677818
  33.6328578  88.6985588  48.6067295  40.8848858  79.7836637  35.3810120
  41.7974424  79.8850203  35.1104546  40.4297781  80.5177021  34.9683475
  31.9540977 102.5472736  55.9110403  32.4219537 101.8257332  55.4906702
  32.1852970 103.3174419  55.3917885  52.6081419  95.5953217  57.1572828
  53.5142469  95.7758427  56.9070530  52.3997211  94.7685242  56.7223120
  24.1547775  67.9037714  38.0494809  24.3373251  68.5499811  37.3673320
  23.2458615  67.6450682  37.8972602  33.8284183  99.3242264  25.1334691
  32.9404950  98.9679146  25.1628375  33.7272906 100.2408028  25.3901601
  95.8595090   6.2978753   4.8583716  95.7512336   5.5257329   4.3031219
  95.4195885   6.0679444   5.6768036  43.6602794   9.9466237  23.8427758
  43.3244078   9.2757424  23.2483482  43.8653050  10.6891545  23.2745838
  86.9194655   2.7168855  43.5841036  86.9294076   3.5530385  44.0499115
  87.0216946   2.0585832  44.2714357  48.6526053  29.9593457  47.2908640
  48.4866099  30.8465966  46.9723225  49.2727594  29.5910558  46.6615772
  44.7562371  32.2980794  35.4824352  45.1394527  31.8639382  34.7202682
  45.2562706  33.1093034  35.5725741   6.2599909  78.2697630  36.7948031
   7.0652610  78.5164690  36.3399315   5.9183401  79.0941334  37.1410918
   9.8163974 101.3533401  21.0301733  10.1544964 102.2484779  21.0046053
   9.3673170 101.2429047  20.1921034  54.3487875  20.8266267  52.2700977
  53.9210348  20.4296693  53.0288363  53.9101105  20.4341420  51.5152788
  31.4352608  87.9640961  23.1593418  32.1264839  88.5918808  23.3698702
  31.4406347  87.9135323  22.2034931  61.2817907  93.3030510  25.5266619
  62.0180511  93.4537125  26.1194921  60.5958414  93.8913155  25.8423471
  52.5818162  19.8313435  24.3645501  52.8541009  19.2081078  23.6910057
  53.2627444  20.5040463  24.3577385  90.1749615  36.5118035  51.6277695
  89.3555169  36.5063390  51.1330891  89.9947505  37.0708379  52.3835707
  74.8423390  46.0036858  20.9846282  74.4520740  46.8775376  21.0023475
  75.7684569  46.1510476  21.1765218  51.2715702  15.7929810  14.5419741
  52.0585220  15.4017648  14.1626489  51.6001324  16.4933404  15.1056933
  66.8231106  99.3159103  25.9763741  66.8952322  99.6485233  25.0817251
  65.9552813  98.9137268  26.0131478  78.3693795   0.1067456  18.0126393
  78.0697350  -0.1424399  18.8869107  79.2318158   0.4961118  18.1569767
  14.0773678 102.7745438   6.9939518  14.5114362 102.6407242   6.1513919
  14.7917342 102.9516983   7.6059407   5.2644372 104.0672016  23.3255768
   6.1607641 103.7445068  23.2323265   5.0698650 104.4803047  22.4843168
  55.2767663   7.5650033  58.7419462  55.2586083   7.1757611  57.8676510
  55.2523689   8.5088452  58.5844707  64.0439896  13.0127629  25.3907561
  63.2699590  12.4610242  25.5033922  64.4351439  13.0576524  26.2632346
 101.5394422  25.3942585  48.4172487 102.1940806  25.9915066  48.0553436
 100.7935330  25.4671788  47.8218174   7.9806674  64.3497276   1.4088523
   8.2845372  64.6385908   0.5483568   7.4850422  63.5501862   1.2318582
   4.1003138  26.2913680   5.4238367   3.9058384  27.1943045   5.1726067
   3.4481493  25.7675338   4.9585295  10.4464674  84.8073292  23.3760238
  10.8378148  85.5239677  22.8765178   9.9277079  84.3230057  22.7337193
  40.5568986 100.8065092  85.1876662  40.8952959  99.9239790  85.3388444
  41.3339602 101.3654005  85.1944450 104.1131946  42.1257019  31.6019082
 103.9156517  41.4490223  32.2494507 105.0352462  41.9877958  31.3850355
  38.2510114  18.7699497  23.6000395  37.7297735  19.1115546  24.3265724
  37.6041412  18.4713507  22.9607987  23.2517290  52.7083397  18.0242741
  22.6323056  53.2806444  17.5714886  22.9340124  52.6778269  18.9266908
 110.0698546   1.1835595  70.1952985 110.8340648   1.1688205  69.6191076
 110.2685884   0.5377646  70.8732978  96.4547392  47.9863834  34.6353960
  96.4518353  48.9113665  34.3891644  97.3663684  47.7137089  34.5314074
   3.3787277  25.4895711   9.1592538   4.2176563  25.7423806   8.7738729
   2.7396044  25.6427693   8.4633487  48.2005453  36.3140941   0.0940781
  48.7817955  36.0081911  -0.6021989  48.5257483  35.8828068   0.8843087
  84.6778663  38.4763622  32.2111034  83.8586434  38.5246992  31.7183852
  85.2729949  39.0631413  31.7444730  74.8369583  62.5136852   2.2421165
  75.2954277  61.7956543   1.8056899  75.4938587  62.9006195   2.8209051
  14.2494297  45.8753157   3.4975719  14.2629492  44.9898577   3.1342369
  13.7769759  45.7873392   4.3253878  26.0918045  40.1272535  36.2399244
  25.2390623  40.5571604  36.3050747  26.7128158  40.7754278  36.5722680
   1.2449431  23.5904765   2.1415184   1.9104326  23.3461714   1.4983459
   0.4380082  23.6700010   1.6328305  99.8211320  52.2058010   3.0453238
  99.1276129  51.8687725   3.6124888 100.6332334  51.9278383   3.4689477
  29.3333292  24.8074865   5.5627012  28.9953661  25.3633046   4.8605043
  29.2074513  23.9141870   5.2426946  41.3605598   9.0292092  76.4064590
  41.3324956   9.7207137  77.0677177  40.8264998   8.3248302  76.7736891
  81.0258982  25.1552793  69.6709469  80.5063275  25.4521914  70.4180220
  81.8642995  24.8932572  70.0512890  77.9750999  30.2828193   8.7574047
  78.6986955  30.5242348   8.1791681  78.3514722  30.3119159   9.6370232
  42.3065996  44.6714306  26.2954330  42.3797178  45.5001545  25.8220339
  43.0063772  44.7056103  26.9476390 101.8913712  44.9968863  27.4469352
 101.2395390  44.3268299  27.6527810 102.3396584  45.1580000  28.2771850
  97.6927022  91.2799982  23.5306573  97.6807097  90.6273321  24.2307377
  98.0279902  92.0732561  23.9484549 109.5427423  60.5037689  27.2041678
 109.7776722  59.6540833  26.8312407 109.9891847  60.5255270  28.0505991
 107.7116891  43.2825994  30.9291410 107.9294341  43.0651760  31.8355346
 107.1698075  44.0688944  30.9949946  98.4145669   9.7974034  88.4980090
  98.7900976   9.1246291  87.9300461  97.6246051  10.0840922  88.0397529
  21.1444377  85.1585567  66.7381266  21.1412691  84.5338857  67.4633888
  21.7522787  84.7829687  66.1011819  98.9324041  27.8788352  34.3993044
  98.6526140  27.6847744  33.5047150  98.4992179  27.2144461  34.9351859
  18.6472118  66.1532354  62.7653646  18.1237006  65.4861879  63.2094574
  18.4508622  66.0325193  61.8363285 107.5510552  48.1163263  18.3551204
 107.8830134  47.5467348  17.6611483 106.7445721  48.4862995  17.9960418
  21.7840266  45.8628559  22.0092368  22.1677232  45.9782648  22.8785396
  21.2537169  45.0695848  22.0848918  94.1626783  46.7973185  35.5979800
  93.5503205  46.6392183  34.8794723  95.0047561  46.9439459  35.1671219
  21.7713547  59.2717886  39.1964102  21.8496418  58.3179903  39.1771650
  21.5192628  59.4732809  40.0975657   5.1213092  66.5118122  50.5095768
   4.2317384  66.1817932  50.3831482   5.5399406  65.8618546  51.0739660
   8.2947618  72.9953623  20.2190232   8.1954396  73.5544682  19.4484603
   8.2669306  73.6011076  20.9596515  30.6675677  85.8102882  85.3697512
  30.7938217  84.9126637  85.0622437  29.9707757  86.1583054  84.8133377
  12.2446334  22.8966379  11.2866449  11.5277469  23.3468914  10.8399022
  11.8145430  22.2149992  11.8029988  32.5455070  60.8934736  10.0351012
  32.3175263  60.4879332   9.1985637  31.8915009  60.5597162  10.6491959
  17.4517012  42.6976728  45.9981203  18.3877313  42.8126812  45.8342505
  17.4109423  42.1964359  46.8125725  18.8219352   7.5497647  77.7550367
  18.7093158   7.1278640  78.6068276  18.0713267   7.2537919  77.2400442
  92.7661713  78.2070971  22.9058361  92.5146087  79.1065502  22.6962376
  91.9357511  77.7539778  23.0518389  95.1032086  62.7646875  41.8577194
  95.2890178  63.4917068  42.4519825  95.9655758  62.4294472  41.6124249
  20.4475856  55.4421043   4.0298343  20.9319019  54.8971462   4.6500713
  20.1756692  56.2038136   4.5417839  95.4082223  39.0616655  23.7945008
  95.5974372  39.8565006  24.2931652  94.4852789  39.1436291  23.5543156
  31.3946819  84.3223667   7.7506363  31.8966269  85.0602627   8.0967313
  32.0423031  83.6280251   7.6293552  94.3717071  70.6700993  36.9755745
  93.7077888  71.2805605  36.6549778  94.9340006  71.2018871  37.5388336
   8.7263280  63.8152695  26.8139768   8.3569568  62.9344130  26.8763447
   9.0341687  64.0091372  27.6993465  37.5429748  68.9790070  90.4494576
  37.1729717  69.8157489  90.7308682  38.4364038  69.1909992  90.1791324
   8.9903986  46.7845106  37.4967813   8.4485996  47.2616673  36.8682837
   9.5692360  47.4503374  37.8680658  18.7818730   9.6988380   6.8803662
  19.6421289  10.0444412   6.6421437  18.1706536  10.3989339   6.6512173
  74.9908122  65.2485657  25.1057172  74.1888221  65.6168604  24.7350359
  74.8411330  65.2516890  26.0511374  32.8446531  26.2657452  22.2714782
  32.9088020  26.3874197  21.3242126  31.9817924  26.6117287  22.4995112
  99.3479606  84.2294788   7.4611783  98.5571810  84.3723106   7.9812717
 100.0636026  84.2787361   8.0949467   1.2302397  64.9271870  12.1473861
   0.3637301  64.9177694  11.7408097   1.3812995  64.0192986  12.4103522
 105.4747393  24.3010616  12.9504049 105.2620240  25.0855994  13.4558606
 105.2800896  23.5745907  13.5425031  52.2722272  16.5832826  88.5889057
  53.1151656  16.5231057  88.1393895  52.0137123  17.4997493  88.4914610
  82.8627571  17.1993363   8.7943751  82.9375824  16.7990017   7.9281384
  82.8237279  18.1398916   8.6209852  44.1688231  10.9141179  85.1430253
  44.5423392  11.0206481  84.2681715  44.9249486  10.7584449  85.7089511
  13.5111988  54.9063587  10.2460325  13.8006198  55.2531719   9.4021213
  13.4280705  53.9637423  10.1018095  78.9752468  64.4962645   4.6121988
  79.2438468  64.7853088   3.7401086  78.5407170  65.2589083   4.9940208
   1.4995521  52.4221039  33.1584120   1.3398102  51.6365576  32.6353145
   2.3061731  52.7901506  32.7976656  92.0047871  13.9271565  71.0664598
  91.7510799  13.0102893  71.1723677  91.6516308  14.1762706  70.2123789
  75.3077238  46.6351529  85.7803485  75.7334929  47.4703332  85.9738249
  75.9371400  46.1668130  85.2319661  79.1621398  98.1523192  90.0845432
  78.9046191  97.5742828  90.8027268  78.5953282  98.9179337  90.1782925
  19.9123883  93.3504581  10.5792153  20.7645679  93.0004025  10.3194380
  20.0718760  93.7640667  11.4275777  59.0036587   3.2584353  86.0297630
  59.0503565   4.1852590  86.2644020  59.8742000   2.9159089  86.2324083
   4.5490476  72.2227955  38.0906844   3.7115723  72.4717855  38.4816694
   4.9040097  71.5620756  38.6853957  99.8682757  52.8682852  33.6934114
  98.9443906  52.9177713  33.4480143 100.0438579  53.6995888  34.1342521
   7.4495947  57.3385048   4.0858823   7.3099214  56.4495659   3.7595174
   6.7037594  57.8364658   3.7512216  23.9711499  82.3898983  14.8558581
  23.4734368  83.0648994  15.3172636  23.6188197  81.5639114  15.1872790
 110.6860198  37.7368069  28.3166838 110.5071267  38.1421065  29.1651893
 111.6400772  37.6683617  28.2803321  35.0700426  66.7928934  35.7497883
  34.1583490  66.5272808  35.8701873  35.2880454  66.5058136  34.8630571
  18.8915455  69.7744703  53.5007048  19.2717981  70.4136848  52.8981733
  18.5420752  69.0880489  52.9324341  18.4863973  60.9975719  16.5712321
  19.4065976  61.1677933  16.3700140  18.0233061  61.1905289  15.7560349
   7.0939499  74.6854591   6.3418561   6.2047637  74.9195242   6.6079259
   7.0604712  74.6659899   5.3854400  36.4811468  55.5607271   6.5822220
  37.2533607  56.1066675   6.4343446  36.3078189  55.1557684   5.7323992
  13.7479782  15.0208282  30.4536915  13.1871915  15.7851756  30.5860662
  13.8978684  14.9945223  29.5086670 104.7686680  47.5010109  38.6320138
 105.3600629  47.6787663  39.3633723 104.0271088  48.0890608  38.7752581
  76.6357960  23.1755754  82.8225896  76.9329572  23.9090606  83.3610413
  75.7318509  23.0259105  83.0995629  54.2394829  56.0703850   5.8361220
  54.4102144  55.1285648   5.8439022  53.4745884  56.1704636   5.2694231
  16.9559205  53.8601208  29.3811703  17.1703875  52.9440546  29.5574045
  16.0080600  53.8628197  29.2478085  16.7637026  39.1059709  44.9190044
  17.4516106  39.0430331  44.2563963  16.7817605  40.0218058  45.1967573
 102.1659120  68.7175608  14.3335342 102.8998693  68.2525635  14.7351742
 101.4045783  68.1670284  14.5166004  11.6464877  53.9840746  33.0765510
  11.5147054  54.7207355  32.4797344  12.4037254  53.5195541  32.7201176
   0.9862130  62.7093554  25.1934958   0.5348257  62.7003765  26.0375333
   1.6252773  61.9994879  25.2560854 104.2432734  40.9175968   5.2421439
 104.7546854  41.2523699   4.5055178 104.2165818  39.9707198   5.1045203
 107.0777034  61.2046432  28.3497047 107.2506388  60.8982897  29.2399144
 107.8306266  60.9022808  27.8418493   1.7528637  13.6328208  43.8886023
   1.2007222  12.9001951  44.1617870   2.4172813  13.2351804  43.3258724
  93.3805314  98.4319124  16.1429536  92.9367498  97.7278087  16.6157413
  93.2642571  98.2104084  15.2190232  16.1890590  30.3601098  17.8964686
  16.7660654  29.6307039  17.6700556  15.7856095  30.0983691  18.7240875
  30.8543229  44.1168261   6.8714136  30.3047633  44.5879412   6.2451023
  31.0587907  43.2894421   6.4356875  37.4986720  74.6906710  16.3088250
  37.2230124  74.9899769  15.4424191  38.4430099  74.5574236  16.2269509
  79.1612323  29.6493459  33.8207126  79.1636833  30.4119754  34.3991780
  80.0075420  29.2293954  33.9744544  10.2806389  37.7109599  15.4885423
   9.8997915  36.9829249  15.9796143  11.1890221  37.4492788  15.3382218
  11.5318775  31.3571143  39.9529123  10.6353760  31.5533137  39.6808386
  11.4315987  30.8245182  40.7419109  79.6812663  18.9239856  82.4588135
  78.9814026  18.9196130  81.8058178  79.2241666  18.9229604  83.2998190
  21.0190535  32.4837637  21.1490273  20.2634168  32.3526740  20.5762601
  20.9531641  31.7821383  21.7968011  73.9486294   0.6221303  37.1136832
  74.4758611  -0.1259223  36.8331933  74.0919881   1.2834844  36.4367104
   2.4669744  78.2636786  11.5614831   2.9815093  78.8967943  11.0608327
   2.8705615  77.4182415  11.3650572  57.4284199  15.8853503  66.8200306
  58.1458441  15.9941073  66.1957649  56.7674867  16.5176364  66.5378693
  99.1722389  68.4150171  49.4964838  98.2935532  68.0354977  49.4861555
  99.1241165  69.1472387  48.8818550  18.4639883  53.2432842  24.6647453
  18.0433011  52.4124527  24.8860407  18.2745218  53.3674526  23.7347341
   7.2093815  86.1598778  27.0626974   7.5937635  85.4378700  26.5655088
   7.9488152  86.5502071  27.5286460   5.5016923  75.6392097  44.5562506
   5.1201248  76.4647484  44.8547888   6.4391494  75.7337904  44.7249508
  13.6748517  85.3234959  50.2279472  14.2818081  85.9157658  50.6718588
  12.8240311  85.7565975  50.2969742  78.5230931  24.0250254   8.7108606
  78.3137330  24.7200155   8.0868506  79.4339999  23.7997890   8.5217881
  10.1388609  70.9680843  20.2098417   9.4567376  71.6329145  20.3043747
   9.8789191  70.2709150  20.8120203  83.9733855  13.7052365  68.7970761
  83.0183575  13.6731263  68.7412027  84.1838924  13.2083674  69.5876721
  63.3448029  88.1733799   8.3044738  63.4293413  88.8549709   7.6377594
  63.7671280  87.4063587   7.9177505  17.2519958  64.9446535  16.0516798
  17.3084807  65.5145836  15.2847254  17.6832855  65.4382992  16.7492008
  87.9991420  56.7048931  32.2995472  87.4216565  57.2732401  32.8091788
  87.4768933  55.9201908  32.1330214   5.2986144  96.3784039  74.7987417
   5.8107399  97.1095669  75.1442245   4.9402975  96.7056763  73.9736751
  16.8417323  80.1587486  68.6083364  16.1586714  80.6796837  68.1860924
  16.3994193  79.7347689  69.3437481  11.6381407  58.4413433  17.5821805
  12.3860097  58.3641052  18.1745994  11.7091811  59.3248081  17.2206891
  42.1758842  60.4483986  20.1949382  42.1132421  60.5668259  19.2471600
  42.7649355  59.7019243  20.3046227   3.4766436  72.2330952  12.2422731
   3.1585318  71.3421535  12.3880613   2.9236495  72.5727320  11.5386546
  52.2379160  57.2880554  10.4625404  51.5069771  57.0052671  11.0120785
  52.2656202  58.2386446  10.5713606  82.5628093  22.0852681  85.1830581
  82.0077345  22.4724504  85.8599717  83.4134725  22.5082751  85.2999697
  27.9548645  48.1467533  44.1896343  27.9019332  48.0492926  43.2388830
  27.0453453  48.2449913  44.4713402  98.2320007 103.9844036  12.5995803
  97.9643198 103.8486862  13.5085118  99.0920194 104.3998814  12.6626647
  57.9971436  18.1601258  89.7974406  58.4074811  19.0236398  89.8443225
  57.1877900  18.2519313  90.3001837  42.0195675 103.3279228   8.7647110
  42.1716499 102.4483585   8.4190804  42.2910976 103.2754326   9.6810889
  29.5091295  47.2842884  47.6884031  30.2262235  47.6135302  48.2302570
  28.7162709  47.5319576  48.1640816  49.5273781  35.9810638  33.7804055
  49.6119213  35.7539606  34.7064233  50.3977537  36.2901855  33.5291719
  63.7365035  50.5034753  81.3019696  64.6025465  50.8955976  81.4134989
  63.6610857  50.3534051  80.3596190  57.3759604  56.6630030   4.3896529
  56.6208649  56.9955444   3.9043882  57.2723341  55.7116032   4.3713629
  40.2270079  53.1299829   7.5364596  40.3129911  53.1714630   6.5840322
  41.0031557  53.5823202   7.8669393  94.2633346  40.3889199  82.8291777
  95.2012995  40.5391713  82.7113554  93.9943126  39.9220868  82.0380250
  95.4854087  10.9067126  78.5751728  95.3922728  10.1463243  79.1490797
  95.1376466  10.6148072  77.7325085  21.4553785  60.6433916  24.2868328
  20.7994771  59.9464035  24.2715526  22.0966387  60.3546286  24.9361634
   2.3249219  85.8858013  34.5101786   1.4677736  86.2687397  34.3233871
   2.1296014  85.0025082  34.8230243  34.6798658  21.2145543  27.7058935
  34.5897651  22.1471381  27.5099301  34.5411325  20.7786369  26.8650842
 105.9445836  44.0570736  23.6296248 106.7171326  44.6216106  23.6560607
 105.4940464  44.3053150  22.8223920  49.8764948   5.2263423  86.0027499
  49.2968920   5.9386798  86.2726859  50.6813697   5.6642886  85.7259563
  25.0173998  64.9181938  27.8835154  25.0257254  64.0208244  28.2165122
  25.5360532  64.8802805  27.0799017 106.8519657  26.6363811  35.3859711
 105.9053191  26.7734742  35.4220009 107.0737865  26.7390108  34.4604993
  74.6070251  27.6779099  80.7403079  74.2658513  28.3813115  80.1879946
  75.2573619  27.2376939  80.1930360  31.0268354  49.9695396  12.5914943
  31.1054349  50.5730724  11.8527102  31.7997313  49.4086838  12.5258672
  41.7556228  91.2155306  87.1288550  41.8818410  90.5931317  87.8450406
  42.2603654  91.9859898  87.3893518  25.8981466  58.6291933  44.2024088
  25.2158022  57.9602575  44.2586327  26.3969064  58.3973169  43.4190178
  15.7154893  88.5491120  72.0872596  15.0486802  89.1840851  71.8257085
  16.2875461  88.4741819  71.3234738  44.5085096  85.8857536  41.3593817
  44.4690132  86.3706779  40.5350447  45.0697660  85.1342297  41.1685085
  27.9548383  80.3990364  39.7012973  28.1910515  80.2828026  38.7810111
  27.2365284  81.0315228  39.6861625  13.3335030  49.9605560  42.7944565
  14.0350866  49.3381166  42.6031923  12.8585076  49.5683575  43.5271168
  14.5090985  59.3898535  14.4143093  14.7478330  60.0546646  13.7683499
  14.3795860  59.8802567  15.2260756 105.3213157  63.9354134  21.1783552
 105.8290156  64.6685219  20.8304596 105.6348916  63.8318777  22.0767879
   4.0303475  52.2636461  64.5605040   4.6103641  51.5532303  64.8345804
   3.2121509  52.0991945  65.0292683  36.6252232  80.1427460   6.4281654
  37.5010514  79.8693466   6.1553919  36.4506769  80.9326553   5.9164846
   4.9391386  60.5997515  57.3645020   4.3932596  60.5094290  56.5834188
   4.3300855  60.8674145  58.0527163  29.0193248  89.1966915   9.2440438
  29.4720721  88.3992767   8.9694726  28.1786633  89.1641045   8.7874752
  15.7685614  70.3163671  48.3816385  16.1730456  70.3182173  49.2491722
  15.2865827  71.1423349  48.3403301 107.9640948  98.3159637  29.7970104
 108.7823866  97.9385471  30.1197934 107.9123186  98.0309105  28.8847089
   3.9539623  53.1826687  16.2484062   4.8375762  53.5422707  16.3267910
   4.0892005  52.2561455  16.0496676  29.0950203  49.6017361  50.1717997
  28.8649464  50.1593161  49.4285631  28.3003545  49.0982485  50.3485346
   5.0448918  81.3879967  18.8475013   5.2885967  80.4641342  18.9050972
   5.0380909  81.5758514  17.9089391   3.8292500  76.4216232  61.5723085
   3.8854226  77.1614742  60.9675789   4.0491846  76.7932796  62.4265528
  72.4390069   6.3084336  78.8054660  72.3262786   6.2657376  77.8558866
  71.5572963   6.1852857  79.1571084  68.2287846  10.4973908  78.9785746
  67.8228906  11.3626119  78.9249829  69.0339015  10.6409236  79.4759837
 109.8078848  57.4626541  14.2694139 109.8121690  57.6613855  13.3330810
 109.7822865  56.5067101  14.3112516  65.7021545  95.5268776  85.2314315
  65.0505685  94.8769247  85.4945353  66.1939262  95.1021015  84.5286099
   2.5112879  68.1436062   8.8133597   2.8039110  69.0283346   8.5945934
   1.8164057  68.2738686   9.4586521  10.5386066  42.2808647   6.4614755
  11.1140490  42.0945358   5.7195997  11.1207318  42.6373672   7.1324956
  11.2123226 102.7429783  90.8928500  10.3236770 102.9479515  90.6021192
  11.5817379 102.2184622  90.1824648  14.2263794  90.2802277  13.5970771
  14.6460307  89.4331646  13.7474298  14.8914814  90.8003426  13.1461287
  26.8410039  38.0624151   0.0651074  26.9423389  37.7207828   0.9535055
  27.0459604  37.3191500  -0.5021521  16.1149204  75.9370899  21.0383987
  15.4915905  76.1408663  20.3411412  15.9939909  75.0017500  21.2019563
  20.0937128  58.0787325  27.9531193  20.0010419  58.5152102  28.7999558
  19.5783472  57.2767401  28.0393624  18.5707796  68.7104511  10.0451422
  17.9977691  69.3317080   9.5957768  19.2738950  68.5371637   9.4191766
  39.5294905  64.7326517  11.0265350  38.6408734  64.6915245  11.3799453
  39.6398568  63.9047337  10.5589807  36.7972994  70.9589672  19.6797478
  36.7211723  71.7160892  20.2604365  36.9888568  70.2263594  20.2652574
 105.7973178  70.1407909   4.1881034 105.2665516  70.3456116   4.9578866
 105.2099135  69.6458340   3.6169600  64.2782234 104.4289505  76.7473081
  64.7596668 105.1598465  76.3597051  64.9032067 103.7039482  76.7479709
 108.3905720  65.1780891   5.4698557 107.7318986  64.7841358   4.8978600
 108.8103574  64.4332647   5.9002590  77.3368908   2.7180549  85.8735344
  77.9054216   1.9548961  85.7706020  76.7244781   2.4688788  86.5657002
  90.2864655  53.0320072  15.0887394  90.4069336  52.4751329  15.8579028
  89.3478855  53.2192373  15.0732303   7.0867056  72.2311640  31.0531569
   7.4868941  72.6078749  31.8368483   6.1576247  72.4479771  31.1308289
   0.1910138  58.7705374  44.7397184   0.4900434  59.6707439  44.6114731
   0.9096672  58.2303333  44.4111633 111.1504567  77.7775478   6.1867464
 111.7286773  77.6685810   6.9417429 110.6340573  76.9719601   6.1623126
  60.9575776   2.9816218  78.1751147  60.6459240   3.8863297  78.1997076
  61.6333727   2.9794379  77.4972287  47.9001545  99.9631846  87.6771209
  48.6588024  99.4888270  87.3370195  47.9761778 100.8392202  87.2989473
  95.2324823  19.5494052  74.7357050  95.6919292  19.6490785  75.5694953
  95.6987051  20.1301881  74.1344086  14.0742958  84.1263962  12.6176929
  13.9276123  84.1728020  11.6729379  14.9600041  83.7742138  12.7055454
   7.5113308  90.8805656  21.9936895   7.6885247  90.1329136  22.5645280
   8.3761603  91.2367249  21.7901015  69.6879964  17.1955594  18.3500719
  69.0662341  17.9220208  18.3064234  70.3086476  17.3686513  17.6422143
   1.8554939  44.1667175  23.5287404   2.5014243  44.7913408  23.1988215
   1.2481348  44.6990967  24.0424681  51.2313806  94.5391190  67.7011374
  51.2310230  94.2427456  66.7909745  50.8811985  93.7974703  68.1946639
  67.4919223  90.2921593  55.8469990  68.2603024  89.8819482  55.4500726
  67.8494595  90.9920370  56.3934139 105.4417517  58.1960535  22.0939469
 104.9363222  58.6522150  21.4211249 104.7857442  57.8912020  22.7208042
   2.5580683  19.5409667   9.8617470   2.4573825  20.4885483   9.7712845
   1.7036477  19.1849589   9.6179116  82.6667627  71.1142540  19.2380023
  82.5928887  70.9032202  20.1687217  82.1031459  70.4751205  18.8020229
   9.6184719  44.6852589   2.2378062   8.7274116  45.0342417   2.2591330
  10.1269245  45.2937937   2.7738953  99.6147820  46.9465160  48.8268995
  99.3618294  46.7898083  49.7366762 100.5708238  46.9886112  48.8479710
  99.1583952  92.7684402   4.3720964  98.7097105  92.2621441   3.6949161
  99.5477828  93.5054874   3.9015907  60.9207240  10.2246161  79.8529330
  61.3826922  11.0618850  79.8105279  60.3063539  10.2526303  79.1194502
  73.3914541  82.6942050  77.7492360  73.5264396  82.9304874  78.6669401
  74.2447256  82.3743093  77.4562720   5.3719842  67.3723745  25.9710264
   4.5822033  67.4283886  26.5089297   6.0564452  67.7713108  26.5082383
  45.1425886  72.3196840  30.2045178  46.0959959  72.3277044  30.2892590
  44.8854494  71.4384031  30.4755402  19.5510888  80.1761436  43.0491543
  18.9909756  79.5738316  42.5595427  19.4714630  81.0089302  42.5840044
  10.7735264  56.6803598  40.9182787  10.8580804  56.3707972  40.0164747
  10.2211428  57.4593878  40.8532953  95.4905470  81.4237118  35.4824400
  95.5174383  82.1692848  36.0821390  95.4087647  81.8177414  34.6139431
 101.7185821  94.7383976  15.0292957 101.6912743  94.4338036  15.9363306
 101.3512786  95.6217098  15.0621009  33.4684134  37.5276399  19.2879951
  32.5922990  37.3349404  18.9540434  33.8027763  38.2086587  18.7043464
 105.5508294  57.3388243   9.3101317 105.8293595  57.6624203   8.4534281
 105.8832964  56.4419794   9.3470758  16.9443373  20.8057424  78.5694722
  16.5796045  20.9190532  77.6917700  17.5378660  20.0592395  78.4876612
  82.6795205  75.1146078  30.8233476  82.8438839  75.9706450  31.2188411
  81.8619498  74.8187923  31.2237263  97.2556165  16.4925452  79.7870687
  96.3978461  16.0777207  79.8786250  97.8770999  15.8234235  80.0738851
   7.0538509  19.0535367   2.8195423   6.2698686  19.0477860   3.3686963
   6.9333512  18.3152843   2.2223032  83.6670016  87.7828586  66.2178281
  83.4907054  88.0045998  67.1321467  84.0569447  86.9094407  66.2540916
  78.7284420   1.9536277  75.5451838  78.6339626   2.7025338  76.1337844
  79.4565097   2.1907826  74.9708084 103.1304332  76.3205671  23.9091182
 103.9564558  76.5767860  24.3193293 102.4560162  76.7172861  24.4604897
 108.7076431  64.8917913  16.3104451 109.6522566  64.9665117  16.4459252
 108.3684605  65.7664156  16.5007758  46.6724682  64.7811890  17.1051288
  46.3097858  64.0534019  16.6001379  46.0802412  64.8734808  17.8514409
  77.3701291   6.7292127  42.2905874  77.7312808   5.8559045  42.4426842
  78.1350999   7.2779282  42.1174955   5.2099347  73.5736227  28.6085033
   4.8315337  72.9023409  29.1763234   4.6368155  74.3321896  28.7196016
  33.5077548  71.7831182  12.7298796  34.2516923  71.9838524  12.1619952
  33.7203002  70.9311104  13.1108594 107.2167019  43.9835378  90.0846829
 106.9295863  44.8952313  90.0335373 108.1723646  44.0341207  90.1041324
  16.5763021  70.7918930  13.3920574  16.8765211  71.2789869  14.1594183
  17.2718275  70.1558590  13.2249093   3.8989103  83.9775753  19.2458844
   3.9204392  84.3800545  18.3776784   4.3144304  83.1238556  19.1244888
  21.3685441  83.8157272  73.2841253  20.9135652  83.1076050  73.7399673
  21.8054008  84.3067646  73.9800167  63.7115296  50.9057093  10.4518223
  63.8922461  50.8116055  11.3870859  63.9632662  51.8065977  10.2486980
   1.5070501 101.3558578  13.3612430   1.0626736 100.5352879  13.5743630
   2.1081284 101.4995861  14.0921879  17.4481332 103.0255699  61.1723566
  17.3317242 103.5138035  61.9874096  16.5804195 103.0237198  60.7682514
  22.7947712  21.0199690  42.4589777  23.0075550  20.7372332  41.5695906
  21.9315720  20.6432986  42.6299763 110.4350184  52.2499704   8.1919968
 111.1404522  51.6903305   8.5166442 110.1397971  52.7346468   8.9628160
  44.0546799  56.9832897  47.7659893  44.9727440  57.2528791  47.7925777
  44.0872145  56.0299492  47.6865053   3.1872961  43.8838291  14.1637230
   3.0173692  42.9484081  14.0526211   2.4784946  44.3144369  13.6858034
  15.0949030   6.3391980   1.0906703  15.3121762   6.2925157   2.0217147
  15.6636886   7.0277223   0.7462183  74.6396724  15.3608533  88.9321083
  73.7271952  15.1134559  89.0818154  75.1479127  14.6581098  89.3371650
  16.6901231  93.5539532  25.3319883  16.6870344  94.3835831  25.8094096
  17.4842680  93.5874748  24.7986579  34.4754982  42.4458122  26.3846326
  34.2435789  41.5410995  26.1750078  35.0391889  42.3761940  27.1551132
  13.4055090  69.6323729  17.2621250  14.0674722  69.7074842  17.9494345
  12.7553248  70.2996159  17.4818504  34.4510269  74.2581177  38.6581421
  35.0284147  74.9272919  39.0256476  34.1735578  74.6176720  37.8155470
 102.5505450  67.2065163   4.4746244 102.7186950  67.6273108   5.3177667
 103.2416888  66.5493536   4.3928534  24.9309087  75.7149172  20.1087761
  25.4668021  76.4218187  19.7491395  25.3437924  75.5035782  20.9460902
  82.7888583 102.9347145  83.3021662  82.0043134 103.3001768  83.7110225
  83.4285068 102.8857815  84.0125767  17.3707652  33.9943004  52.5305986
  17.5976050  33.0647922  52.5587606  17.6084399  34.3251920  53.3967733
  35.2437329  45.7932711  22.1586370  35.2835226  46.7257690  21.9462824
  36.1373186  45.5682850  22.4177051 110.7860926  21.3532372  85.1660958
 111.6340331  21.1023637  84.7996393 110.5915908  20.6710073  85.8087150
  20.6728482  76.2112141  36.9288135  20.6056690  77.0315552  37.4174500
  21.5468979  75.8802176  37.1354795 100.2039107  57.9099417  43.6464548
  99.6414586  57.5833988  44.3487692  99.6065672  58.3661079  43.0537271
   3.5026547  74.8618364  42.5531960   4.1929153  74.8481703  43.2162046
   3.7242728  74.1425037  41.9618559   3.2291010  49.5715189   7.7858257
   2.3815826  49.9134493   8.0704802   3.5287881  49.0336990   8.5187417
  10.1163447  48.0056286   5.7435042   9.3693864  48.6041975   5.7422948
  10.6420720  48.2801914   6.4948088  21.8144774  82.8530121   4.2411986
  22.7480388  82.6431274   4.2666250  21.7782950  83.7414742   3.8868672
  20.7680774  48.3634853   8.5377467  20.8693123  48.1494617   9.4652045
  21.6585183  48.5399246   8.2340753  34.0294170  61.7418766  16.7257941
  33.6985040  60.9012556  17.0421600  34.9752522  61.6946936  16.8650889
   6.8401736  59.7170448  26.0362029   7.7417886  59.5874166  26.3303447
   6.6046333  60.5858564  26.3616467  32.3544717  55.4418659   8.6963743
  32.8183603  54.8382616   9.2766345  32.8406286  55.4035091   7.8727168
  46.8603288  97.5869095  65.5919508  47.2129094  98.1380808  64.8932866
  47.4614059  96.8433201  65.6368140  24.9699593  95.8624268  51.3092613
  24.2261934  95.5803490  50.7768345  25.6339812  95.1872158  51.1699772
  99.9959739  83.7101078   4.2249805 100.0959977  84.5642090   3.8045818
  99.7885343  83.9147568   5.1367474  17.9139543  68.2352638  20.9380984
  18.8016343  68.3817434  20.6112957  17.8728330  67.2937918  21.1059475
   5.3704745  69.6679068   7.5085002   5.3346056  70.5711985   7.8231680
   5.9611100  69.2252493   8.1179529  10.9703684  38.7171865  35.6647944
  10.6160712  38.6913490  34.7759533  10.2234292  38.9564180  36.2135053
  59.7620440  64.8295212  18.6492646  59.0831470  64.1551876  18.6245120
  60.0395918  64.8564625  19.5649457  34.2350483  58.9684486  87.1250725
  34.0660334  58.7078285  88.0304718  34.4757891  59.8930693  87.1829510
  10.9427655  82.9134274  32.5663257  10.5319273  83.4785175  31.9120169
  11.0690022  82.0781994  32.1161103  49.6983170  86.1576378  68.8510588
  49.6711766  85.2848184  68.4590367  50.1906156  86.6868531  68.2235197
  90.6404074  67.0671129  27.6671386  91.2742778  66.3743687  27.4812722
  89.8008283  66.6121435  27.7330494  16.2440217  57.2787237  49.4190979
  16.8870175  56.9058752  50.0222301  15.6731272  56.5442562  49.1935635
  21.1105895  62.7984524  31.2992001  21.7695069  62.4193811  31.8808913
  21.2975717  62.4140358  30.4427576  40.7337856 104.5323277   3.3319509
  40.8401060 104.9491978   2.4768807  39.7931361 104.3704891   3.4042048
  28.0290626  98.0300963  85.7156823  27.9600595  98.1405365  84.7673819
  27.1625089  97.7255165  85.9850249   9.7199655  31.7267871  28.6434698
   9.5009226  32.1020508  27.7905774   9.1572720  30.9560037  28.7176490
  49.0150309  21.8158960  39.3499541  49.1469622  22.3373103  40.1417589
  49.7446728  22.0577741  38.7795568  19.5518696  39.6684694   4.7812039
  19.3556261  38.7672234   5.0370884  18.8013971  40.1746178   5.0923914
  33.8698745  35.1870418  -0.1020690  33.3677411  35.6103277   0.5942956
  34.3829846  35.8949924  -0.4916292  83.4468720  33.0570622  81.0671506
  82.6005862  32.7013513  81.3382701  83.7733654  33.5151120  81.8416331
  89.7213999   8.7045642  66.9340161  89.5047323   9.6111413  67.1517352
  90.1009468   8.7530967  66.0566214   9.2704695  57.4379444  12.9965186
   9.4770700  56.5751791  12.6371050  10.0891256  57.7338839  13.3945835
 107.3837852  65.0700521  19.3986571 107.5888189  65.6029892  18.6304307
 108.0817505  65.2703524  20.0223207  18.6512148  35.3094554  31.9288278
  18.4620094  35.2504587  30.9923697  18.4845388  34.4280481  32.2628498
 110.9812245  60.9662056   7.5922424 111.1526239  61.8502808   7.9166895
 111.2618807  60.9882164   6.6773766  51.8147850  59.9837685  10.4117775
  52.6077604  60.3791666  10.0497293  51.1000729  60.5126047  10.0571668
   7.0568883  42.5966978  20.9711719   6.6562295  41.7351198  20.8554745
   7.8311741  42.4305248  21.5088534  67.4642490 101.3670790  76.8314246
  68.1747507 101.5950501  77.4309639  67.6111244 101.9206535  76.0644737
  36.7536893  91.7239511  79.2087249  36.5875106  92.6354277  78.9682618
  36.5788778  91.6886556  80.1491646   1.6276179  72.2203445  24.9148512
   1.8956034  71.3142729  24.7617006   2.4353674  72.6704788  25.1621366
  63.2083324  52.5413915  85.3283343  62.6685969  52.7533265  86.0899130
  62.6272765  52.0421525  84.7544310  41.8649939   6.7555829  75.0772051
  40.9797744   6.4543410  75.2818230  41.8782095   7.6699372  75.3600768
  54.4483963   4.1025945  64.0168766  55.2362958   3.5786792  64.1616491
  53.8556842   3.8438197  64.7225383  38.3432007  38.4569669  22.2023129
  37.4571633  38.5144544  22.5598931  38.8026428  39.2074966  22.5789404
  23.0806136 100.0456142  31.8241882  23.4287691 100.6254482  31.1468339
  22.5022554  99.4463348  31.3523817   9.6362805  60.4114151  33.2247686
   8.7516773  60.1282454  32.9934144  10.0348973  60.6577253  32.3901010
 103.7629851  35.2372169  18.6029935 104.5385399  35.7812786  18.4660876
 103.2804277  35.2962208  17.7784407  71.6956877  97.0525562  65.1362899
  71.8034147  97.7486670  64.4881681  72.4913382  97.0940315  65.6668118
 102.5170573  55.2250910  45.7348728 102.1622696  54.3504906  45.5754042
 103.4626564  55.1233816  45.6265688   4.4770116  77.9480457  26.4596128
   5.2742600  77.7368593  25.9737873   4.1949874  78.7902117  26.1026096
  22.9294276  77.8771877  11.2650287  23.0685520  78.5013676  10.5527949
  23.7296009  77.3521900  11.2831295 106.1647930  89.6836376   3.2555178
 105.2259787  89.8323536   3.1426275 106.2204834  88.8555145   3.7323210
  33.3357763  91.8652916  41.8461037  32.9086447  92.4684906  41.2378740
  34.2713428  91.9787693  41.6785669  66.4522743  67.3817873  39.6929049
  66.1249399  66.7048693  40.2852440  67.2334337  66.9958878  39.2965388
  75.2549719  18.1774350  76.9067243  74.7201367  18.4766313  77.6420239
  75.2996734  17.2273227  77.0140485   3.3310139  95.8966827   9.0190595
   3.2703832  95.0024223   8.6831343   3.4243798  96.4405251   8.2369167
  85.8425931  22.5191232  76.9269386  85.9216706  23.2998010  76.3787452
  84.9090341  22.3083516  76.9103280  91.7609481  21.8098136  59.6675352
  90.9221689  21.4864369  59.9963311  92.3433057  21.7800494  60.4266170
  29.0242815  35.0448537  17.6089489  29.0361381  34.7733784  18.5267687
  29.6267247  35.7877278  17.5711071  35.8038998  43.3074808   4.3604800
  36.5316439  43.0912590   3.7774986  35.9068990  44.2429161   4.5353606
  36.2260524  14.0691003  10.5265307  36.5999412  13.8220891   9.6807033
  36.9307825  14.5396718  10.9716749 110.5821661  68.4693833  68.3806304
 111.0372189  68.7653657  69.1690162 111.1410621  68.7576886  67.6590017
  15.8330631  60.6410837  27.9898810  16.0155427  59.7612762  28.3198452
  15.9541655  60.5716276  27.0429158  80.4629692  18.0475247  14.2266858
  80.0395664  18.6842310  14.8025024  80.5405387  17.2565687  14.7601688
  41.1960745  77.5480938  33.7806559  40.8389568  78.0186892  34.5338082
  41.0145330  76.6267014  33.9658904   9.5324606  61.8950033  11.8219101
   9.4509178  61.8525839  10.8691335   8.8522267  61.3052368  12.1470094
  39.6951604  73.9505053  56.3212490  39.8137116  73.8831139  55.3738117
  40.5776787  74.0927124  56.6635418  14.3263435  80.4629707  43.1713867
  14.3545318  80.2553177  44.1053629  13.4762347  80.1346302  42.8785753
  16.5954101  16.7546034  50.7450056  16.3232946  16.8848991  51.6534138
  15.9285069  17.2065079  50.2280378 104.5736536  38.5197401  63.8028097
 104.8337951  39.4245648  63.6300421 103.8906046  38.5900760  64.4696903
  52.8142071  76.6237164  24.5896220  52.1005058  76.0263014  24.3661094
  52.4172306  77.4940920  24.5565510  17.7591157  87.9116821  40.8350992
  17.7494287  87.2757053  41.5504026  18.3322513  88.6126518  41.1455822
 105.1108714  80.5011940  25.5256701 105.4069748  79.9117613  24.8320365
 104.4648733  81.0655212  25.1008725  14.2580600  65.6441136  73.3822540
  14.1848417  64.9471971  72.7302042  13.8284202  65.2898141  74.1607836
   4.4060388  71.5364552  30.5882931   4.6578336  70.6632090  30.2878451
   3.7339064  71.3771963  31.2509441  58.0000667   3.5253629  20.0627708
  57.8829341   2.7995118  20.6756830  58.2385163   4.2695245  20.6155705
  30.8800173  72.8299570  14.3201685  31.5441155  72.3191166  13.8572967
  31.3448095  73.6110735  14.6202517  64.9843905  41.9976159  90.6691496
  65.5260364  41.6056462  89.9841568  65.5028549  41.9026395  91.4681528
  45.3764153  75.5029392  23.4317660  45.6508112  75.6902361  22.5340724
  46.1376095  75.0828266  23.8321733 103.0000778  55.1642656   8.9708287
 103.8187792  54.9741411   9.4288808 102.3162880  54.9700642   9.6118820
  37.2926235  66.6599321  22.8028178  37.2443581  66.9076681  23.7261438
  36.5405297  66.0829115  22.6700211  31.0331957  14.0295609   9.4689858
  30.5376487  14.7991475   9.7489822  31.9143532  14.1735085   9.8140562
  36.6720004  31.7314454  90.6563616  36.1774917  31.2414666  91.3133317
  37.0179839  31.0607263  90.0675833  61.3190738  28.3087464  80.8881012
  60.9025112  27.4642535  80.7162408  62.0167307  28.1090566  81.5123067
  37.6307297  88.5814857  15.7247114  36.9480538  88.2973480  16.3325381
  37.5886416  87.9511356  15.0055993 107.4281236  74.7247028  11.8308115
 107.1444314  75.3391075  12.5077581 108.0829125  74.1769171  12.2637248
  31.3684702  88.7421799  46.2826920  31.3250184  89.6951580  46.3612700
  30.6415129  88.4243107  46.8181562   5.1139064  30.6832524  86.5172697
   5.7095761  30.4879399  87.2406373   4.3674750  30.1007100  86.6577009
  20.1356530  74.7434902  31.8058443  20.7564998  75.0724316  32.4559069
  20.3608537  73.8185167  31.7061353  56.5710258  69.2392302  15.7627797
  56.9680500  69.6670580  15.0041199  55.6575251  69.1041803  15.5107570
  38.1497240  74.3316555  44.4098997  38.9468122  74.4037724  44.9349546
  37.9482341  75.2321482  44.1554546  15.9105468  82.7464390  52.8813553
  15.2678895  82.1730518  52.4636841  15.8884013  83.5498238  52.3614359
  20.6164718 102.8181934  28.9188719  21.4746070 102.5223732  28.6150122
  20.2080560 102.0333004  29.2840672   3.5929283  91.5302372  37.7607846
   2.7779126  91.1628056  38.1027961   3.3671555  91.8378735  36.8829346
  10.9116423  81.8876553  23.7721395  10.6712043  82.0080662  22.8534865
  10.8240032  82.7588749  24.1588330   4.5798093  82.1559238  16.0937321
   4.5650885  83.0906487  15.8880246   4.1789734  81.7367554  15.3322470
  20.2899575  86.2124062  30.4648829  21.1550403  86.6215897  30.4442191
  19.7116852  86.8538284  30.0520730  25.7226539  56.6807222  48.7619162
  26.2037086  56.4168692  47.9775667  25.8149242  57.6330376  48.7904453
  74.0976811  13.0314609  83.4736708  74.0966306  12.6272079  82.6060251
  74.7185844  12.5084802  83.9808205 110.1256303  28.9882203  88.7931882
 109.8161272  29.5717736  88.1004388 111.0800413  29.0356370  88.7376668
  18.5071921  61.0790586  25.1733565  19.0197551  61.2644243  25.9602189
  18.9050138  60.2882862  24.8091412 110.7124447  71.9790840  30.4834890
 111.6205491  71.7553234  30.2797508 110.1939356  71.4560747  29.8720646
  21.6367269  98.6637306  29.7258234  22.3347616  98.0088139  29.7334576
  21.2118292  98.5510159  28.8755369  21.2965298  57.8653431  32.9945946
  21.0236859  58.5126400  33.6448216  21.6524839  58.3851194  32.2739315
   2.9885682  88.0059719  19.5152271   3.6800295  88.6422729  19.6975338
   2.9398113  87.9723740  18.5598600  17.3162408  30.0687047  79.0167526
  17.6572128  29.5198937  79.7229937  17.9101033  29.9109288  78.2828132
  21.4479971  85.0652218  14.3398738  21.0543752  84.8988914  13.4833539
  21.0178685  84.4426823  14.9261045  52.2235298  88.6960411  31.3126397
  52.7667809  88.8044643  30.5320263  52.6131582  89.2845631  31.9592237
  92.1020833  13.1117793  77.7841822  92.6494113  12.3902627  77.4742142
  91.8724326  13.5960361  76.9910935  48.1432962  83.1086349  67.2866249
  48.8983297  82.5217152  67.3277140  47.9522705  83.1880760  66.3520479
  69.6980952 102.9727184  89.1562370  69.4552325 102.9392874  90.0815113
  70.6529044 102.9051125  89.1566322  28.2099390  89.8154449  29.2062759
  28.7559533  90.0858784  29.9444914  27.4786496  90.4330444  29.2103529
  10.4056859  60.7613468  35.8595419  10.2227032  60.7459974  34.9201179
  11.2700224  61.1667871  35.9286022  91.0683616  86.7999077  11.0404766
  91.6528758  87.5495911  11.1525249  90.1912411  87.1572685  11.1789787
  32.3518682  58.7428474   7.8455222  31.6689825  58.2273436   7.4163932
  33.1432128  58.5613537   7.3385084   3.9550993  66.6481161  31.1721683
   4.5309120  67.4124765  31.1515331   3.1656423  66.9304323  30.7103348
  45.8356380  73.0724430  14.2631650  45.8085203  73.8675833  14.7953725
  46.6096830  72.6026821  14.5736647  58.0147266  67.7944231  13.1912971
  57.2680950  67.4160957  12.7269292  58.0574226  68.6985111  12.8797865
  30.3824830 100.8552551  19.8838842  29.8086119 101.5926266  19.6760631
  31.1196065 101.2494564  20.3502393  49.5435953  85.4522324  43.7319231
  50.4895020  85.5530357  43.6254692  49.1881371  86.3223743  43.5510063
  24.9749756  71.0966444  55.8234930  25.1728201  70.8728743  56.7328978
  24.0578985  71.3704777  55.8382893  82.2203907  75.6191540  21.1863303
  81.4328536  75.6581545  20.6436539  82.6368197  76.4725542  21.0658002
 103.1463733 100.5303574  62.6652193 103.7857243  99.9028873  63.0024862
 102.6309922 100.7824326  63.4314299  15.5284429  86.1465931  21.1425710
  15.1442242  85.7432556  20.3641534  15.1420498  87.0217609  21.1743522
  58.4800529  61.2089300  25.5896926  58.9020538  60.4384947  25.9699321
  57.7761221  60.8532381  25.0472975  53.4787703  84.5872498   5.1698345
  53.5607338  85.3690624   4.6236846  54.2694569  84.5879936   5.7093269
  24.4348764  84.7736263  53.1875086  24.3664622  83.8616180  53.4699869
  23.5961604  84.9567890  52.7641439  20.2247787  82.4890900   9.6041483
  19.5400465  82.0639324  10.1204991  19.7829914  83.2247162   9.1799939
   5.7819927  65.2424955  34.1148901   5.3642577  64.8038673  33.3737183
   5.0540465  65.5122375  34.6748590  39.1546965  49.4935942  32.3313808
  39.2398715  49.0650940  33.1830668  38.4497428  49.0170908  31.8929601
   0.1859303   7.0947619  88.8476342   0.8881159   7.7442571  88.8840241
   0.5800529   6.3402005  88.4099855  31.0473228  62.3948050  13.2080615
  30.3158331  62.1622229  12.6361680  30.9507680  63.3365679  13.3494401
  27.1639991  68.3409166  35.8955526  27.9890966  67.8755617  35.7581019
  26.6358995  67.7414799  36.4228272  12.5104976  78.8845634  12.1109462
  13.4437466  78.7091684  11.9904637  12.3626494  79.7153568  11.6591156
  59.9981455  19.0886279  58.2008270  59.8924867  19.9296876  57.7562073
  59.2177812  19.0079232  58.7492350  37.3859262  95.4944420  31.8508387
  37.5274873  94.5714569  32.0612788  36.9932532  95.4835987  30.9779572
  37.5782824  44.6517706   8.3897483  37.5973487  45.5026197   7.9516548
  37.3126459  44.8505688   9.2876053  16.2502062  75.9923887  34.9793744
  16.2092113  76.8511105  35.4002666  17.1813631  75.7706356  34.9778032
  85.8724880  33.7307286  11.5241516  84.9327183  33.5841751  11.4165270
  86.2834358  33.0059576  11.0529208  34.5462203  75.6967258  36.3522315
  34.7072864  75.0136948  35.7012630  35.4193044  75.9921265  36.6104889
  85.0489525  23.6077090  86.2386913  84.9610547  24.3903943  86.7826638
  85.6874636  23.8521071  85.5687616  52.0051003  65.2665997  20.1156497
  51.2200403  65.7401085  20.3907895  51.9719839  64.4438839  20.6037784
   0.0124890  81.3808441  21.3086414   0.8032981  81.3804626  20.7693338
  -0.5723520  82.0027542  20.8757210  51.4078634  12.7461251  14.5307994
  51.9705586  13.5099992  14.4038725  51.0795288  12.5423440  13.6550701
  51.7060471  96.9800091  37.7090001  51.4693785  96.8813133  36.7867875
  51.0784054  96.4297867  38.1775618   0.0999238  72.7548218   0.5637139
   0.2678294  71.8129349   0.5934681   0.0469167  72.9592848  -0.3698901
  18.3783495  81.7676353   6.6150814  18.4315562  81.7346668   5.6599301
  18.5749435  80.8742332   6.8968970  19.8696756  35.2756095  20.9893084
  20.0247598  34.5226622  21.5596175  20.4537201  35.9552479  21.3257837
  48.2232618  99.6611881  60.2727079  47.6725245  99.2947865  59.5808458
  48.7530994 100.3247452  59.8309040  51.6102791  70.8366776  29.4252181
  51.9891930  70.2368402  28.7826800  51.7856789  70.4238701  30.2708292
 100.9661981  80.6283760  10.1420653 101.3616165  81.4820862   9.9658382
 101.0116550  80.5352020  11.0936356  88.7523476  22.8087016  88.8986126
  89.4146768  23.0769416  88.2617462  87.9656652  22.6545640  88.3755401
  32.0968127  63.7578630  19.8939300  32.1654105  63.9450502  20.8301401
  32.9988980  63.6025810  19.6139991  17.0979702  29.7787762  32.4970222
  16.7911911  30.0584888  31.6345382  17.0854115  30.5764365  33.0259919
  97.1049865  69.1666508  59.4797707  96.8815204  69.0071535  60.3967524
  97.2251960  70.1146269  59.4239378  40.8793497  86.9601917  64.2157459
  41.8238831  87.0817375  64.3122959  40.6856632  86.1738110  64.7259617
  19.5866132  33.7499762  15.3016925  20.3196907  33.5109663  15.8688819
  19.2055309  34.5240450  15.7162142  31.0691977  52.5182962   9.5554137
  31.9772291  52.7995539   9.6676809  30.5527806  53.1967783   9.9903911
  13.9779007  73.6572981  17.3115468  13.0729902  73.5731363  17.6120222
  14.4755793  73.0732632  17.8837824  16.0313547  79.3210840  33.0503178
  15.1585066  79.6667862  33.2370162  15.8936810  78.6934710  32.3408246
   7.3746157  45.8424664  30.9570122   7.7048016  45.5494642  31.8063402
   8.1596226  46.0826159  30.4647470  46.9616365  69.8666096  27.9032612
  47.2183228  70.0449610  26.9985318  47.6328802  70.2978563  28.4321165
  21.6011953  30.1121855  10.5273747  22.5020337  30.4312420  10.5814481
  21.3102436  30.0608039  11.4378357  24.1832328  72.7286911  38.6726236
  23.9539027  73.5612583  39.0855026  25.1010394  72.5901747  38.9064503
   4.5217574  83.5416126  26.4636302   4.7418898  83.9106846  25.6083226
   3.6145413  83.2502651  26.3724661  54.2457104  80.6771660  20.7707334
  54.0118122  80.9225750  21.6658854  54.3159389  81.5102291  20.3045821
 106.4262455  63.7969923  27.1328545 106.7241307  63.0227900  27.6104546
 107.2316980  64.2160177  26.8297124 103.4882811  42.5037023  77.1137825
 104.2346100  42.8772756  77.5824670 103.1282238  43.2363626  76.6139833
  44.3887261  38.0998631  89.1484824  44.0019921  37.8381177  88.3129210
  44.4092778  39.0562078  89.1137763  99.8286680  42.0795365  85.0407550
  99.0429095  42.3888513  85.4914615  99.6489934  42.2334023  84.1132454
  24.0462041  86.2374592   4.0016779  23.7671041  86.9535542   4.5722413
  24.2624617  85.5236053   4.6015793  80.3065162  16.1950501  55.0173998
  80.2837806  15.4994115  55.6745148  79.5286517  16.7222413  55.1996899
  83.3587798  61.4442062  15.7368386  84.0440377  60.7951450  15.5775547
  83.5900792  61.8348169  16.5795469  54.1775608 101.5068436  40.7332373
  53.6737967 100.9939575  40.1012564  53.5789776 101.6350555  41.4690971
   1.5952247  91.7633343  87.3246765   2.1812037  91.0087299  87.2661114
   1.9607468  92.3987579  86.7091656  51.3415623  58.0902576  13.9549005
  51.0538912  58.2876730  14.8462486  52.2370386  57.7681971  14.0580297
  82.0875356  13.1735059  75.8038238  81.3492814  13.0522796  76.4009134
  82.8429554  12.8364345  76.2854413  54.2710833   4.6301660  36.3321853
  55.0575440   5.1362142  36.5362000  54.5185296   3.7221536  36.5068674
  61.0807662   8.1815633  21.7249203  61.7875628   7.9353055  22.3216033
  61.4926891   8.2018479  20.8611250  57.3752764  19.7059842  80.0734559
  58.2603053  19.5709582  79.7347478  57.2088043  20.6395503  79.9431769
  38.7773204  77.5987339  12.8489053  38.2018256  77.9279709  12.1585119
  38.6585712  78.2133389  13.5730565  96.0255054  35.4489633  67.3364142
  95.2121476  35.1367780  66.9399074  96.6528395  35.4668637  66.6136650
   1.2777789  92.2471237  11.3983500   1.0466506  93.0704594  10.9683013
   0.6980591  91.5978813  11.0000515  84.3570622  84.3227386  46.6542721
  85.2826246  84.5342922  46.5325689  83.9440521  85.1622677  46.8563843
  17.2274864  77.0427227  37.5252366  16.5248477  77.5568056  37.9230452
  18.0276489  77.3764992  37.9309034  17.4105036  94.1460705  39.9988461
  16.8722737  94.7418499  40.5199909  17.8585875  93.6005878  40.6452990
  92.0686766  90.6471825  26.8248343  92.7181026  90.5136871  26.1344314
  91.7696401  91.5480614  26.7014217  60.6186013  18.0379685  20.4900670
  60.0767379  18.7495812  20.1491570  61.5135197  18.2861813  20.2582431
  77.6239920  23.1312915  88.9945968  78.1742767  22.4465247  89.3747396
  76.7409948  22.9277059  89.3029801  38.0000091  92.6485634   5.6956398
  38.6266351  92.5592518   4.9775904  38.3004522  93.4165573   6.1815870
  99.8235372   4.1029140  81.0874668  98.8763670   4.1342326  81.2220720
  99.9729804   3.2765409  80.6281153  15.3368525   4.0741071  14.2125928
  14.6980576   3.9401158  13.5124362  15.6544308   4.9672040  14.0793729
  36.4401460  70.9726477  23.7128115  37.3150253  71.0938311  24.0817714
  36.0471058  70.2843571  24.2494726  88.4705309  41.5424558  82.0329664
  88.4072200  41.2632295  82.9463432  88.7927417  42.4426003  82.0794753
  80.8468596  49.4724103  75.3376952  80.2695481  48.8043424  74.9680618
  81.1076859  49.1195127  76.1883811  81.6439724  58.8332796   5.3921318
  82.5740814  58.7153244   5.1992190  81.5326786  58.4655094   6.2688243
  20.4983807  68.8952446   4.8891586  20.4465342  68.8878822   3.9333922
  21.3236713  69.3406487   5.0808316  44.6695375  76.0736465  14.4086778
  45.0318670  76.9462729  14.5618820  44.8539305  75.8962965  13.4863007
  67.7089784  14.5085355  73.0578450  67.4654684  13.8140460  73.6699060
  68.6277798  14.6904250  73.2552067  43.2909727  78.6210442  11.4072537
  43.2693911  79.3055582  10.7385194  44.1850138  78.6473751  11.7481768
  11.7211139  61.9113874  44.0825939  12.1687686  61.4160347  44.7684956
  11.6245961  62.7913094  44.4468164  42.8868484  89.3407917   8.3662343
  43.5606003  89.6386623   8.9774358  42.4087048  90.1358795   8.1307375
  29.0542412  24.2788768  15.5995488  28.1617808  24.5621896  15.4008520
  29.5594001  25.0908089  15.6421137  53.3488945   3.7819167  79.3099300
  54.0078501   3.4999105  78.6755136  53.8556961   4.1440078  80.0367550
  10.7946169  84.3673134  27.1974516   9.9314392  83.9658737  27.0974040
  10.6344509  85.3063011  27.1032214  27.5312829  70.0267315  16.0110748
  28.2328534  69.4014931  15.8291256  27.9719901  70.7660198  16.4299560
   9.4782634  18.9267512  89.3261052   8.7061734  18.6943217  89.8419363
   9.1249032  19.2347833  88.4915479   5.9907931  90.2771187  37.7110410
   5.0520504  90.3949451  37.8563356   6.1970878  90.8680153  36.9868088
  12.5066495  90.3041840  22.4347210  11.7066681  89.9390602  22.0566416
  12.3017681  91.2273598  22.5830674   7.4838817  64.4531155  38.2585621
   7.6724195  63.7950802  37.5894737   6.5809840  64.7193336  38.0849671
  11.9803329  13.6756392  89.0611785  12.2786803  14.5538875  89.2976070
  12.7232356  13.1074162  89.2647744  56.7219925  84.1337395  12.7901888
  56.5330076  84.9974060  13.1570470  57.4596977  83.8101101  13.3071864
  18.7382472  80.8811378  38.8010216  18.2289708  80.7626820  37.9992509
  18.5161793  81.7637157  39.0976191  28.3430290 103.9927387  47.1036816
  29.1133952 104.3665218  46.6758347  28.1094837 104.6315956  47.7771425
 103.5828403  17.3420211  88.2997141 103.2487277  18.1616469  87.9352817
 104.1880897  17.0134421  87.6349244  72.2936916  83.3213711  16.2209046
  72.1561909  84.2243958  16.5070331  71.5279007  83.1214714  15.6825399
 110.8877066  26.2559434  81.4436517 111.3737611  25.4347201  81.3690129
 110.0329093  25.9978410  81.7885253  28.7498665  74.9335146  17.8730178
  29.6886587  74.9986696  18.0481124  28.6789155  74.9967527  16.9205475
  99.7281293  39.3175336  69.0383485  99.3857626  38.4418126  68.8590888
  99.0494398  39.9106332  68.7160996   6.0047054  61.2467861  38.7319160
   5.7206708  61.3516665  39.6399665   5.4482996  60.5489445  38.3859968
  31.7141294  87.2199631  62.2951841  32.2457671  87.6569462  62.9604959
  32.3458099  86.9263458  61.6386795  72.3549080  76.9161606   7.1613276
  71.5711355  76.7733908   6.6307151  72.0402288  76.8910360   8.0649740
  72.0651388  84.2255211  36.3705969  71.2662458  83.7153053  36.2376547
  72.6363039  83.9692020  35.6465054  83.3596381  59.3079519  10.2549040
  82.4151882  59.1802549  10.1657975  83.5714420  59.9851274   9.6124053
  96.5445813  51.9742298  15.1464844  96.2365814  51.7501116  16.0246301
  96.3998076  52.9177475  15.0754333  42.9844947  50.3831883  87.9917434
  42.0311208  50.4681989  87.9824430  43.1617065  49.6144029  87.4497158
  15.0723386  87.8875923  12.7335429  16.0134029  87.9866982  12.5892925
  14.7103548  87.7398300  11.8598342  43.2426643  59.5767164   3.9148250
  43.2946301  58.7916517   3.3696553  42.9832315  59.2526293   4.7773185
  40.8421707  60.8199072  17.7496624  40.3447962  60.3635740  17.0709789
  40.1767302  61.2556505  18.2821524  31.2841153  89.9796772  30.6257558
  30.5754137  90.1941872  31.2323523  31.5868783  89.1162300  30.9068680
  65.8662081  82.5945377   0.5919868  65.0310087  83.0556393   0.5141728
  65.6252432  81.6696167   0.6437851  78.4897375  91.1297798  26.3766599
  78.8095999  90.9405041  25.4945660  78.8626385  91.9856167  26.5881419
 110.4046968   4.3656226  89.7956441 109.4478468   4.3596478  89.8208137
 110.6212763   4.1926881  88.8794467  19.5869601  84.9662781  27.6102185
  19.6143663  84.9870205  28.5667992  19.1707289  84.1301918  27.4006033
 109.6905210  60.1861286   3.6244693 110.5895073  59.9370956   3.8390332
 109.7780620  61.0105848   3.1460980  70.8935992  20.2711888  86.3139043
  71.8224699  20.0423261  86.3463328  70.5764467  20.1116820  87.2028378
  38.4365559  89.5155716   8.7457168  37.9537034  88.9998341   9.3915474
  37.8577995  90.2512264   8.5454935  82.5432973   9.3463811  37.2353315
  82.5319009   9.6576795  36.3302374  83.2091431   8.6587628  37.2437477
  60.0818205  82.1361828   4.5212683  59.4301510  82.4049091   3.8736996
  59.5664978  81.8576145   5.2782881  98.2063039  69.6269560  65.8528185
  97.8676256  70.1307678  65.1127481  98.4084734  68.7668705  65.4845667
  26.3523459  93.3086014  51.2979698  26.1249423  92.3858070  51.1840200
  27.2185230  93.3928108  50.8993769  86.0695652  12.0248719  73.9241663
  85.3788844  12.6867887  73.8915900  86.8383673  12.4627515  73.5588733
  67.5877002  63.0326768  82.7747778  67.5724355  62.4336358  82.0283506
  67.4152646  63.8939019  82.3942772   9.7406256  83.9556789  43.1965828
  10.0341761  83.0555439  43.0558348  10.0797141  84.1856956  44.0616560
   4.2384079  93.0742836   7.1943378   4.3661809  92.6396751   6.3511163
   3.6148790  92.5163746   7.6592934 107.5329768  93.2961941  45.3739595
 107.3705482  93.1354713  44.4444323 108.0379998  94.1091347  45.3917837
   5.2894133  47.6212120  27.3969126   5.2256107  48.1545019  28.1892276
   6.2209439  47.6296568  27.1768856  30.0301909  93.7798882  11.1063230
  30.1509261  92.8669739  10.8450675  30.8572602  94.0210056  11.5235162
  25.3347468  76.4391851  55.9046412  25.8321261  75.6779385  56.2035561
  24.4806528  76.0850477  55.6569624 110.4073834  82.0041084   8.9569491
 110.8172749  81.6549301   9.7483373 109.7320908  82.6005459   9.2801762
  15.5829823  63.4391499  28.2097912  14.6607327  63.6290359  28.3819366
  15.6607175  62.4936819  28.3373594   4.9012846  91.6261768  16.8976247
   4.4599381  90.9759712  16.3511109   5.5890912  91.1345959  17.3465180
  38.0097103  86.8190956  41.8023968  38.3343029  87.7195454  41.7943811
  38.4548426  86.3974857  41.0673237  26.0376668  34.1500473  22.0992494
  25.1959443  33.9878464  22.5251889  25.9112167  33.8531876  21.1980748
  98.9714769  19.9037238  88.9108272  98.4164599  20.4140636  89.5005236
  99.8476652  20.2704402  89.0293500 100.6325082  27.3751327  85.4074422
 100.7663087  27.7739163  86.2672672  99.6823434  27.3683377  85.2918152
   5.4376435  98.8839722   8.5799837   6.1145896  98.3645630   9.0137893
   5.0838268  99.4423962   9.2722368  49.7716284  40.9499216  14.3013024
  49.3552494  40.6205893  15.0977945  49.6249008  40.2618456  13.6522579
  55.1529837  81.9976044  79.7006273  55.0397348  81.3880157  80.4298782
  54.2758846  82.3463535  79.5415688  49.6876860 101.9973946  18.5322690
  49.7243023 101.2176228  17.9783440  48.8309765 101.9497776  18.9565563
  17.0288253  72.2965431   7.0173293  16.6777396  73.1437635   6.7431152
  17.4266219  71.9345140   6.2255448  85.4971865  30.4190560  51.9824508
  85.9334902  29.5693322  52.0444802  85.6536809  30.8312436  52.8320626
  81.7882447  20.5099210  24.1661572  80.9601979  20.1515111  24.4857073
  82.2622351  19.7511205  23.8258767  13.9108944  61.9157171  22.3116064
  14.7676468  61.5981770  22.0263433  14.0388274  62.1592569  23.2284236
  85.4568513  77.9064131  28.0764437  85.1804217  78.8226557  28.0943489
  84.6436318  77.4091434  28.1637788   7.5818211 104.8103905  37.5722218
   7.1805632 104.4962502  36.7619491   6.8781537 104.7687054  38.2197905
  14.3552537  36.2397214  73.5990730  14.0561910  35.4753800  73.1065491
  14.9703880  36.6779252  73.0110065   9.1264594 103.3548260  30.0057030
   8.3142424 103.8206959  30.2044415   9.5840609 103.9243317  29.3872476
  19.5198679  88.2819843  21.1662912  19.7135186  87.3576736  21.0101414
  19.0466344  88.5631657  20.3832078  20.6272268  44.7459316  10.1345026
  20.0442076  44.1355228   9.6831447  20.3581095  44.7001600  11.0519528
  98.2650093  10.2978488  64.0826539  98.2471637   9.5627757  63.4698085
  98.0013016   9.9175664  64.9205521  49.6100092  87.7699280  20.1142931
  49.9315357  87.4517822  19.2707074  50.1145411  87.2795486  20.7632995
  84.1502914  48.5420438  69.0856675  83.8283799  49.2603227  68.5409931
  83.3687249  48.0297681  69.2929486  34.2130208  90.1144791  52.3674440
  33.6086369  89.9514771  51.6433001  35.0828981  90.0277424  51.9775486
   2.5587338  69.2241573  41.9515800   3.1265682  68.4535837  41.9551325
   1.8672064  69.0092039  41.3256264  87.1823220  10.7620915  41.5141869
  86.6018538  10.5762395  40.7761240  87.9763608  10.2616414  41.3263416
  81.8469802  70.6012364  69.5938471  81.1172113  70.1646253  70.0332097
  81.7288063  70.3915616  68.6674002  29.6690226  95.3159046  25.6467366
  29.6540952  95.9484673  26.3649774  29.7422862  95.8518600  24.8570418
   4.6720651  80.8688736  21.8632698   4.4538668  80.0338650  21.4492822
   5.5660748  81.0527897  21.5749073   3.9097161  54.1079160  79.6868471
   3.8124747  53.2178803  79.3483010   3.2167716  54.1920873  80.3418068
  11.9169605  95.8937168   3.7628412  11.4523745  95.9375477   4.5985866
  11.2233138  95.8310509   3.1062144 107.2969910  86.3715267   6.8746722
 107.9791250  86.7759705   6.3386202 107.1584501  86.9895649   7.5923568
  50.1669741  71.8634462   7.2819048  49.8640013  72.4452543   7.9789966
  50.3602934  71.0378790   7.7260846  98.5540322  82.2592946  67.0801905
  97.9832915  81.8094560  66.4571885  98.0648259  82.2502538  67.9028848
   2.4561186 102.4696561  90.0099312   3.1352182 101.9021913  89.6451946
   2.6413341 102.4918767  90.9487781  40.8651114  84.4427776  53.2793808
  40.5985355  84.0318680  54.1017675  40.0418997  84.6446514  52.8346300
  68.4859848  59.4612074  25.8980107  68.9415503  59.5452023  26.7356515
  67.8015947  60.1296806  25.9294987  62.7896004   8.4981927   9.8950815
  63.6820941   8.2151135  10.0939596  62.3189668   7.6876744   9.7006649
  17.5076103 100.6160164  62.6176977  18.2949781 100.2192688  62.2450399
  17.3542368 101.3936138  62.0809937  23.9853883  84.4905376  18.4281886
  23.8072729  84.9080372  17.5854564  23.3827400  84.9157810  19.0382802
  26.4144087  53.8772011  22.1316457  26.4731097  54.8290873  22.2134447
  26.7089248  53.6948681  21.2393188  66.5362310  79.6214437  44.5548630
  65.6179905  79.3517590  44.5731735  66.9247723  79.2007017  45.3218317
  52.1523333  87.2951889  15.4230404  51.4893103  87.8868675  15.0673008
  52.7730322  87.8714275  15.8690464 106.9154195  36.4386388  79.4714276
 107.7150611  36.2412759  79.9591306 107.2032098  36.5191861  78.5620753
  66.7004251  78.6399984   5.7429451  67.3263884  79.3619823   5.7989818
  66.0866499  78.9076853   5.0589442  36.0260749  79.8279667   2.3759052
  36.9328284  79.7739124   2.0740636  35.8428192  80.7665634   2.4168603
  68.1250620  83.9167690  18.0085337  68.0037260  83.1731319  18.5988927
  69.0698814  84.0702248  18.0076814  60.3535871   0.2316579  45.7102394
  59.8156385   0.4055413  46.4826441  61.1274485  -0.2154056  46.0530376
  94.7877793  10.2658090  23.5508204  94.7178035   9.7964105  22.7195525
  94.3246655  11.0898789  23.4002733  40.2941179  66.1848402  25.1868916
  40.4200602  66.4754200  24.2836022  41.0916853  66.4584827  25.6399274
  50.6511736  85.6844425  21.6243672  51.2523985  85.1909828  21.0664606
  51.1679029  85.9012222  22.4004030   3.0121226  10.6164094  89.1009591
   3.4708495  10.9470674  89.8732694   3.5409780  10.9162494  88.3616087
  49.8981810  73.5905981   1.3108860  50.6170368  73.2744122   0.7636178
  50.3297424  74.0499878   2.0312652  37.4884272  80.3528595  27.9719877
  36.9226718  81.1219215  27.9034090  38.2319379  80.6485653  28.4973288
   7.7418800   8.0510493  83.1197915   6.9718261   7.8707763  82.5805799
   8.4836621   7.9221841  82.5287059  50.0520039  98.5058403  21.8529391
  49.1469002  98.4061241  22.1480155  50.3955650  97.6127625  21.8280149
  28.2913136  91.0279465   3.8463390  28.1431508  90.7614803   2.9389945
  28.2445502  90.2128601   4.3460211  50.5131292 104.7853470  11.6917717
  49.6273756 105.0916290  11.4971900  50.4344893 103.8320446  11.7274320
  16.7618859  86.4850998  10.0968337  15.8084393  86.4019012  10.1126671
  16.9563746  86.8473721   9.2324460  98.8149670  32.6178857  85.0789330
  99.1667298  31.9390698  85.6548629  97.8650979  32.5346871  85.1629511
  15.6156933  88.2718372  23.0841732  15.2995324  89.1658020  22.9534078
  16.5377927  88.3758450  23.3190084  66.6414695   6.6915044  53.0843782
  66.7645221   6.1335286  53.8523340  67.1188717   7.4945458  53.2928133
  15.7027316  77.6336098  30.7258177  14.9923301  78.2065058  30.4371119
  16.3222742  77.6339722  29.9961591  85.6827787  42.9555627  89.8269487
  85.0859109  43.6480828  89.5434036  85.7192043  42.3520585  89.0848613
  99.0539960  39.8758336  80.9567568  99.9501303  40.1317330  81.1751447
  99.1538409  39.2153474  80.2711765  57.9526091  81.2410450  11.0094309
  58.5844374  80.8771133  11.6295779  58.4906864  81.6412926  10.3264189
  33.3886647  90.5625916  17.9815865  34.2897916  90.4943657  17.6660728
  33.0704880  91.3900280  17.6205647  40.2105288  10.3987416   8.2200640
  40.1190083  11.3459882   8.3229834  39.3797331  10.0422677   8.5346031
  42.8391647  78.8677740   7.9683161  42.1096516  79.2588615   8.4490299
  43.6130142  79.3310881   8.2888293  23.7329316 104.0816498  34.6945453
  22.9396439 103.7200642  34.2993546  24.1631269 104.5522022  33.9805794
  47.3631907  79.7337723  40.2409363  48.0176258  79.9286699  39.5701432
  46.6613531  80.3647900  40.0813293  57.9529052   0.4277619  14.0803826
  57.0570795   0.4379567  13.7433016  58.4988026   0.6087312  13.3152175
  78.1067328   6.9331368   0.6286015  78.6550002   6.5269765   1.2999204
  77.5458197   6.2233838   0.3157734  67.3481798  88.5131645  31.4538383
  68.2107973  88.1265450  31.3033605  67.2963572  89.2345619  30.8268356
 104.3429198  81.8587685  17.3776174 104.9064442  82.5533295  17.7185774
 104.0241148  82.1979332  16.5412188  98.7015275  18.0256101  67.6689080
  98.3891944  18.8487979  68.0444626  99.6539954  18.0701848  67.7528671
  90.7818513  14.7079572   5.9969312  90.1977210  14.4024571   5.3028882
  90.6967978  14.0511044   6.6879737  81.7544190  50.2019902  89.8122248
  82.3579798  49.5183583  89.5213725  81.6130838  50.0175115  90.7407843
  59.7887421  89.4202423  30.3699970  59.7940636  88.5366058  30.0020599
  58.9278841  89.7701359  30.1403618 103.6018113  83.8101884  67.4801162
 103.2381443  84.3138143  68.2083563 104.0252284  83.0592366  67.8960804
  41.9499969  71.1876774  52.0228672  42.0639563  70.4817867  51.3864994
  42.8397894  71.4067459  52.2994709 108.6036461  72.0491838  35.8093762
 108.6152854  71.5587807  34.9874282 107.9705744  72.7514887  35.6603146
 102.6006385  81.6100121  39.4657564 103.4194299  81.2637997  39.8206544
 101.9442984  80.9506035  39.6907520  73.7061386  13.8924321  33.8634491
  73.5891704  14.8424252  33.8550067  74.0586977  13.6868199  32.9976201
  34.2297268  88.0511093  13.6554289  33.6008787  87.5024319  14.1241884
  33.6961246  88.5568142  13.0424356  38.5181689  71.1152411  15.5810750
  37.8944731  70.6158304  16.1081624  38.8261366  71.8073034  16.1662579
  83.1681654  40.6168862  83.7797687  83.3309255  40.0637074  83.0157444
  82.9920737  41.4839669  83.4145305  11.1528249  27.2581264  90.8563576
  10.5301233  26.9624253  90.1922487  11.6773267  26.4824840  91.0551342
  60.6404924  84.9047089  14.4740438  61.5631914  84.6707535  14.3734694
  60.1870346  84.3798161  13.8144267  19.6243472  41.0190984  90.0674835
  19.3977590  41.2001439  89.1552818  20.4872699  41.4167901  90.1833955
  13.7934434  57.2185183  38.7682652  13.0115306  57.7695513  38.8030219
  14.5171666  57.8179407  38.9503455  65.9755564  94.1412735  48.4267044
  65.0804520  93.8653946  48.6239719  66.5132713  93.3776855  48.6365652
  51.9126753  22.7821561  80.4999295  51.8753508  22.2840997  79.6833650
  50.9966639  22.8949615  80.7537607  26.7363262  76.0938168   8.5893446
  27.4891782  76.4259338   8.1003249  27.0142579  76.1215591   9.5048857
  15.2945228  26.2631627  81.9286380  15.5737300  26.0147639  81.0474036
  14.6524854  26.9592687  81.7891613  52.2726576  10.3087815  25.8691239
  51.5639655  10.7675370  26.3202739  52.8312187  11.0073098  25.5280828
  32.9870749  82.5073147  29.8353744  33.0796957  81.5720463  30.0168324
  32.2733617  82.5584030  29.1995788  44.6677113  79.1129684  38.0222726
  44.2498302  79.2468214  37.1715713  45.5915976  79.3109560  37.8690886
   4.4661927  56.5130901  24.4199562   4.4755527  55.9792995  25.2144432
   4.4793737  57.4158859  24.7377968  85.4440789   2.4539956  18.4182751
  84.7038703   2.9729661  18.1036580  85.7575278   1.9890222  17.6425254
  79.5111523  50.8197423  78.9675513  80.1990507  50.5415936  79.5722512
  79.1879693  50.0056096  78.5815850   5.8665844   6.4120397  18.9689887
   5.2514549   6.8350514  19.5680749   6.4496609   5.9106835  19.5389962
  44.0461111  44.9755049  28.1312108  44.6932793  44.9765253  28.8364816
  43.8888931  45.9019709  27.9490733   7.7507704  96.9340706  10.0685537
   7.1331745  96.2740612  10.3835022   8.5675460  96.7356873  10.5265439
  41.0613060  86.3040066  16.8930948  40.3519487  86.9433975  16.9580483
  41.3079929  86.3130760  15.9682739  44.2786551  91.2460899   6.1051607
  43.8220644  92.0668125   6.2900364  43.7524080  90.5757999   6.5410525
  42.8727484  83.6235619   2.5068402  43.1093645  82.6981926   2.5694811
  42.9874372  83.9607811   3.3953014  42.7836180 101.4231586  50.8027315
  43.3166265 100.6744194  51.0701561  41.9062424 101.0608101  50.6796455
  14.5673108  93.6178112  14.8505986  15.1679671  93.1972408  14.2353225
  14.4093013  94.4845867  14.4764769  74.9285316  74.2098379  32.3840594
  75.8622456  74.2414093  32.5924206  74.5519209  74.9505329  32.8592134
  80.5354266   2.9143533   1.0912473  80.9404950   3.4114179   0.3805613
  81.2122493   2.8669366   1.7664465  41.3977861  71.4180088   5.8625752
  42.1553802  71.8317652   6.2762064  41.5955544  71.4378548   4.9262381
  49.9535036  99.4667721  30.5590940  49.7638369 100.0491905  31.2946510
  50.6366444  99.9198151  30.0648332  52.0264797  15.0875005  20.9228730
  52.8838341  14.6959981  20.7558346  52.2068481  16.0210713  21.0330367
  58.5090022   9.0838155   1.0232912  57.7020554   8.8093957   1.4589033
  58.4794836  10.0403222   1.0448827  10.2042079 100.0540447  16.4230490
  10.5871928  99.4657993  15.7722628  10.3159916 100.9286690  16.0505414
  35.0377607  84.3683434   9.0228152  35.1926041  83.4322929   8.8960856
  35.5322361  84.5881653   9.8123741  15.0169797  43.1132051  90.3439238
  15.0098558  43.7019654  91.0986047  15.7696815  43.3975240  89.8254332
  74.2524128  10.2278146  36.9555187  74.8533444  10.1421460  37.6956344
  74.6155004  10.9434995  36.4337945  57.5315456  23.3035191  27.7172184
  57.7022986  23.9208802  28.4285045  56.5997259  23.0991944  27.7959418
  40.4779577  88.2371616  58.7644625  39.7047257  88.5202789  58.2764101
  40.1262426  87.7409458  59.5035839  19.8387182  82.9121113  15.1094353
  19.3378329  82.1948147  15.4978168  20.0064087  82.6280880  14.2108572
  14.6761429  78.2725334  37.3764205  15.2530777  78.9179707  37.7848125
  14.0969014  78.7894011  36.8164587   2.7982707  59.7931787  87.6183454
   1.9987436  59.8722383  88.1386722   2.4995537  59.4720956  86.7675219
  25.8731103  48.6588240  35.7205224  25.3896379  49.0933561  35.0179052
  26.2585497  47.8876400  35.3046560  28.4046435  68.9572430  23.4726548
  27.6224399  68.4587097  23.2363176  28.4678054  69.6363783  22.8010798
  51.1626737   1.3177403  19.0450859  51.8158452   0.6296071  18.9183128
  50.8242421   1.1670598  19.9276924 109.9439085  75.2760124  26.0735989
 109.0206405  75.4942274  25.9463573 110.0227372  74.3754482  25.7589579
 108.3338836  50.2709695  76.4867071 108.2164339  49.6774217  75.7449964
 108.5797218  51.1060353  76.0886232  11.3591516  65.5823231   0.6699117
  11.5361285  65.2864027   1.5628524  10.7679772  66.3274527   0.7772665
  27.1686053  89.5783806  18.1603944  27.2393441  89.9346542  19.0459967
  26.2559867  89.2992115  18.0867255  33.3195014  52.0366498  87.8350911
  34.2190356  52.2763177  88.0578572  33.3867068  51.6314527  86.9704933
  14.0114582  71.7002010   7.6722664  13.9701700  71.0099697   7.0103663
  14.7499359  71.4540148   8.2292897  25.4473352  61.0963154  45.0680685
  25.5881643  60.1509428  45.0164270  25.4719186  61.3921928  44.1580772
  29.4578266  93.1841087   1.1446819  30.2192187  92.6572323   1.3874063
  29.7517300  93.6971951   0.3919562  28.1044912  72.6894426  13.4668314
  28.9949465  72.8785086  13.7627625  27.5517201  72.9041862  14.2182052
  33.3719110  88.0624962  10.5594182  32.8990340  88.1405163   9.7308457
  33.2589102  87.1468258  10.8143818  98.9606193  33.6487790  64.3732408
  99.5813493  33.0208989  64.7429517  99.2991117  34.5042153  64.6376089
  11.8404567  77.6444340   2.7739862  12.2069669  77.7304745   3.6540428
  11.2533569  76.8906307   2.8316796  25.9157133  92.3190594  29.1704965
  25.7020307  93.0949974  28.6523390  25.3209829  91.6429806  28.8457799
  78.1835704  13.7693795  31.3191128  77.4554114  14.3857869  31.2412715
  78.0344729  13.1330022  30.6198072  42.1569757   8.5188016   8.4505373
  42.3616426   8.6678037   9.3736517  41.4465614   9.1316041   8.2607698
  38.4372163  91.1551476  15.2082920  38.1226468  90.2620697  15.3485954
  37.6725197  91.7069912  15.3724360  20.3545852  57.4910470  77.4930803
  19.8431249  58.0428239  76.9013194  21.0610337  57.1452924  76.9475321
   2.9044962  70.1165676   1.3112746   2.0015222  70.1111650   0.9937210
   2.8441209  70.4696941   2.1989051  12.2900386  22.3752233  75.3213814
  12.3134084  21.6661283  75.9639314  11.8136211  23.0801888  75.7598833
  35.8232021  76.8035460  23.2046318  36.0878801  76.1894464  22.5197530
  36.6260886  76.9734478  23.6973166  22.7259011   6.6823169  83.6615083
  23.2646747   6.9454881  84.4076303  23.0819364   7.1762534  82.9229287
  85.2209096  22.6677045  36.9644690  85.5315785  21.7623528  36.9569707
  85.1922660  22.9187497  36.0412216  12.6083565  98.8721943  25.9738946
  12.9957306  98.9730644  25.1044130  11.7621613  99.3153095  25.9119797
  16.7662132  95.5643940  10.7931578  17.0798600  96.0979271  11.5233612
  16.8797374  96.1216831  10.0232375  93.7086610  57.6155015  80.1418880
  93.1072584  57.2639009  79.4854418  93.2039658  58.2943078  80.5899361
  24.3040442  90.3668118  28.1363297  24.1892958  89.5046711  27.7366090
  23.5527921  90.4612064  28.7219453 106.1081198  35.3652593  83.1619624
 105.9263328  34.5497437  82.6949248 105.3816370  35.4551145  83.7787131
  65.0511456  87.1290970  46.2302446  64.3447685  87.7507496  46.0547113
  64.6670008  86.4946842  46.8353748  55.8512776  47.9558476  27.6248431
  54.9676852  47.6496705  27.4205089  55.7215171  48.8232812  28.0081797
  77.4212551  61.9535589   4.2967069  78.2471609  61.4903688   4.1568261
  77.6457214  62.8787518   4.1974053  53.6836290  59.4992065  25.4771161
  53.6481905  59.6542406  24.5332217  53.2042313  60.2345562  25.8587837
  96.8149833  44.2186185  72.9245881  96.6821150  45.0143834  73.4396986
  97.1976379  43.5949346  73.5417024  15.9108396  33.7607308  76.6421357
  16.3329978  33.2854196  77.3577408  16.0423560  33.2042142  75.8745280
  53.9762192   9.4924077   3.0155614  53.8534026   9.6382150   2.0775391
  53.5874955  10.2624043   3.4305623  22.5003143  49.7689649  89.4197429
  22.1839900  49.6838590  88.5203378  21.8601699  49.2890187  89.9451991
  29.8152900  92.8783512  26.6221428  30.6715298  92.8844643  27.0499849
  29.7008348  93.7733364  26.3025498  39.0625715  89.3473053  41.6121149
  39.2267728  89.7748470  40.7715940  39.4910383  89.9116611  42.2556496
  14.9337363  96.4794827  24.5287991  15.3940415  96.6063786  23.6991930
  14.3506837  95.7375431  24.3681526  15.9843397  44.2615843  11.4177847
  16.5937459  43.5596466  11.1894512  15.2634585  44.1647530  10.7955420
  22.5611877  72.6435995  66.9731045  22.2970843  73.4476042  66.5258265
  22.6828718  72.9060268  67.8855515  48.4109116  91.4031029  40.6714535
  48.6828136  92.2212124  41.0873795  48.8620186  91.4021492  39.8272181
  45.0701137  20.6396600  78.3445409  44.3425174  20.9995051  78.8518373
  45.6500621  21.3863011  78.1947902  35.0922126   9.2061051   9.0581363
  34.2528920   8.7468823   9.0878844  35.0771649   9.7823438   9.8223060
  12.1293683  54.5000955  74.1256097  12.9770608  54.1380807  73.8675598
  11.5760036  54.3886682  73.3525602  45.5494110   1.8784627  20.2399731
  46.2720303   1.4998921  19.7392404  45.7535027   1.6683015  21.1512423
  81.3994698   8.2804784  10.6489527  80.7315879   7.6159104  10.8178234
  81.0034566   8.8575086   9.9959308  52.7414231  21.4005383  31.4539480
  52.8870766  21.8309411  30.6114674  51.8539970  21.0471543  31.3921142
  50.0839023   5.4652795  27.5002289  50.6497650   5.7880792  28.2015371
  49.2454915   5.9026822  27.6484799  16.4752519  96.3257027  29.9170232
  15.5500317  96.1060619  29.8076725  16.5425467  97.2334576  29.6209097
  90.4124503  16.9252976  34.0010762  90.5470376  16.6917046  33.0826259
  89.6307235  16.4374551  34.2602134  84.0506599  19.3444034  68.1049875
  84.9890391  19.1562243  68.0886916  83.9628664  20.0715562  68.7212447
  57.4082856  23.7830552  18.1493676  57.2636967  24.6847638  18.4361434
  57.9753403  23.8636407  17.3824346  39.2216301  99.8189163  14.1738200
  39.9573898  99.2704296  14.4459283  39.3081927 100.6139565  14.6997988
  69.7304296  67.3876143  55.8083916  70.3058529  67.0830488  56.5100765
  68.9683437  66.8103981  55.8560801  78.2555537   7.8357896  62.2679234
  77.3804908   7.6163682  62.5878525  78.5253243   7.0686253  61.7630434
  16.6076982  91.3610744  38.9644980  16.9380033  92.2463799  38.8116407
  16.8003047  90.8902454  38.1536579 108.2006078   2.0136842  54.5661831
 109.0673356   1.6075429  54.5579624 107.7011351   1.5255269  53.9116144
   8.8075729  46.7906781  75.1118473   9.6917386  46.4372273  75.2095953
   8.9289613  47.6105233  74.6329383   3.1211370  62.9438162   3.6707667
   3.4954196  62.0836926   3.8613775   3.7225431  63.5635614   4.0836373
 109.1926227  65.4859829  23.9677167 109.5488096  64.8750591  23.3226299
 108.8892526  66.2314701  23.4495974   8.7084956  21.8351909  84.8229358
   8.8054938  21.1711474  85.5054817   9.5532842  22.2848912  84.8045007
  83.6678700  13.9596566  11.0005772  83.1085830  13.4369096  11.5751851
  83.2432847  14.8169240  10.9682167  28.5624480  70.8222485  51.0214663
  28.4297132  70.2614307  51.7857313  28.0089593  70.4366064  50.3423786
  30.5846834  64.6059370  35.2545547  30.5234218  65.5587053  35.1859403
  29.7211051  64.3320322  35.5634856   0.5898113  42.8549024  60.3999880
   0.4235835  43.7969800  60.3670648   0.7021136  42.5993653  59.4843892
  73.6410122   7.4911508  39.6547484  73.2693534   8.0175790  38.9469504
  74.3342309   6.9813546  39.2354870  27.5651240  86.7700195  11.6864228
  27.3910618  86.1544418  10.9743810  26.7039800  87.1177006  11.9183326
  18.5906863  89.1517067  18.5425973  18.1989944  89.1222095  17.6697063
  19.5288968  89.2509174  18.3808875  35.1333737  50.9339285  18.7343395
  35.4670548  50.1326370  18.3308291  35.7622814  51.6095638  18.4809101
  37.6339579  87.3342609  30.9425354  37.8417778  88.2626629  30.8370709
  36.7635894  87.3273945  31.3408327  42.6634693  97.4486828  13.5355926
  42.9917240  96.9604111  12.7805603  42.8145027  98.3668518  13.3111262
  65.1511953  42.0248815  73.9549164  65.5902640  42.8066369  74.2900447
  64.7526584  41.6242524  74.7275082   9.8239893  50.1628590  10.7555258
   8.9121234  50.0204515  10.5016518   9.8966610  49.7626877  11.6220212
  85.7732216  49.0071603  87.4091045  86.0560945  49.9176427  87.3240588
  85.0682048  48.9145394  86.7683200  83.6937246  39.1557523  81.6334245
  84.4262854  39.7659322  81.5481738  83.9952163  38.5069009  82.2692946
  56.5868521  71.1816406   7.3707265  56.1523867  71.5349722   8.1470180
  57.5076199  71.1114216   7.6226848  52.3470449  81.4490509   0.1712541
  52.4424648  81.6593361   1.1001810  52.6354980  80.5390644   0.1008213
  45.4672384  95.2206516  47.3873615  45.7329416  95.5718517  48.2372427
  44.9902964  95.9381199  46.9702339  76.4577341  73.1180000  22.9706049
  75.5572319  73.4101343  23.1119657  76.7657709  72.8620529  23.8399935
  57.9580598   0.9120377  48.1106853  58.1652145   1.7761239  47.7547598
  57.1309213   1.0366925  48.5760164  29.7794576  41.0527059  88.9195547
  30.3992124  41.5993234  88.4364951  29.2353006  41.6758080  89.4010890
  74.0482521  77.2212410  14.8487902  73.2617903  77.7667570  14.8597717
  74.7645426  77.8367805  14.6929848  48.5001278  93.9698315  42.0271301
  48.3373070  94.5307541  42.7854776  49.4054604  93.6782742  42.1348476
  92.4786011  32.4394246  86.6067541  92.9902569  33.2442590  86.6884870
  91.6879610  32.7048989  86.1370299  81.5342140  64.4639921  41.8956232
  82.4657822  64.6790266  41.8488979  81.0897923  65.2594042  41.6022921
  37.2840333  68.9952946  21.6605091  36.9392967  69.6055984  22.3123670
  37.2314477  68.1382132  22.0834446  16.6903400  68.6352587   5.0563949
  17.0834279  67.7924871   5.2832270  15.9441411  68.4097385   4.5009148
  24.3481517 103.0618382  10.7169557  23.7480330 102.4649525  10.2699447
  24.8953962 103.4193802  10.0177288  30.3261849  16.5355309  13.8343596
  29.7245404  16.0132703  14.3649280  31.0317322  15.9301671  13.6064291
  27.4577594  99.3878841  35.0914145  26.5964055  99.2559242  34.6953225
  27.3139930  99.2523670  36.0280037  77.6207542  92.5096321  18.3843052
  78.0690336  92.4105453  17.5443912  78.3273315  92.5988579  19.0238523
  35.3897047 102.4331093   7.5600529  34.6057200 102.7876186   7.9794800
  36.0588384 102.4568558   8.2441056  45.4045486  79.5557690  20.2648926
  45.1187611  80.4386711  20.4995155  45.6338930  79.6167660  19.3375766
   5.6973439  90.0144005  12.5874102   6.4387530  90.4878712  12.9647315
   5.0078768  90.6735420  12.5074553  50.9080172  90.4420280  14.2085862
  50.3665686  90.8689880  13.5446799  50.3306437  89.7897339  14.6052957
  97.9654721  42.2730561  74.2876009  98.8951639  42.1589299  74.4847802
  97.5363377  42.2642823  75.1431707 104.2291788  54.2996427  83.2022575
 104.7751168  54.7948190  82.5915388 103.3580045  54.3081113  82.8057573
  18.2716691  88.3686256  23.5251164  18.4264565  87.5178242  23.9354920
  18.9013171  88.4053516  22.8050995  19.7084470  30.2440473  90.1091680
  19.0171952  29.6103974  89.9171069  20.1830716  30.3384133  89.2833004
  35.7196546  42.2570515  10.7680261  35.3502941  42.5805998   9.9463695
  36.0548592  41.3864946  10.5535555  90.9462146  48.2976743  79.2939368
  91.2430826  49.1971227  79.1557804  90.0803880  48.2660504  78.8870267
  49.5161104 100.3498459  26.6620731  49.6075201 100.4844570  25.7188034
  49.3347216  99.4145012  26.7540669  37.7686667  56.5625906  17.1561551
  37.9486203  56.0321999  17.9323840  38.2687664  56.1414003  16.4570653
  78.2558827  12.2961244  44.2504025  77.9968505  12.6743421  43.4101200
  77.7322106  12.7687558  44.8974085  86.9251637  38.6385545  24.1887689
  86.2093024  39.2667874  24.2841339  86.4917188  37.8119573  23.9764023
  82.0965724  18.9487466  27.9185200  81.5467744  19.6568974  28.2539010
  82.7384190  18.7949952  28.6117911 110.6996493   9.2392930  23.6012530
 111.1261611   8.9740952  24.4161105 110.6875090  10.1957234  23.6375332
  48.4972763  88.4780693   3.6172900  48.0792713  88.3164406   4.4630921
  47.7922916  88.8097000   3.0611923  62.6877594 104.3229389  45.4890728
  63.4801102 104.0880013  45.9719944  62.6796627 105.2801037  45.4932928
  62.7345800  96.7243958   5.6273335  63.5693979  96.4765167   6.0246497
  62.6938820  97.6753044   5.7290846  67.6378202  75.8862829  15.8735180
  68.3086109  76.5657377  15.8056378  66.8133354  76.3474226  15.7192278
  39.9134231 101.5374851  50.3800964  38.9970684 101.2723541  50.4590416
  39.8884249 102.3281002  49.8410892  82.8754191  27.6742181  30.5536079
  82.4498277  26.8186292  30.6089163  82.3974471  28.1353768  29.8643255
  28.6847782  96.7436218  20.7998300  27.8951502  96.9882298  20.3172493
  29.3758583  97.2852325  20.4186535  22.5971217  41.5820809  89.8329641
  22.6964469  42.3922750  90.3329161  22.8946204  41.8066712  88.9513285
  60.7578373  83.1978703  46.4029884  61.4726877  82.5719547  46.2869883
  60.8076811  83.4502029  47.3249817  92.9736856  56.0180970  75.8035794
  92.2447053  56.5285131  75.4510311  92.9423932  55.1915284  75.3218762
  81.9015694  96.4015675  47.6476526  81.1413193  96.9799709  47.5868464
  82.4926186  96.7098713  46.9607401  57.9909758   6.9936093  10.5957472
  57.7758460   6.5998849   9.7502065  57.2180848   6.8345841  11.1375809
  49.2596178  17.5828465  22.9028010  49.0126555  18.5076341  22.9072142
  48.4418027  17.1173867  22.7274489  72.5741033  21.0327157  13.6101484
  72.6957922  20.0856503  13.5431564  73.2346468  21.3149079  14.2428267
  57.1092415  75.7957649   5.6254345  56.9199753  76.1465502   4.7551712
  56.4971972  75.0670195   5.7282382  87.6324801  31.8149194  39.9692965
  88.3781915  32.2450456  39.5508146  87.8860240  31.7371663  40.8890247
  13.3398339  10.2533444   2.3900393  13.8808819  11.0318479   2.5220436
  12.6540848  10.5378732   1.7858721  16.8272824  60.4717275  75.5127207
  17.6692147  60.0675508  75.3029112  17.0408340  61.1526414  76.1506752
  19.3778110  99.7401237  10.0133920  20.3065658  99.5418167   9.8937148
  19.1918814 100.4177189   9.3633693  45.9757929  24.4467267  47.7593374
  45.6151514  23.6139878  47.4548388  46.8833147  24.2455110  47.9876900
  27.6187320  32.9207822  90.9043316  27.4658294  33.6067220  90.2544614
  28.5620589  32.9484387  91.0643513  69.8921156  84.9671650  38.5646558
  68.9420414  84.8506546  38.5687661  70.2292776  84.1710567  38.1538367
  63.1904368  11.8209561  36.5961790  62.3135881  11.8807134  36.2169743
  63.6138658  11.1133489  36.1101484  33.9370799  84.0501690  37.5108695
  34.3469334  83.2687378  37.8818274  33.3059025  83.7111759  36.8760991
  84.7819905  16.9537553  27.0851326  84.1948609  16.8797692  27.8374839
  84.2026477  17.1421155  26.3468146  17.5845778  80.7030869  36.4258575
  18.0298746  80.1083374  35.8223581  17.1754289  81.3571548  35.8592653
  49.2200565  86.9641685  50.9631538  49.1676760  86.0385895  50.7248545
  49.8511696  87.3349476  50.3463459  59.9932289 100.7473373   7.8145921
  60.1996756  99.8214245   7.9422820  59.0411568 100.7946491   7.9015082
  63.4658794   6.2991342  17.2904217  64.4229345   6.2827691  17.2875381
  63.2169299   5.6358346  17.9340780   2.5214930  67.1179982  71.5993658
   2.3070045  67.9496785  72.0218888   3.2965703  66.8052121  72.0658997
 105.7099156  45.4329595  25.9434867 105.6227069  46.2437161  25.4421973
 105.8803372  44.7606381  25.2838063  87.0574574   0.4412946   0.7211711
  87.7898364   0.9616956   0.3909677  86.3900428   0.5066308   0.0381479
  68.2266092 103.9206505  24.6645260  67.4737167 103.3819866  24.9078751
  68.4780407 103.6030388  23.7972665  48.1764221 104.6900749  31.8486452
  48.0600834 103.7794781  32.1197534  47.3293638 105.1012993  32.0207405
  14.7560823  75.8327484  23.9327431  14.5008636  76.1685991  23.0734992
  14.1522121  76.2547541  24.5438766  32.8205109  94.8019886  23.2783175
  32.3088622  95.4673004  22.8181005  33.2356858  95.2753735  23.9992642
  34.7693944  96.2206173  32.1490455  34.4768310  95.4283524  31.6985440
  35.6450224  96.0043812  32.4695897  92.2898631  37.6751527  38.4914398
  91.7403655  37.4119481  37.7531934  91.8459754  38.4388932  38.8600922
  32.7695702  17.6498326  14.8897600  33.2233535  18.1927880  14.2451620
  31.8583493  17.6413258  14.5967817  37.0860887  66.4727354  19.5873451
  36.2612462  66.9573355  19.6194327  37.4818373  66.6163301  20.4469943
  87.5929837  20.5620870  47.0021391  86.8513493  20.3895673  46.4221001
  88.0066972  21.3437375  46.6359377   3.0605312  54.4336339  77.0756272
   3.0056234  55.2420636  76.5660683   3.3620305  54.7149869  77.9394380
  17.7617788  86.8443394  13.0084181  17.7942240  86.8994808  12.0533586
  18.1696129  86.0030556  13.2137465  47.3077016   4.8581799  13.0507636
  47.8465180   4.6923837  12.2771883  46.9216882   4.0077504  13.2605290
  38.7991261  86.2619400   0.8302840  39.5081854  86.2918854   1.4725979
  38.6964321  87.1696568   0.5443952  61.0644054  86.5854836   7.0681405
  61.3445520  86.8959904   7.9291463  60.7418442  87.3696709   6.6240180
  65.7870626  97.4402618  78.9761114  66.3161755  98.1213760  79.3912792
  65.3383780  97.0089436  79.7033501  62.3388581  18.9892396  66.0389090
  61.7218761  18.2622918  66.1232519  61.8338423  19.7624406  66.2906027
  60.1348858   6.8878850  26.3642359  59.9379306   7.6031407  26.9690895
  59.7241454   7.1507749  25.5405760  87.9309039  11.0769376  44.1356707
  88.2878642  11.9394692  44.3474674  87.6997475  11.1344537  43.2085848
 102.1159081  30.1013574  29.8838377 102.3594289  30.6803903  30.6060886
 102.2808795  30.6190213  29.0957761  78.3322836  59.8077508  77.5149540
  78.9374391  59.1185399  77.7888325  78.4560261  59.8727532  76.5680150
  27.9294276  80.1272869  50.0548553  28.3916354  80.9440804  50.2431250
  28.5328865  79.6329880  49.5001173 110.9583501  37.6159783  80.6939236
 110.3849057  38.3632394  80.8641950 111.6203145  37.9545232  80.0910822
  31.8764186  86.1752415  48.1805468  32.3258901  86.3201427  47.3479557
  30.9875345  86.4978981  48.0322027   3.3240795  37.1041393  12.7692473
   3.9300880  36.4208317  12.4827576   3.5436466  37.8617430  12.2269738
  67.0633745  91.8356514  49.7028446  66.6892147  91.0260963  50.0505018
  67.7797079  91.5453053  49.1382265  50.4848056  28.6703118  11.8648505
  51.1703627  28.7589272  12.5269616  50.9357278  28.8128289  11.0326302
  20.9625101 104.7472382   6.0078025  20.2006769 104.8178864   6.5830016
  20.6390548 105.0157261   5.1478457  48.9677334  80.5035877  31.1292291
  48.3686399  80.1227760  31.7713428  48.4011030  80.9968758  30.5360746
 107.9863528  69.7121259  89.0448987 107.8500179  69.2137738  89.8506839
 108.9280037  69.8828431  89.0252820  11.1389633   6.5847215  27.0748258
  10.2177521   6.6215714  27.3321891  11.5687367   7.2361096  27.6291060
  68.0714798  82.5319386  26.4451337  68.8329077  82.3548508  25.8927751
  68.4063292  83.0986214  27.1401000  74.4149928   5.8717164  20.9311986
  74.3078403   6.6050347  21.5369987  74.5451288   6.2837037  20.0770569
  10.3273053  53.2793447  89.6908910   9.6166082  52.8238793  89.2395725
  10.0562806  53.2960816  90.6087669  53.5948579   3.3019074  21.3999176
  54.0256541   4.0862664  21.7396665  52.9174058   3.1018933  22.0458913
  45.1818180  80.6479359  47.0752954  44.5069838  80.3238392  46.4788151
  44.7138405  81.2326527  47.6713991  80.5663967  93.3977127  23.9995837
  80.0749683  93.4612942  23.1806326  80.5356979  92.4681282  24.2257786
  26.4866877  96.8943977  13.2813907  27.1242285  96.6877270  13.9648104
  25.6568336  96.5561485  13.6177897  14.6139714   1.2089642  21.0494733
  14.2838761   0.3781327  20.7074475  15.5571362   1.1760148  20.8895326
  44.8745728 102.5646877  51.9478559  45.3791094 102.5262737  51.1353302
  44.0100241 102.2304344  51.7089748  92.9725652  24.6242532  24.3556261
  93.7839608  24.4705876  24.8396277  92.6774506  23.7505063  24.0992880
  51.5153503  76.1360884  10.8114100  52.0186424  76.4727545  11.5527475
  50.6040573  76.3254404  11.0348427  54.2339087  91.6144657  17.9929769
  54.3074083  91.7980385  18.9295304  53.3623266  91.9303608  17.7546680
  22.8313108  41.0672112  78.8549963  21.8941255  41.0208913  78.6658839
  23.2534309  40.9517213  78.0036966  61.3633728 101.5640640   3.6102265
  62.1559477 101.8445969   4.0677804  60.6514263 102.0101357   4.0689012
  97.5879912   8.5425195  24.8453426  98.1437735   7.8087052  24.5829511
  97.2841029   8.3109578  25.7229900  78.1472449   7.6959905  35.0045753
  77.3064809   7.4531373  34.6167994  78.6928611   7.9432115  34.2579722
  10.5016704  58.6406346  85.1622543   9.9080415  57.9485723  85.4536006
  10.4626794  59.2978593  85.8570719   2.6492432  88.6431313  10.5826068
   3.1292093  89.4640636  10.4733920   2.2217581  88.5014248   9.7379720
  54.9392073   9.9663934  36.6594720  55.0950627   9.8540410  35.7217526
  54.0945308   9.5435437  36.8142319  56.3955927  89.2356396   0.0024812
  55.8902693  88.5086060   0.3662040  56.6031265  89.7849178   0.7584289
  93.5110574  12.3848733  13.7791717  93.9075045  11.7969426  13.1362081
  93.8728289  13.2462987  13.5711169  21.7124028  27.0548268  78.8210646
  21.4972444  27.0449182  79.7537163  22.6687713  27.0860358  78.7962106
  96.6821437  43.9328393  43.6390018  97.4461083  44.4307145  43.3479595
  96.8068747  43.8326463  44.5827389  94.1031842  17.6311120  23.1742191
  94.1660409  17.5144872  22.2262335  93.2360654  17.2944173  23.3999848
  80.4065804   8.0237206  32.9959440  80.4919915   8.3118256  32.0871353
  81.2745242   7.6909074  33.2242751   7.1090460  89.8734283   1.2464149
   7.0474482  88.9286423   1.3871542   8.0188978  90.0875092   1.4527497
  29.3950372  16.6576394  32.2832465  28.6227493  17.1826276  32.4934602
  29.4674276  16.7090520  31.3301754   5.4355520  63.1489944  15.7787001
   4.9392968  63.9433527  15.9760714   5.7267159  63.2669401  14.8745179
  77.7127986  11.7219170  29.4380617  77.1322636  11.0492524  29.0820622
  78.1270604  12.1124562  28.6685848  58.1242943  98.0078983  23.4862733
  57.8312349  97.2463989  23.9867377  58.4990406  98.5957909  24.1421485
  16.3015389  47.7197599  20.1838732  16.3458002  47.0820951  20.8963752
  15.4865968  47.5119877  19.7267830  60.8051443  99.8600864  33.9682627
  60.5283308  99.0008926  34.2867041  61.7606497  99.8094749  33.9423513
  31.1352134  66.7656469  40.7015324  31.5776229  65.9773922  40.3866291
  31.8461204  67.3526096  40.9590626  60.7627630  98.3908749  59.7984171
  59.9966431  98.2219791  60.3468370  61.2025499  99.1281509  60.2218008
  51.3752358   3.6334714   6.4898670  51.6555719   2.8246983   6.9182706
  51.2725012   3.3935174   5.5689430  61.7535047   3.1151208  39.2227793
  60.8701353   3.4447678  39.3877673  62.3240046   3.6972245  39.7246814
   5.2096459  15.2437791  10.9006226   5.4926964  15.6221017  10.0681639
   5.8720680  15.5280026  11.5304255  80.7363701  94.9300003   5.4979682
  79.9278355  94.9301529   4.9856108  81.4321899  95.0239277   4.8474020
  10.5096889  30.5103254  12.1053040  11.1252844  29.8010254  11.9204676
   9.8901737  30.4859161  11.3760328 108.7069412  41.8887997  14.8511267
 108.8223419  40.9917164  15.1644301 109.3544929  42.3979330  15.3386617
 105.6268635  21.1827040  26.4634585 105.2675220  21.6469049  25.7073998
 105.3113069  20.2843785  26.3651204  23.8805056  44.5740986   9.0584737
  23.2683182  43.9640379   9.4699115  24.1637158  45.1465464   9.7714460
  22.4402332  32.4453831   2.6212326  21.7504883  32.9513144   2.1916763
  22.5381446  32.8553772   3.4806213 110.3216572  65.9154987   2.2554643
 110.9209244  66.6539240   2.3642795 110.7715421  65.1789331   2.6693529
  18.0610251  23.7535262   3.4209982  17.3044837  23.2644844   3.0974010
  18.2693970  23.3442593   4.2608282  26.4650488  71.9958448  29.1431952
  25.9332061  72.0777464  29.9348187  26.4111757  72.8567791  28.7283182
  89.8204044  19.4335958  80.2395371  89.6229104  19.1175576  79.3578652
  89.7150663  20.3832885  80.1827422  30.6635642  43.1000042   3.4581953
  30.8107328  43.5516834   2.6271954  30.1389360  42.3341274   3.2248899
  25.7067347  17.2194624   2.4673875  25.6355381  16.2671220   2.4025051
  26.1927009  17.4772334   1.6840461  21.1422229  72.0631361  20.3658438
  20.8901978  72.4241924  21.2157583  22.0763063  71.8733931  20.4536891
  17.8140509  35.6359553  29.2155385  16.9808578  36.1029387  29.2783904
  17.6088595  34.8462796  28.7150002  61.1532401  99.0896427  76.9357363
  62.0917033  99.1728747  77.1048168  61.0801529  99.0979635  75.9813670
 102.3235015  14.4443341  75.6045512 102.5724558  15.3517171  75.4287306
 103.1198982  13.9406034  75.4365066  46.1214972  60.6556463  22.2072411
  46.1334133  60.0532722  22.9510403  46.5702295  61.4387512  22.5260282
  44.5535564  47.8140116  14.3278098  44.0525675  46.9984341  14.3361950
  44.7022629  48.0132723  15.2521551  29.3469739  46.0170317  11.8412769
  29.8489499  46.0585737  11.0273206  29.3447042  45.0885916  12.0741522
  34.8484635  38.1843114  21.7579055  34.5364594  38.1165385  20.8555245
  35.2723551  39.0414500  21.8010306  40.2973174 102.5648272  82.5574765
  40.9820848 101.9962942  82.9097531  39.6458374 101.9616901  82.1996621
  11.3385451  85.1379871  18.6721897  10.9539783  84.7034836  17.9109073
  12.2098708  84.7503567  18.7544250  90.8999995  23.9287635  82.2421536
  91.3849560  24.6555825  82.6330314  91.2568227  23.8510915  81.3573513
  46.1609602  34.9158764   3.6700797  45.3496456  35.2244210   4.0735641
  46.2699604  35.4700589   2.8972715  12.2504222  77.6454926  14.6724904
  12.2099090  78.2576752  13.9377666  11.3363099  77.4245024  14.8508000
  76.3680323  79.3934059   2.2069557  76.0670503  78.9469242   2.9983443
  75.5897077  79.8392391   1.8727759  22.5909710  55.3885412   2.3429692
  21.6566133  55.4740191   2.5324404  23.0258536  55.7048655   3.1348327
 106.5698918  47.0601320   6.4535803 106.1063119  46.3918972   5.9488189
 105.8760449  47.5577784   6.8861955 107.3320731  89.2244530  45.0211668
 107.9360088  88.5285854  44.7618246 107.7013653  90.0184727  44.6346521
  81.8457078  92.6143610  83.1446055  81.9113492  92.0983779  82.3410610
  80.9079122  92.6444828  83.3339695  43.2144642  74.1163349  23.7422562
  43.5170126  73.2123613  23.6554646  44.0170240  74.6379614  23.7484384
  17.8709280  40.7874823   6.7967731  17.1260202  40.5017757   7.3256540
  17.4759340  41.2386990   6.0507077  66.9793224  34.6916628  25.1083708
  67.5333786  35.2039504  25.6972766  67.5867987  34.1047955  24.6580529
  32.1266599  12.6121684  54.8530821  31.9389959  12.9865762  55.7137970
  31.3183971  12.7376719  54.3558983  10.4266810  62.1809101   1.6951789
   9.5611191  61.7816734   1.6077353  10.8577180  61.6705036   2.3806886
  17.0010303  84.4404757  83.0960796  17.7607345  84.0264856  82.6865778
  16.2625312  84.1865790  82.5425557  24.2038512  43.3175707  21.7720985
  23.4661102  42.7296925  21.6097021  24.3152332  43.3051777  22.7227163
  98.7220367  70.3570223   1.5398978  98.9188942  69.6381569   0.9393030
  99.3373569  71.0484076   1.2957712 108.1791001  48.3811331  13.8220179
 107.2783967  48.0646658  13.8914120 108.5612320  48.2065725  14.6820974
  51.5831614  69.1025734  20.0470829  52.2423124  69.7338247  19.7585082
  52.0042562  68.6270428  20.7631707  27.5177407  49.9408817  12.6280391
  28.0241442  50.0986481  13.4248447  27.7700353  50.6520700  12.0391548
  12.7164507  57.5859404   0.6293744  13.5168600  57.1170187   0.3933937
  12.2878802  57.0201349   1.2715778  28.0332637  48.4409332  41.0455418
  28.8552189  48.9210653  40.9450626  27.5693727  48.5849810  40.2207470
  74.3440537   7.6609107  80.4383377  73.5471717   7.1519109  80.2895752
  74.4069854   8.2357379  79.6755484  32.3161626  34.1946912  44.1193247
  31.8814135  33.7308955  43.4036970  31.6273880  34.7330046  44.5092440
  34.7809625  66.7474031   7.2640985  34.2962956  66.8151617   8.0867398
  34.6785665  67.6063776   6.8543297  30.1473450  71.7102587  83.1526325
  29.4050335  71.9168448  82.5847170  29.9340456  70.8540666  83.5236714
  19.3050933  25.8028293  17.3589528  19.3208957  25.3563237  18.2054830
  20.0039864  25.3857875  16.8551111  50.8643103  78.1375885  13.7478495
  51.7617655  78.3510542  13.4924424  50.8892059  78.1030607  14.7041023
  13.7360179  58.6995077   3.6097673  14.0276134  57.7951097   3.4945738
  14.4101334  59.2252016   3.1791326  94.0989760  18.7166520  78.0544118
  94.4067601  18.1154843  77.3761049  93.6493484  18.1552192  78.6859659
  34.2952033 104.3107617  73.8035337  35.1197421 104.5636856  73.3883289
  33.7001347 105.0367319  73.6162082  13.2039917  24.3768167  60.0630665
  13.4846258  25.1508856  60.5512190  12.2564292  24.4797397  59.9749565
  83.7848662  73.8995015  78.5845045  83.8935088  73.0129683  78.2402853
  83.7666367  74.4577062  77.8071324   7.7915132  72.4849987  12.1282065
   7.1642756  72.5523424  12.8481162   8.4030169  71.8031263  12.4063194
  39.1613524  58.9517432  54.0972594  39.9883961  58.7094551  54.5138267
  38.6229451  59.2901593  54.8126796  65.4043125  81.0034310  53.1508759
  64.5631908  81.1165416  53.5935405  66.0240244  81.5024769  53.6829880
  41.5230274  50.8430147  32.8514099  41.4462566  51.5611124  33.4796381
  40.6438589  50.4668570  32.8090143   3.1351069  47.8326321   9.8875332
   2.4418283  48.0106544  10.5230677   3.7083071  47.2051096  10.3278577
  35.6835771  35.5807376  15.5034196  36.4619017  35.7873702  16.0208619
  34.9694562  35.5654383  16.1406243  66.6396079  39.1749497  80.9465078
  66.9669673  40.0724908  81.0056237  65.6894526  39.2609521  81.0242311
  17.9318058  49.3688536   8.7024003  17.3107064  48.6824179   8.9458561
  18.7897289  48.9491558   8.7660581   4.7941819  81.3674485  60.9857610
   4.2225542  81.0637247  61.6909007   5.1006165  82.2256529  61.2786988
  25.0736713  50.3694820   8.6312145  24.8586345  50.4431248   9.5610356
  24.7018218  49.5285130   8.3652586  17.0717978  46.7343044   5.4837102
  17.2128236  46.2576962   4.6656716  17.9491854  46.8476343   5.8491957
  45.4108381  49.5868349   7.4833018  46.3605690  49.7044992   7.4633098
  45.0919151  50.3053761   8.0293941  16.3278194   6.9208594  76.4797214
  15.3930898   6.8894883  76.6835037  16.4664788   7.7994224  76.1259810
  32.2810645  24.6166535  87.4550385  31.3255067  24.5608636  87.4496243
  32.4867482  25.1271029  88.2382158  56.8685579  40.3778601   7.5899178
  56.1778116  41.0251474   7.7317572  57.6665974  40.8079720   7.8971130
  75.4195808  94.9198162  90.2262595  76.0761999  95.3143036  89.6522685
  75.0272774  95.6616366  90.6867288  31.7819166  43.4018946  11.1549795
  31.0093617  42.9436922  11.4857972  32.1738935  43.8018274  11.9312787
   4.4974205  54.4347095   5.6147182   3.9148256  53.7916803   6.0188615
   4.1979924  55.2772427   5.9563464  11.4625359  62.9301500  22.0913267
  11.1814260  62.0483112  21.8472695  12.4100280  62.8564644  22.2056150
   6.0454017  64.4230700  13.3617771   6.4746594  65.2732325  13.2658863
   5.9722018  64.0895033  12.4675703  88.6322407  32.2127267  87.4283931
  87.9142836  32.1383973  86.7997078  89.2604557  32.7987786  87.0063541
  81.6959945  12.0250865  89.3865541  80.7834528  12.2744199  89.5326055
  82.1272007  12.8380509  89.1231537  34.6919203  64.3275738  10.4307711
  35.3467965  64.8511171   9.9689591  34.3076777  63.7720490   9.7525495
  61.0331631  55.8880186  17.8888357  61.8824387  55.5043173  17.6703453
  60.6196594  56.0528183  17.0414329  32.4915862  69.8032904   8.0964351
  32.2558880  68.8768196   8.1446558  31.6789913  70.2678919   8.2966143
  78.3698711  10.1745864  77.7348260  79.0349928  10.0210496  78.4058491
  78.1458393   9.3005677  77.4152449  24.4204664  36.8357301   8.9408928
  24.6481848  36.5251470   9.8172009  23.5678005  37.2567654   9.0500706
  95.4773708  86.5313339  16.6820276  96.0656806  86.2444878  15.9835732
  95.9824701  86.4091778  17.4858832  79.5007036  25.4145070  72.1567348
  79.2333195  25.3868028  73.0754141  78.8508770  25.9767314  71.7349998
  99.5863007 101.8164694  57.9706315  99.8895406 101.0539734  57.4778084
 100.0062465 101.7309582  58.8265303  53.7866640  57.1000338   1.4843914
  53.6105585  56.8191433   0.5864386  54.0484905  56.2993097   1.9388340
  76.7635035  86.2983882  88.3827495  76.3431357  87.0007646  88.8789267
  76.3455628  86.3297736  87.5221837  26.6404414  59.2826891  19.1040194
  27.2801495  59.8973417  19.4634748  27.1674037  58.6347294  18.6363792
  86.6496519  20.3819581  78.7996355  86.5574781  20.9789201  78.0570880
  87.2583727  20.8261224  79.3898991   5.8272023   7.5589582  81.3841603
   5.5232711   8.0340119  80.6107370   5.8520837   6.6427775  81.1080686
  78.7597226  91.9627153  76.6798047  79.7031735  91.8985355  76.5314618
  78.6642503  92.6780998  77.3085669  76.7418336  72.1032059  48.0374983
  76.2179040  71.3195860  48.2038430  76.1361383  72.7105558  47.6126555
  41.9820118  90.1209831  23.5181355  42.5446081  89.8339939  24.2374110
  42.0566654  89.4263172  22.8638387  62.4048280  92.4703180  63.7953809
  61.8776964  93.2534945  63.6372737  61.8013476  91.8556749  64.2128280
  34.3508148  58.0372572   6.3387299  35.0992846  58.6296892   6.4098084
  33.8317633  58.3926010   5.6172389   5.4994941  52.9587889  24.2193413
   5.2170002  53.6578226  23.6296082   5.5696845  52.1861696  23.6586571
  90.7614795  37.9871579  70.7201484  90.2089206  37.2074433  70.7745842
  90.9842960  38.1867620  71.6294018   1.5167692  62.4073029  13.2746494
   1.6512097  62.3160744  12.3313379   0.9182891  61.6954660  13.5012341
  44.6345854  44.8642445  34.1265082  43.6963701  44.8388910  34.3144989
  44.8582268  43.9611959  33.9013028 101.7232112  30.7642575  83.7876282
 102.3441819  31.4644929  83.5868744 101.7580894  30.6790753  84.7403923
  63.8205384  89.9241483  86.5147472  64.0951179  89.0595924  86.2091610
  64.5127129  90.1961600  87.1173543   0.2796994  91.7983627  20.1235723
  -0.5056960  91.3331795  19.8354924   1.0059328  91.2619686  19.8056042
 105.3802446  14.8205634  88.1611687 105.4742984  14.2949840  88.9556215
 106.0818175  14.5139524  87.5866953 108.6839666  49.1462183  48.4763718
 108.7338542  49.9906635  48.0284262 107.7578696  49.0463924  48.6968517
  19.6858406  90.9645844   1.6860127  20.2176356  90.6168747   0.9701052
  18.8133037  90.6013012   1.5345445  13.7367530  38.4889241  70.1748470
  13.1354280  38.5627576  70.9159199  13.5570331  39.2638322  69.6424464
  17.2550654  57.7652454   5.4757655  18.1633925  57.6542282   5.7565653
  17.0313537  58.6587477   5.7362288  36.7896288  64.7160935  83.2337711
  36.3980787  65.2143395  82.5163654  37.6634431  64.4869399  82.9172752
   0.4753867  94.8965561  85.1978389   0.3490534  94.4228041  84.3757526
   1.3321963  94.6073973  85.5116836  31.8820119  66.8301964   7.2955585
  32.1087480  66.8250561   8.2255024  32.4544263  66.1693907   6.9058084
  13.1573260  70.5248356  10.9461117  13.5817039  69.7854996  10.5107737
  12.3519492  70.6657219  10.4483652  20.3446484  25.5655837  44.3334103
  20.6098485  26.4556098  44.5652580  20.6835771  25.0217724  45.0444841
  28.8897538  18.7408376  11.9991779  29.4299579  19.5088100  12.1852696
  29.4709086  17.9960954  12.1536171  13.3787465  56.0927391   7.8460836
  14.0601230  56.1155987   7.1741945  13.4006786  56.9651985   8.2392299
  57.2081589  87.9790222  73.4469739  56.6144549  88.1510698  74.1778270
  57.6693081  87.1781790  73.6964205  57.6735643   0.8717366  86.2157780
  56.9033114   1.3788625  85.9593362  58.3485202   1.5294810  86.3832135
  13.5067773  79.9793196   8.2253820  14.3551624  79.5433807   8.3055669
  12.8659189  79.2903566   8.4010530  91.6554788   1.9219895  69.1570810
  92.0133451   1.1013051  69.4956711  92.4195317   2.4039193  68.8405350
   3.4642190  66.8260574  27.8544497   2.9310325  66.2144470  27.3466349
   2.9356426  67.0187140  28.6288691   7.6913404  91.0647202  27.9422975
   6.8273759  90.7595444  27.6654196   7.5934303  91.2448597  28.8772821
  36.8134403  59.0171623   9.6599066  36.1593843  59.6662474   9.9189967
  37.5257087  59.1304684  10.2892458  87.7156733  97.8941738  90.2446812
  87.0472192  97.2324097  90.0672787  88.2624005  97.8989803  89.4589986
  35.9968829  58.0468512  20.9706497  35.1658225  58.3812428  21.3079190
  36.5563536  58.8205194  20.9023976  71.3054037  99.5791149  27.3507380
  70.6091499  98.9232826  27.3141456  72.1062374  99.0712357  27.4809599
   1.2924977  19.4344064  69.0359167   1.4711018  19.1753503  68.1319121
   0.5218811  19.9989720  68.9754895   4.3653007  57.6751252  52.2844938
   4.2724652  58.2194730  51.5026358   3.5377498  57.1977349  52.3436097
  15.3981078  35.5344510  33.5321379  15.3074276  34.7714305  32.9613423
  15.6780624  36.2388873  32.9476476  90.5515098  94.2590773  59.6898225
  90.3047704  94.0795719  60.5970887  91.2484931  94.9118340  59.7558311
  26.8533802  54.8742294  31.2606764  26.9314790  54.1570663  30.6315398
  27.0974636  55.6556368  30.7646370   8.2873672  27.9139853   8.6501652
   7.9422897  28.7988114   8.5308504   8.0453694  27.4522519   7.8473753
  61.5947246 104.3669903  77.8597430  62.4988650 104.5082295  77.5790087
  61.6112255 103.5186112  78.3027009  22.8038168  71.3852024   7.7854788
  22.7318215  71.1707830   6.8553865  22.4698043  72.2797966   7.8515881
  42.5087929  69.4861174   2.2623587  41.9506645  70.2557278   2.3738027
  42.1262407  68.8269377   2.8414696  50.0044631  92.1951258  63.1603578
  50.6084429  91.4557588  63.0912355  49.1716193  91.8554771  62.8328780
  36.1343217  40.7511520  14.1181338  35.7742667  41.1101532  14.9291289
  36.2654018  39.8215914  14.3051219  18.2993376  37.0847821  13.3901203
  18.6959755  37.8478646  13.8103759  18.3661246  37.2659516  12.4525976
   6.6192490  69.9807167  16.1917746   7.2576421  69.5840979  15.5990005
   7.0083219  70.8205986  16.4355910  29.9991508  35.1481267  84.6070359
  30.1254792  35.9130784  84.0456877  30.2784963  35.4392549  85.4750446
  14.9866068  55.2261496  43.4390306  14.6724796  55.6947374  42.6657391
  14.1923225  55.0120640  43.9284277   9.2918706  61.4509344  39.0685081
   8.4751427  61.6008186  38.5923576   9.3152541  62.1441889  39.7281170
   9.5088422  35.8560705  13.0645120   9.7612214  35.6228709  12.1711171
  10.0451839  36.6209960  13.2729781   9.0507978  28.3206224   0.4841571
   9.4117713  29.1405797   0.1471110   9.0008694  28.4521866   1.4309569
  19.1293310  88.7284076  74.6818737  18.4737407  89.3515884  74.3686954
  19.8905670  89.2682874  74.8946718  40.4520093  90.2103674  90.3711608
  40.3152736  91.0773432  89.9892061  39.5994942  89.9718892  90.7352727
  30.5062652  57.6781082  11.0433578  31.1831546  57.0040464  10.9825683
  30.6614900  58.0977917  11.8895280  95.8514670  23.0812045  87.6533017
  95.4079703  22.4929305  88.2644326  95.3052787  23.0662175  86.8673710
 110.0042537  14.2538281  87.3443786 110.1954583  13.4397527  87.8101636
 110.7921056  14.7854587  87.4579204  61.5472077  94.7009575  83.7840775
  60.6416844  94.3932592  83.7443600  61.7368483  95.0026285  82.8956715
  62.2770015  32.8420182  87.1469814  62.0046703  33.2635327  86.3318751
  63.2310776  32.7953836  87.0853693  97.2276541  33.3420038  20.8842564
  97.0661172  32.7472377  21.6166425  97.7352019  32.8221846  20.2610278
  25.6522989  26.8063760  52.3007441  25.4099989  26.0958982  52.8946686
  26.4875627  26.5293765  51.9241285  18.5259175  46.3480425   0.8409961
  19.3334317  46.3980341   0.3294769  18.2909274  47.2608995   1.0074402
  68.5967134  99.6857464  85.1019493  68.8544725 100.2667105  84.3862185
  68.9484452 100.1035368  85.8880601  55.7743274  97.5170242  78.5804585
  56.5297173  97.0272457  78.9056269  55.9112846  98.4087288  78.9003602
  33.8262391  70.8749914  21.4455247  33.9309716  71.1560869  20.5365419
  34.6487522  71.1212778  21.8686700   2.4430543  45.1391602  34.4819522
   2.2747715  44.4362974  33.8543415   1.7694545  45.7931566  34.2954469
  42.7175856  67.1774864  17.7476072  43.3372211  66.6395569  17.2547448
  41.8679476  66.9909620  17.3481619  57.6080036  75.9695482   8.3483624
  58.4800816  75.6223965   8.5359579  57.5913048  76.0739136   7.3970157
  64.0690851  71.4363098  36.6588783  63.9468098  70.6098175  37.1259904
  64.9836302  71.4190054  36.3768530  83.4819125 103.9459431  78.3696512
  84.0522241 104.2353260  77.6574472  83.1967353 103.0706131  78.1075314
  29.5577288  80.3248692  42.1548796  28.9955997  80.3156567  41.3801813
  29.4353604  81.1972904  42.5292301  40.4920626  77.5092793  18.8526595
  41.3953066  77.7692461  19.0337622  40.4177046  77.5499392  17.8992176
   5.0915569  57.3578262  14.7670209   4.9257326  56.4552069  14.4949734
   6.0455668  57.4358702  14.7692943 109.0727142  17.1653291  88.6537710
 108.8260511  17.0119210  89.5658324 109.4086436  16.3215800  88.3513377
  34.3738914  75.6970167   4.9447101  34.8532462  75.9810638   4.1663983
  34.6492100  74.7899818   5.0778168   0.8915634   1.6136476  73.8617710
   0.0123472   1.4927741  73.5031573   1.4218755   1.8805572  73.1109325
  21.9301438  81.6173935  17.8918672  21.8838930  81.4019680  18.8233650
  21.2782836  82.3081970  17.7731371  36.6384101  64.7659111   7.2076303
  35.9740138  65.3873301   7.5053591  36.3456130  64.5018196   6.3354158
  29.2402577  66.5820408  10.8731675  28.5303807  66.6542053  11.5112102
  28.9632440  65.8794069  10.2851188  63.0553579  79.5184708  23.2883835
  63.2095575  79.2335749  24.1891003  62.7995872  80.4373932  23.3682942
  94.9044851  32.0337411  56.7723898  94.1940764  31.4478608  57.0337394
  95.0459818  32.5939103  57.5355509  67.9502587   4.9228867   5.3044659
  67.1851330   4.3588265   5.4169703  68.6127429   4.5462140   5.8836633
  95.3703598  15.8054467  90.3865745  95.4968480  15.4023810  89.5276379
  96.2570909  15.9390470  90.7213735  21.0713959  61.6738749  15.6821597
  21.9088054  61.7144251  16.1440396  21.2695932  61.2130976  14.8669076
   6.8365331  12.5757333  57.6706985   6.5533014  11.8521138  57.1117834
   7.7904029  12.5806829  57.5911072  46.0078001  47.9020786   2.1276639
  45.2147341  47.4251604   2.3722664  45.7089233  48.5553741   1.4951196
 108.8958100  12.1614858  84.5819220 109.8422078  12.0239230  84.5414737
 108.6555914  11.9129678  85.4745398  62.1176672  45.2450800  25.7050061
  62.2072697  44.4376755  26.2112713  63.0147648  45.5611181  25.5974174
  27.4461508  41.3433027  11.2583160  27.0735908  41.8044567  10.5068052
  27.0173264  40.4875660  11.2508643  89.4203166   6.1445352  81.2138358
  89.2155186   6.6720363  81.9858698  88.5664777   5.8843299  80.8681718
  84.2623833  25.6038495  77.9359702  83.5793600  24.9947568  78.2165376
  85.0738195  25.1002904  78.0010453  57.8726296   1.0954579  21.3282514
  58.3369331   1.2212571  22.1557951  57.4012236   0.2700814  21.4411688
  68.2196665  43.1148243  13.6420357  68.3138514  43.6763000  12.8725517
  68.9064121  43.4104204  14.2397249   9.6017976  46.0899373  90.9925933
   9.9020715  46.0071584  90.0874872   9.1369624  45.2714559  91.1665303
  32.0276427  42.2112942  13.9881766  31.0914564  42.2662020  13.7964141
  32.3318219  43.1183910  13.9584386   6.5665966  89.8101044  44.9277687
   5.8597320  89.5618343  45.5235338   6.1421579  89.8927402  44.0738010
   1.2077915  86.3682556  15.1532292   0.3205229  86.1791039  15.4585266
   1.0871291  86.7277527  14.2743456 101.3259677  55.7281800  88.1777120
 101.6027526  55.0101968  87.6084006 101.2549237  55.3316136  89.0459982
  40.6179428  41.1953259   9.0017015  41.3337326  41.3472176   8.3846068
  40.3382349  42.0721865   9.2646039  90.2820996  43.1893369  86.2086827
  90.1622800  43.7159749  85.4184071  89.4048837  43.1196328  86.5853313
  39.7400737  63.1393957  14.3239653  39.7798038  63.5210896  15.2008712
  39.0406823  63.6225462  13.8839090  46.0199642  57.9025269  16.2806320
  46.6082191  57.1489525  16.2325656  46.0735989  58.3039474  15.4133272
  17.7229591  44.1786309  72.3900763  17.0396705  44.4888421  72.9843131
  18.5406585  44.4749375  72.7898303  25.1832294  53.9282942  27.3052216
  25.4808736  53.8153505  26.4025116  25.9758568  53.8302088  27.8328109
  32.3005862  26.0261985  83.1155113  32.9048820  26.2095805  83.8348362
  31.5469070  26.5911361  83.2859311  94.3101481  30.5068227  88.5060385
  94.3666509  31.3936063  88.1501630  94.4832066  30.6126710  89.4414948
  52.3770629  99.2941010  56.2343005  51.7021548  99.1010201  56.8850330
  52.4716758  98.4806406  55.7387570  20.8633704  16.8556853  63.3763388
  21.5391870  17.4572726  63.0639318  20.0981183  17.0539828  62.8366188
   2.8182763  85.6831264  21.0319328   3.1322122  85.0100613  20.4280591
   2.6249158  86.4354229  20.4725647  25.7206202  40.2392817  26.3804698
  26.4345121  40.0668478  26.9943571  26.1145449  40.1220846  25.5159950
  61.7198299  86.1869847  85.1576624  60.9163808  86.0491097  85.6593523
  61.4228391  86.2911164  84.2536793  21.9894886  78.4912872  25.9216499
  22.8384066  78.8113213  26.2268543  21.3489866  78.9936399  26.4252710
  18.3841944  73.0010557  19.8758602  18.6348236  73.6364222  20.5464768
  18.3317387  72.1674490  20.3433847  18.8302827  85.8301258  36.1286974
  19.2352200  85.9236622  35.2664280  19.5563483  85.6076527  36.7114186
  35.3438926  87.3517609  16.9392800  34.6582866  87.0837021  17.5510979
  35.6866050  86.5297508  16.5884566  81.7535017  23.5307714  89.9359175
  81.1585686  23.4514876  90.6815723  82.0652280  24.4350167  89.9733173
  21.9128394  65.8746290  40.1954603  22.4298596  66.5962601  40.5534649
  21.0667753  66.2685823  39.9828410  28.7471461  82.9611492  11.3313353
  29.1301084  83.0349731  10.4571939  29.0969443  82.1401501  11.6775179
  67.2630358  23.8683748   1.4903519  66.4263105  24.2477107   1.2215967
  67.3437786  24.0979743   2.4160928   9.0641303  25.0201913  77.6059691
   8.5795016  24.2452928  77.3215417   9.0415569  24.9792453  78.5620264
  84.0830611  96.4580786  63.2269148  83.8453244  96.8279373  62.3766664
  84.9948310  96.1857807  63.1231669  37.4648046  84.4636440  23.9324713
  36.5761828  84.3879700  23.5848260  37.9761338  84.8219299  23.2069325
  10.3940439  75.5158758   3.4412041   9.4590640  75.4130697   3.2637924
  10.5182850  75.1241350   4.3056893 110.5851723  79.4755030   4.1524008
 110.7796107  79.0068197   4.9640411 110.1120901  78.8393927   3.6159429
  42.0894098  62.1538782   4.5592105  41.2232828  62.2003555   4.9640512
  41.9922113  61.5084648   3.8590509 107.3904685  10.7212659  71.2826375
 108.0339149  10.7347938  71.9911746 107.6784996  11.4106866  70.6843332
  61.9387007  89.7644234   5.2408117  62.3536348  90.6267452   5.2195233
  62.5275755  89.2027569   4.7368360  11.8519921  17.7410146  79.0820042
  11.5979810  17.1777936  79.8130921  12.6506515  17.3411199  78.7378279
  25.2533412  59.4215775   2.4696769  25.2177382  58.8224363   1.7240286
  24.5307517  60.0316048   2.3214754  54.7962427  35.0716066  34.2531657
  55.0639534  35.6649113  34.9549866  55.0507355  35.5226207  33.4481478
  99.5754770   6.3274785  68.5702947  98.6201743   6.3288518  68.5100702
  99.8713950   6.1430617  67.6788596  40.3082037  73.6088037  13.9324605
  40.0461674  74.1761017  13.2073796  41.1352253  73.2209873  13.6463439
  27.8687978  85.3771782   9.4545442  27.9658341  85.3614902   8.5024047
  28.7411880  85.5982018   9.7805983  39.0695500  59.4540358  15.9975708
  39.1216850  58.6322927  16.4856851  39.1670871  59.1949368  15.0812805
  21.4661789  70.2750158   2.6579142  22.0278406  70.7690620   2.0606843
  20.8933568  69.7673512   2.0831235  73.8187343  12.0033666  74.6565584
  73.2945644  11.5846702  73.9737931  74.7089348  11.6868087  74.5030466
  95.8448218  86.7101848  65.9093646  95.7634829  86.8737137  66.8489793
  95.5036639  85.8238327  65.7900957  73.6498404  77.5380325  39.3411064
  74.0309858  77.6277399  40.2145529  73.1445694  78.3414173  39.2165995
  55.3200102  53.5023594  18.8217843  54.9484444  52.8760576  18.2005656
  55.4556274  52.9945040  19.6217346  83.5164944  16.8797179  75.7377604
  83.2966999  17.5746842  75.1173214  84.2899529  16.4591142  75.3621451
  26.9267273  54.1829634   0.0817766  27.8727221  54.1752052  -0.0640445
  26.8002725  53.6435366   0.8623274 108.4762148  45.1855870  70.2578357
 108.4272531  44.5358296  69.5566586 108.4594182  44.6697541  71.0639790
  44.6172285  28.7652659  27.5324726  44.1783714  29.6146297  27.4854112
  45.0571156  28.7697363  28.3825970  13.3511162  76.7577982  19.5708156
  12.8633773  75.9341860  19.5713162  12.9053974  77.3005056  20.2212310
 100.3711458  92.2601128  41.9872904 101.2162634  92.0231342  42.3691940
 100.4850467  92.1190643  41.0474157  35.3393197  78.4954834   8.1781119
  35.7267642  78.9630318   7.4381673  34.5062733  78.1643581   7.8425223
 101.4790276  38.8434907  74.1848556 101.1616019  38.0118962  73.8328305
 102.1875576  38.5970517  74.7794000  44.7418022  47.1435595   6.3184452
  45.2569389  47.7064085   6.8964285  45.3856659  46.5617561   5.9145021
  61.9424955   8.6837932  72.8316823  62.4936119   7.9063817  72.9218677
  61.7713360   8.7483617  71.8921260 103.6000971  32.4876424  82.8110520
 103.1282381  33.3053895  82.6533387 104.4419388  32.6083299  82.3717723
  61.9774341  84.1450464  81.2521372  61.4018463  83.5128438  81.6825417
  62.5615834  83.6100185  80.7147852  20.7125616  75.9883451  14.2408383
  21.4895344  76.0563612  14.7957420  20.6319976  75.0527859  14.0551686
  25.0156622   4.7274312  15.1085067  25.6305163   4.9364957  14.4053173
  24.9613635   3.7717828  15.1029289 104.4431475   9.0944835  65.3826526
 103.6455826   8.9816113  65.8997420 104.5274214  10.0419923  65.2760962
  10.9989591  23.5967179  90.7774156  10.7610078  22.7028104  90.5313590
  11.1571260  24.0404483  89.9441582  15.2104802   7.7533599  83.7996486
  14.8939223   8.6548205  83.8578836  15.5633302   7.6802321  82.9128674
  49.8829937  72.1894693  45.2315617  49.9878359  73.1303596  45.3728628
  50.0383329  71.7993212  46.0917282  92.6177481  17.9744454  68.8654522
  93.3015291  18.2171556  69.4897655  92.7338246  17.0330211  68.7370876
  37.9521465 101.2590408   3.1499645  38.0882072 100.4145145   2.7204233
  38.0613089 101.0736942   4.0826827 110.2307595  86.2200451  54.5264626
 109.4430246  86.7394161  54.3653631 110.7962869  86.7959595  55.0409889
  26.1515760  13.9366817   8.3747452  25.9579182  14.4082665   7.5645989
  26.4005017  14.6206713   8.9963770  97.2416400 101.9216930  81.6725109
  96.8052577 101.6052496  80.8815203  98.0137538 101.3627493  81.7599980
 102.4668888   3.7098428  84.3858991 101.6576413   4.2159291  84.3136159
 102.7383569   3.8210507  85.2970353  34.5099521  84.8351097  84.7545338
  34.1370225  84.9040413  83.8756752  34.2978168  85.6704807  85.1709366
  41.6747904  54.5909023  10.6756699  42.5982475  54.4748116  10.4521072
  41.3795137  55.3049326  10.1106882  50.2732992  65.6956625  57.4951220
  50.4193354  65.8059406  58.4346676  49.5877457  65.0302887  57.4357653
   4.8519130  29.3713494  63.2159499   5.3433223  29.6576997  63.9858535
   4.0832086  29.9413987  63.1968001 107.2868409  80.9265804   1.3324177
 106.6248380  80.7268715   0.6705269 107.9470410  81.4376640   0.8642702
  59.4214753  26.0885163  74.6163574  59.1684202  26.8874331  75.0788788
  58.6067942  25.5934592  74.5300702 102.6109435  91.6482735  20.4063010
 102.6631465  92.4804306  19.9361670 103.1624510  91.7743874  21.1784172
 110.1923987  85.8158875  21.0237956 110.6831104  85.7250977  21.8406129
 110.1932321  86.7566490  20.8471775  94.5468858  49.0539189  84.6843920
  94.7065142  48.4480115  85.4080132  93.8157669  48.6656972  84.2037854
   9.0501304  19.8392936  86.5799058   9.2358918  19.3064471  85.8067301
   8.2261796  19.4898101  86.9193146  12.0912309  19.6053048  77.0832292
  12.0435043  18.9846297  77.8103558  12.9687734  19.4829103  76.7210523
  62.4153471  69.8545456  12.1684599  62.3079157  70.4898071  12.8763652
  61.9593430  70.2464724  11.4236879   1.1024757  19.2942544  64.4332722
   0.1993079  19.4808837  64.6895722   1.4235206  18.6945840  65.1067380
  97.4355534  19.1714116  71.2158922  97.2942785  19.9361535  71.7739633
  97.5121549  18.4392806  71.8277339  16.4050519  63.4397888   6.7507869
  16.1261427  64.1891050   7.2770602  16.8788421  63.8271141   6.0147631
  81.2036268  16.3923141  85.4801873  81.4964739  15.4839583  85.4069767
  80.5675188  16.4966603  84.7725782  46.5291977  79.5932674   3.6712962
  46.1910295  80.0673771   2.9116279  46.4330435  80.2074146   4.3991774
  39.5812082  26.6747379  40.6058931  39.9927855  27.5181365  40.4174328
  38.7384391  26.9019675  40.9987545  56.0600996  49.5201874  22.7075481
  56.1890554  48.5974789  22.9271245  55.1725340  49.7160387  23.0077195
  16.0843654  50.3260537  74.2749671  16.0441537  50.5399724  75.2070919
  15.1909824  50.4618855  73.9592973  42.8602076  59.8612547  24.3856812
  43.4963512  59.5645523  25.0364661  42.0937967  60.1167727  24.8990607
  20.3705668  75.7158327  11.1189628  19.9014568  76.5378094  10.9757102
  21.1985469  75.9794235  11.5204549  39.0122171 102.1949970  68.8720850
  38.3226441 101.7783749  68.3552221  39.8265408 101.9205486  68.4504393
  35.5966496  82.3931503   0.4993398  35.8053446  82.1460533  -0.4015601
  36.4414763  82.6221561   0.8867146 102.1971420  42.5677796  80.1389471
 102.5754169  43.4459897  80.1822416 102.2246698  42.3406907  79.2094806
  23.7154241  24.0023681  78.1993500  23.9195867  24.0292855  77.2645644
  23.5263343  24.9120399  78.4295026  24.4610500  35.9445953   6.4366817
  23.9464903  36.6003370   5.9660846  24.3593645  36.1774707   7.3595357
  82.8211019   2.9543420  90.4490093  83.5547403   3.5664674  90.3915071
  82.0479999   3.5135480  90.5253632  25.4901886 102.1482277  42.5807190
  24.8955274 101.7655849  43.2258463  25.4502797 101.5505981  41.8340778
  88.4453826   2.5375375   5.3463781  88.3125310   1.7730340   4.7859257
  89.3409209   2.4437531   5.6711006  82.8278420  16.9090720  78.4942428
  82.9981366  16.1801072  79.0907685  83.6122314  16.9598075  77.9479912
  93.5836140  36.6726895  59.1825751  93.2035760  37.3818608  59.7011188
  92.8769330  36.3978883  58.5983518 103.5951676  64.8219156   4.2719099
 102.9537102  64.1253996   4.4120273 104.3991562  64.4912195   4.6725026
  57.3887348  72.8160954  17.7569139  57.5296116  73.0208969  18.6812747
  58.2693768  72.6983833  17.4007595 102.0577458  17.4694892  82.9493282
 102.7274612  17.2253152  82.3105071 102.4962596  18.0910655  83.5303483
  75.5279160  69.2943859   1.3816601  76.2666178  68.6857843   1.3939792
  75.9219027  70.1524782   1.5387823  44.3190861  59.2399406   7.9499710
  45.2742004  59.2126703   7.8929871  44.1113949  60.1692390   8.0474311
  20.4331346  29.9008676  63.4625844  20.7156367  30.2547952  62.6192836
  20.8779998  29.0559217  63.5288457 102.1930507  11.5218183  88.4387272
 102.0477608  10.6008502  88.2220725 102.5468901  11.9038745  87.6355678
   7.7288884  75.1959419  35.8699632   6.8324083  74.9321413  36.0772371
   7.6643515  75.6070089  35.0079346  79.6108488  13.0362292  83.4391204
  78.9034436  13.4582730  82.9515890  80.2089576  12.7156850  82.7640287
  74.7244762 103.5269606  86.9031299  74.6911262 103.6469948  85.9540719
  74.8430466 104.4102966  87.2522533  46.2403870  71.0440159  35.0382423
  46.8711996  71.6089821  35.4844737  45.8954144  70.4779911  35.7287765
 102.4755172  45.7918664  61.3935999 102.8009037  44.9503633  61.0738662
 102.8371052  45.8686372  62.2765449  25.7408452  65.0514603  15.2168655
  25.2559757  65.0613832  14.3916166  26.6528249  65.1885796  14.9604964
   4.6308410  69.1026020  33.8482857   4.0175334  69.6995592  33.4196544
   5.4072011  69.6367407  34.0161967   9.9806976  22.8641200  14.8213828
  10.1174068  22.1926188  14.1530800   9.3654299  23.4785533  14.4211972
  19.6457803  58.5374832  16.7795157  19.1681576  59.3509245  16.9420755
  20.0948310  58.6856270  15.9472680  81.4986371  75.3451311  86.9412169
  81.1940288  74.5404112  86.5218497  81.7473554  75.9150970  86.2135408
  55.3411913  18.7233698  17.8738403  55.0490284  18.9308560  16.9862485
  55.8017921  19.5105052  18.1645262  27.7069283  73.4462214  25.7904553
  26.9746518  74.0493155  25.6628633  27.9317021  73.1522369  24.9076867
  91.5359882  30.5514546  90.0413000  90.6651119  30.3654405  89.6902957
  92.1359078  30.3009530  89.3387501  33.5704894  38.2860681  89.3825812
  32.7496953  38.0206605  88.9677424  33.3295913  39.0281697  89.9370916
  17.8341424  95.3089333   1.3417876  17.9861951  94.4332123   0.9864917
  16.9319141  95.2847290   1.6605809  59.4336319  71.1732388   7.2228128
  59.3712902  71.1623812   6.2677068  60.1387262  71.7930031   7.4097842
  94.1861915 102.8350937  88.1864268  93.4260081 102.3601353  87.8506205
  93.9663600 103.7582409  88.0611072 103.8585142  37.5057527  72.0086399
 102.9332927  37.7449628  71.9540921 104.2414716  38.1614419  72.5914303
  71.0656745   9.8572370  87.5832549  71.8873227   9.8093339  87.0945514
  71.0590983  10.7393380  87.9548535 106.7352656  40.7214948  85.4834518
 106.2843231  39.9741670  85.8763552 107.6497344  40.4450723  85.4237113
  18.1313181  79.8643351   0.0335524  18.8954639  79.8748970  -0.5428162
  18.2881868  80.5775547   0.6523694  85.3863238 105.0196278  89.3874839
  84.6159743 104.6492731  88.9566319  86.1098813 104.4587338  89.1080332
  54.1534805  99.6556377   6.0103589  53.2330799  99.4336033   5.8696729
  54.5228577  98.8844585   6.4405531  60.6412649  75.6881285   8.1751066
  60.6117916  76.0188055   7.2773224  61.4007139  75.1057053   8.1910181
  10.2398264  84.1959476  16.1046803   9.6310389  83.4781647  15.9303045
  10.0326478  84.8526001  15.4397666  13.6219163  45.6112023  76.7472581
  13.8839050  45.7851048  77.6513342  14.4115157  45.7784768  76.2326852
  24.4674297  11.5364429  90.9438388  23.6098905  11.2660810  90.6155616
  24.5846648  12.4239656  90.6050304  27.7663589  83.5593605  20.9928679
  27.7686286  83.0293941  20.1957703  28.6920261  83.7188339  21.1770916
  13.2368703  42.1124955  88.5632621  13.7332769  41.4698049  88.0565572
  13.8704057  42.4664708  89.1874138  81.6154913  63.4342595  75.6584648
  81.7426476  63.8780709  74.8199538  81.0041294  63.9950295  76.1359695
  50.8764516 103.5233318  88.2101849  51.3845586 103.0505859  88.8694051
  51.5311252 103.8550770  87.5957111  39.9435115  34.8855209  28.1007385
  39.3679953  34.8009372  28.8609076  39.7557306  35.7577372  27.7540278
   9.0945077  43.2294130  45.0033236   9.9425894  43.0960417  44.5800018
   8.4609491  43.1944180  44.2866564  16.7800808  85.7721329   7.2817194
  15.9663498  85.3782463   7.5962389  16.4956796  86.4836121   6.7080098
  93.4606551  99.9559223  59.5473722  93.4089469 100.5572235  60.2903393
  93.7718295  99.1336691  59.9259213  34.8727489  56.1419201  19.3606651
  35.5299115  56.6668367  19.8176467  34.2822576  55.8425617  20.0519967
  52.5182962  74.6678066  18.6888766  52.8079414  74.3581247  19.5470333
  53.2259607  75.2381945  18.3887053  45.0749011  30.7555505  79.6533719
  44.5633502  30.3267690  80.3394428  44.5506377  30.6462594  78.8600019
  66.6649199  64.9609184   0.3756014  67.4052525  64.8867130   0.9777885
  67.0647192  64.9838257  -0.4938056  27.7036805   9.9637052  73.3635703
  27.3827501  10.7694026  72.9584960  27.0377202   9.3087359  73.1544236
  24.3037486  58.3815861  20.7106137  23.4351850  58.6856031  20.4471755
  24.8752809  58.6310530  19.9844253  39.7672582  56.4005423  26.5826750
  39.3280792  57.0224094  26.0024714  39.1310263  56.2307024  27.2773647
  53.9812994  67.8973293   5.3354192  54.7593021  67.9804754   5.8868068
  53.3024359  68.3826303   5.8043146  19.3832171  74.0211201  25.1728344
  19.9718511  74.6497822  25.5906010  18.6609674  74.5538712  24.8400211
   9.7780401  88.3147240  10.5919552   9.2786062  89.0400982  10.9669530
  10.6285560  88.3583546  11.0289359   5.0036490  81.6829205   8.7953705
   5.7350940  81.0655499   8.8045043   5.1213729  82.2054863   9.5886517
  83.6033915  88.0013859  72.7869133  84.5463847  87.9470932  72.9419783
  83.2533978  88.4084951  73.5793761  47.1527100  62.9798031  22.9709983
  46.3901901  63.5401487  22.8267527  47.5358915  63.3020973  23.7867999
  44.4077873  55.2085018   9.5652467  44.2273903  55.0109768   8.6461866
  45.0860310  55.8833313   9.5365328  19.2003818   3.6040040  87.8246177
  18.8342185   4.3976899  87.4344686  18.6111398   3.4003373  88.5509393
   4.3805452  23.9637586  57.7159694   4.6642204  24.8774072  57.7476767
   3.7948079  23.8686248  58.4670309  65.0464344  39.0785503   0.1100031
  64.8839569  39.9952793   0.3323544  65.9931469  39.0282822  -0.0220334
 103.1371602  58.6438370   9.3811965 103.0322417  59.2473650   8.6456841
 103.9084943  58.1236649   9.1560411  98.0825213  14.8241206  77.5465134
  98.5864381  15.0482770  78.3288518  98.7443022  14.6228190  76.8848816
  24.9406123  59.1285610  26.0448885  25.0522828  59.9370813  25.5448341
  24.0650225  59.2009115  26.4248061  85.5518023  33.8950463  78.0656735
  86.1537591  34.4476911  77.5672225  85.0636259  33.4111234  77.3995343
 110.4881457   4.0478917  64.9265650 110.4534343   3.6014863  65.7725838
 110.7499126   3.3668586  64.3069676  32.3726225  44.4939184  18.2629180
  33.0274129  43.8447285  18.0059528  32.8697729  45.3041935  18.3748722
  37.5494051  69.6778917   6.9162077  38.1327558  70.2940655   6.4731926
  36.6686821  69.9839163   6.6996354 105.8809046  24.1998120  84.9816666
 106.6729835  23.9816638  85.4728398 105.4137400  24.8185416  85.5430648
  29.1554113   4.3899461  85.1920006  29.5624395   5.0586434  84.6411798
  28.9095636   4.8553153  85.9915111  64.8177615   4.1681739  81.4644436
  64.4879428   3.5737868  80.7905308  65.4457543   3.6430045  81.9604841
   3.3714576  18.7869473  79.5391551   3.3227821  18.4569140  80.4363409
   2.5614996  19.2834922  79.4223360  36.8860000  25.1543054  21.8506861
  36.6222431  26.0742959  21.8334198  37.8120741  25.1751431  22.0919013
  28.0808110  49.4908544  67.5170497  28.3753009  48.5803147  67.4961570
  27.9786296  49.6882268  68.4480885  89.5948521  18.4933778  82.8031961
  89.9817840  19.2300244  83.2763389  89.4798175  18.8165446  81.9095734
  24.6140647  66.9159365  10.1468396  24.1461468  67.7101135   9.8888367
  25.3110600  67.2257853  10.7251298  37.0117688  49.1830492  17.3513889
  37.1869683  48.4392166  16.7749774  37.8787732  49.4898844  17.6166952
   2.0582271  48.4431267   3.6915877   1.5505512  48.5914850   2.8937870
   2.4914238  47.6019192   3.5468596  94.3078879  42.9908868  54.2345360
  94.9228410  43.5179730  54.7446755  94.8597268  42.3615857  53.7701229
  97.7212094  98.2500136  48.2053021  97.9332160  98.1840956  49.1363982
  96.8311023  97.9045927  48.1372956 101.5362576   5.1676723  87.7115191
 102.0325903   5.9680100  87.5402237 102.0959071   4.6598979  88.2990465
  53.0363512  37.2502971  20.9850764  53.4250498  36.5736222  20.4307699
  52.4862385  37.7602077  20.3904390  28.5616279  70.6011009   9.2532241
  27.9820251  70.8150959   9.9843186  29.2241335  70.0243998   9.6336657
  20.6514597  88.1271458  26.6556644  20.0714374  87.4935722  26.2332940
  20.1756144  88.4021854  27.4393439 110.5608801  19.3510457  74.7374049
 110.4405121  18.7037345  74.0426151 111.3187603  19.0357753  75.2298013
  40.7862616  64.0687656   0.8898378  40.3201866  63.5086489   1.5105385
  41.3852978  64.5812464   1.4327499  44.7819281  75.7923365  11.5374124
  44.6397352  74.8494053  11.6204727  44.1259527  76.0783911  10.9017217
  33.7241840  65.3778505  12.8857434  33.9088321  64.7647429  13.5972452
  34.0555573  64.9410486  12.1011257  52.9458570  54.7915363   9.2582422
  52.5550461  55.6218147   9.5305288  53.6754274  55.0443506   8.6925197
  48.4915686  78.3735323  15.7324862  48.6342716  78.3675528  14.7860026
  49.2338800  78.8654423  16.0835230  86.2190056  92.2500420  36.7225027
  85.8130550  91.6639423  37.3611951  87.1267605  92.3313236  37.0150924
   8.9897342  28.1723710  83.7900928   8.6501928  28.6423131  83.0284533
   9.5046945  27.4557134  83.4193424  12.7576823  38.6976071  88.3753746
  11.9246860  38.9614697  88.7661762  13.1904597  38.1844064  89.0576971
  39.3898129  37.4273562   9.9799407  40.1139593  36.8351817  10.1828575
  38.7970233  36.9045877   9.4399893   3.2377095  27.8620835  79.6302227
   2.6749535  28.4508439  79.1273407   3.2476707  27.0497867  79.1239527
  24.3613620   6.3892194  71.9413427  24.7774453   5.5295583  72.0052878
  23.4226413   6.2023374  71.9518701  12.1348119  87.1894646   1.0800644
  11.3147259  86.7376995   0.8810735  12.7697062  86.8128204   0.4707379
  92.9048920  62.4360895  17.9691792  93.6134243  61.7943192  17.9207337
  92.4174309  62.3166847  17.1541011  39.0327525  69.3065977   4.3229511
  38.1849051  69.0125132   4.6559665  39.0564251  70.2426910   4.5214483
  45.1067638  80.6321144  28.4324098  44.1884041  80.8109474  28.2302666
  45.4025984  80.0646877  27.7205563   5.0402160  68.7616654  80.1761178
   4.4286151  68.1932660  79.7080401   5.8564944  68.2626077  80.2053825
  15.7996650  50.5697366  77.1174184  15.0259443  50.0062295  77.1101168
  16.5026279  50.0071641  77.4423603  24.3502045  95.0593185   7.6111126
  24.7064543  94.7367668   6.7832965  23.4846020  94.6554089   7.6729298
  38.3369541  89.1110039  20.4653049  37.9973388  89.9744129  20.7007265
  37.6818323  88.4972191  20.7974482  68.4619617  77.8547382  37.4897766
  67.8013420  77.4367285  38.0421162  69.1780949  78.0638599  38.0894923
  87.9147235   8.3333131  87.9373470  87.6270024   8.4345885  88.8446460
  87.8819088   7.3897763  87.7795768  21.7816353  95.4926586  23.1696582
  21.9760275  95.5050945  24.1068292  21.7490196  94.5629787  22.9441309
  35.0394821  31.6670561  42.5422335  35.6057739  32.0212293  43.2278776
  35.1353383  32.2790933  41.8125391   5.7227559  20.0258752  81.7882702
   5.8686919  19.9998542  80.8426175   6.5837665  20.2209111  82.1582100
  38.0679822  75.2162504   1.2189701  38.1376028  75.2749348   0.2661111
  38.6289215  75.9205055   1.5439343  47.1963120  65.5636215   0.1825008
  47.1132755  66.4167118   0.6086187  47.9130363  65.6765032  -0.4418382
 102.4343661  33.0995770  86.3181028 101.6978911  33.5573979  86.7233578
 102.9201249  33.7855645  85.8601833  22.7638936  72.2118187  26.1327124
  21.8359733  72.2072840  25.8978128  22.8549933  72.9505396  26.7345667
  36.8199849  75.4931450  13.6053705  37.6571488  75.4829264  13.1413853
  36.2673903  74.8838425  13.1158566  25.7114601  13.1505811  39.1537333
  25.1693797  13.6605871  38.5518408  26.1019397  13.8027096  39.7355294
  47.9139471  77.6939678  31.1464095  47.4938154  77.0412254  31.7064476
  47.9174232  78.4939289  31.6720366  16.9048734  23.6312648  85.3564415
  16.2899585  23.8539620  86.0553822  16.8664022  24.3766042  84.7570959
  34.7180414 105.1209354  35.0639200  34.6414852 104.2422962  34.6919465
  35.5579782 105.1143551  35.5229378  55.0884295  97.6577187   7.5548309
  54.4690990  97.7796841   8.2744080  55.4065466  96.7613029   7.6619613
  50.4931068  73.4602880  28.0066323  50.8772659  72.7835321  28.5639977
  51.0378885  73.4600925  27.2195840  22.2145934  17.8363105  67.4854735
  21.8742223  16.9424029  67.4493126  22.6400609  17.9650661  66.6377548
  56.4754195  30.1747914  62.0188073  57.1032329  29.8268052  61.3855604
  55.6318565  30.1310559  61.5685633  29.4355340  47.1237775  62.6072696
  28.5305591  47.1207353  62.9191164  29.3644567  46.9749471  61.6643861
  12.8051229  40.8061048  69.0178589  12.3029800  41.0829087  68.2513956
  12.1800752  40.8479997  69.7415951  37.5272031  23.5413285  72.2184042
  37.1895023  22.6549264  72.3467985  37.2786422  23.7647410  71.3214437
  21.2535329  33.8200685  76.1882058  21.4342685  34.2767545  77.0097903
  20.8768983  34.4911595  75.6189791  58.7788868  74.9176693  13.5045552
  59.0355492  75.7331896  13.9350033  59.4396591  74.7876167  12.8243375
  72.5520687   7.8897675   6.6219717  73.3290295   7.3419007   6.5106034
  71.8313222   7.3531541   6.2921345  23.0864282  24.2440530  89.1904463
  22.9353185  24.2396947  90.1356336  23.8775773  24.7707435  89.0768010
  30.0976396  68.2804680  15.3594196  30.1455450  68.5120440  16.2869477
  30.3806877  67.3666954  15.3257704  87.5288252  19.7462150  70.0257186
  88.3900896  19.3315812  70.0760392  87.6323727  20.5716773  70.4991344
  70.7716894  68.5807276  16.8003929  71.6509008  68.3184004  16.5276074
  70.9155130  69.3115473  17.4015975  74.0523414  15.0342473  15.9463143
  73.9009480  14.1701707  16.3293052  74.2581134  14.8567113  15.0285077
  74.6217489  75.9842491   8.3617157  74.6173429  75.0491142   8.1574297
  73.9050913  76.3465834   7.8408074   2.8077526   9.7643920  68.6949662
   2.6030846   9.1589900  67.9823426   2.5418205  10.6223508  68.3641819
  44.3704653  49.1519260  29.3313003  44.2660475  49.9820137  29.7963667
  45.0580215  48.6922550  29.8131657  26.6124535  76.5417147   1.9889180
  25.9397745  77.1327543   1.6506802  26.3536930  76.3783550   2.8958839
   8.2785793  20.5712482  82.4229512   9.0458102  20.8824082  81.9425682
   8.1841655  21.1879703  83.1488792  60.8412266  96.5882874  22.8991151
  60.0382519  97.0410442  22.6413059  60.5793238  95.6727505  22.9962587
  63.5341120  48.6211443  17.6448381  63.5111761  48.0586100  18.4189570
  62.6244497  48.8903999  17.5173879  77.4017619  81.5997183  87.2308377
  76.4971112  81.3846600  87.4579707  77.6931142  82.1815741  87.9328290
 110.8562878  29.1626569  75.9118274 111.2377623  28.7276479  76.6743747
 110.6664184  28.4511777  75.3002874   1.9970794  80.1628037  86.8525017
   2.7078839  79.7643586  87.3547283   2.3228426  80.1851960  85.9527192
  10.6188245  38.3868714  51.8963793   9.8626943  38.4889623  51.3183836
  10.3087230  38.6852284  52.7513961  53.6563826  74.1640759   6.9492197
  53.8515425  74.4360209   7.8459859  54.4219065  73.6558294   6.6810942
 108.9355186  67.7851411  86.3144887 108.8087252  68.1077691  87.2067139
 108.1034092  67.3687764  86.0898406  70.3294563  69.8243666  14.3405974
  71.1746597  69.6705580  13.9184546  70.3732014  69.3221188  15.1542687
   1.8431826  52.7809545  85.5157790   1.7444177  51.8661328  85.2520165
   1.3516135  53.2740232  84.8589084  94.9085049  23.2529172  19.6152437
  95.1806931  22.8862962  20.4565120  95.1999717  22.6103600  18.9684021
  25.4801130  53.9472198   6.0111421  24.9086380  54.5234346   6.5187085
  25.6369519  53.1982994   6.5862536 106.1058191  24.7551652  80.4310087
 105.4361109  25.4302951  80.3218082 106.1215929  24.5835277  81.3725630
  45.2168989  99.2626762  61.4866972  45.7309389  98.4572411  61.4295769
  44.4886255  99.0413666  62.0671034  52.8532934 102.1358585  31.8971062
  53.3265448 102.3644161  32.6971221  53.5282612 101.8003845  31.3071012
  16.2884278  50.7706948  66.4818290  16.4938111  50.7382794  65.5474833
  17.1264596  50.9575387  66.9049314 107.5662545  30.7102891  89.7836329
 108.2826046  30.7065698  89.1487626 107.8126339  30.0453969  90.4266359
  21.8583722  52.8853055  84.6066747  22.6961370  53.2953378  84.3916098
  22.0479341  51.9471951  84.6225396  57.8569387  95.9574520  77.5700895
  57.3147749  96.5973675  77.1087900  58.7297725  96.0665762  77.1926192
   8.2817502   7.7439757  76.8922046   8.3384080   6.8475410  76.5614132
   8.2275624   8.2865878  76.1055247 103.7440637  23.8523837  82.4849853
 104.1661743  22.9985639  82.5800875 102.9151086  23.7634583  82.9552582
  82.2901730   4.5421513   2.4439275  81.4320235   4.9656304   2.4220945
  82.5816874   4.6382531   3.3505800  95.8342838  97.2201443  22.3789120
  95.3959751  97.9840565  22.7538061  96.0673237  96.6823483  23.1356859
  64.5215444   2.5396069  16.2261641  65.3240518   2.4906453  16.7456007
  64.7955875   2.9351148  15.3986931  42.6055145  80.8518410  48.8967562
  42.4981785  80.0898266  49.4659996  41.8418407  80.8294964  48.3200932
 110.6597737  20.4207822  89.2857166 110.4375891  20.0560781  90.1423699
 110.2057008  19.8563643  88.6600310  29.7319864  10.2344617  13.0514503
  30.1736806   9.5599469  12.5355339  30.0659762  11.0605248  12.7017534
   2.8436306  79.4773912  36.8497539   2.0256774  79.0642214  36.5732098
   3.0305538  80.1201725  36.1655569 106.2339977  30.3904363  61.4290265
 106.8557099  29.6645661  61.3758949 105.8871440  30.4742070  60.5408243
  39.6609020 104.3408489   9.7306979  40.2160025 104.0517330  10.4549217
  39.9315572 103.7982273   8.9900625  46.0776472  83.2721043  20.2910924
  45.5307674  82.9838848  21.0219002  46.9706345  83.0579662  20.5611706
  74.5063734 103.7648487  35.5047035  74.8467112 104.1825771  34.7135687
  73.6330462 103.4603977  35.2580380  94.2362599  14.0115556  10.0951076
  94.0035539  13.1069383  10.3042758  95.0271945  13.9380368   9.5610166
  86.8147293  11.8083545  77.7053884  87.1562997  11.3062068  78.4452585
  87.2243158  12.6692744  77.7907363 100.2168897  35.0780793  67.0831636
 100.8001879  34.4879647  67.5604109 100.7416371  35.3884908  66.3452510
   2.2227116   5.8780547  71.5212027   1.3068719   6.0767289  71.3262705
   2.7119227   6.6093322  71.1441914 109.1444448  14.6248790  83.1594417
 108.2598428  14.9905129  83.1640176 109.0609602  13.7901135  83.6203430
  44.9989319  94.0477371  21.8740320  44.0834475  93.9083481  22.1163034
  44.9740267  94.7748089  21.2519503  74.8892497  94.0080750  86.5408204
  75.2126550  93.7983906  87.4169902  74.2832707  94.7363865  86.6771311
   2.0589872  13.6286469  86.3565198   2.9610105  13.6272403  86.6768066
   1.5667005  14.0991422  87.0292178 107.5978755  74.6868646  82.7542028
 108.2323169  75.1323831  82.1927515 107.1708297  75.3925168  83.2399151
  30.2401948  92.6668644  41.1344814  29.7546506  91.9458866  40.7336569
  30.5825186  92.3009109  41.9500351  66.3964604  92.5369799  52.3113779
  67.2710203  92.6725781  52.6760558  66.5230774  91.8860566  51.6210869
  20.8706565  47.0849248  50.2439002  20.5153747  47.6284905  49.5406607
  21.4295573  47.6780339  50.7459811  51.0999250  74.1918564  12.7202511
  51.3188314  74.3537617  11.8025923  51.9055510  74.3907547  13.1973588
  45.8899589  45.8768483  36.5815524  45.2235599  45.6169625  35.9454659
  46.5477843  45.1829835  36.5362910  18.9672179  14.8636695  50.6810836
  18.2627483  15.4918834  50.8401469  18.8252778  14.1750880  51.3306574
  66.2723541  86.7413616   4.1334718  66.0307884  85.8187199   4.0521887
  66.2953854  86.9006824   5.0770378   7.7689452  32.2542974  71.4161769
   8.4643550  32.8824349  71.6113201   7.6474710  31.7700692  72.2328762
  94.3359379  26.6483565  81.2953201  95.0565509  26.5937634  81.9229881
  94.7655658  26.7099687  80.4421750  41.6161676  47.0404264  79.2949966
  40.6735892  46.9217130  79.1779975  41.6909261  47.7575418  79.9245862
  33.1130648  71.8052721   5.3097689  32.3742509  72.0779896   5.8538401
  32.7157545  71.5481901   4.4777325 105.2540895  58.9036036   6.9067031
 104.5722987  59.2279339   6.3183111 105.8561166  59.6412134   7.0053309
  31.8008494 100.4099655  17.1911263  31.3062477 100.4512501  18.0095994
  31.3440394  99.7511101  16.6681957  36.6576953  57.8133508  86.9706917
  37.1843906  58.5863992  87.1737060  35.7975764  58.1636640  86.7389453
  28.0468459  31.8695184  66.4347700  27.1113200  31.9931432  66.5952257
  28.4497590  32.6880189  66.7245248  68.3239746  80.0669479   9.8446053
  67.9939699  79.7156525  10.6715989  67.6518011  80.6873894   9.5627105
  37.2809386  75.7317066  28.6771202  36.9141197  76.6065025  28.8052154
  36.6074681  75.2588320  28.1881833 104.9494532   1.6836568  86.8435979
 105.4736642   0.9217950  87.0905686 104.0781025   1.4986011  87.1939314
  52.3151779 103.7591743  19.3422246  51.9348049 103.0350494  18.8450432
  52.9045391 103.3370399  19.9672735  76.8439150  80.5178261  11.7440319
  77.4558496  81.1178684  11.3177550  76.0226393  80.6338882  11.2662554
  20.5375953  35.7648870  66.6497234  20.5431838  35.0074979  66.0644344
  20.3865667  36.5129491  66.0719565  64.2424250  74.6204185  42.8865767
  64.7859859  74.2003584  43.5531521  64.1172504  73.9455318  42.2194242
  49.3373919  62.3895454  14.7484350  49.0276670  62.5848150  15.6328416
  50.1806021  61.9561052  14.8802042  55.2021976  17.3553678  53.7762049
  55.8424659  17.4416991  53.0699280  55.5406661  16.6446563  54.3207792
  66.3115978  85.0902557  30.3374124  66.9833136  85.2793407  30.9926081
  65.7815123  84.3971729  30.7309651  57.2444010  96.0484600  25.9277606
  58.1205893  96.4044380  26.0754132  56.6524696  96.7248631  26.2568879
 108.4941891  31.9518872  69.5228819 109.0589312  32.7138921  69.6518973
 109.0972666  31.2406274  69.3068961  56.7654848  54.3546200  10.7143986
  56.5000105  55.0710344  10.1377618  56.7195702  53.5736513  10.1628447
   9.1470285  31.2179395  88.1147406   8.4023948  31.7939492  88.2878605
   9.8658319  31.5971585  88.6204508  48.5144711  78.6761093  12.8420734
  48.4068537  77.8540087  12.3637438  49.4200420  78.6563635  13.1515646
  59.4772224   5.6322774  15.1612723  59.9605589   5.3113946  15.9226203
  59.6587519   4.9907025  14.4745004  88.8659573  68.2844067  24.5065117
  88.2360840  67.7297497  24.9667811  88.5995293  68.2383394  23.5882926
  47.9281664  98.5538006  36.7874432  47.0599699  98.3842564  36.4217615
  48.3515930  99.1232586  36.1450624  25.1000924  30.9328481  73.1277910
  24.6324868  30.2661630  73.6308852  24.8838277  31.7572232  73.5635260
  97.0817140  14.4897576  83.1592081  96.8927888  13.8338252  82.4881712
  98.0337743  14.4665309  83.2555166  62.2579050  53.3811426   4.1001484
  61.4551640  53.4418821   4.6179762  62.8300571  54.0561390   4.4651911
 109.7527937  62.4908277  86.5002049 109.9977187  61.5868684  86.6979144
 110.4116586  63.0210229  86.9485638 102.8739313   0.8875915  83.6155060
 103.3911136   0.3129693  84.1799179 102.0106868   0.9149476  84.0281728
  43.3400583  57.8330183  12.4621046  42.7642012  58.0967283  11.7444181
  44.2188883  58.0641460  12.1613228  11.3505733  95.0362682  12.4324965
  11.0338914  95.5398464  11.6825962  12.2525191  95.3320408  12.5559533
  45.9079933  81.1733150  14.5440030  46.3508272  81.4911747  15.3308308
  45.7183313  81.9645119  14.0397525  46.4888239  92.1108818  23.7587285
  46.3168812  93.0353451  23.9376807  46.2607956  91.9991302  22.8358269
  27.7724266  93.1725502  18.5063171  26.8744349  93.0675030  18.8206565
  27.7612638  93.9973640  18.0207348  54.0692949  50.1864100  14.6994734
  54.3508816  50.3322697  13.7963295  53.2412243  49.7131252  14.6187055
  81.9651318  84.4828701  18.7805116  81.7123413  84.0586948  19.6005130
  82.8009129  84.0777493  18.5490286  52.4079037  67.2375917   0.3481489
  51.4709949  67.3929834   0.2286299  52.5919199  67.5524235   1.2331638
  52.6712322  66.6421318  32.9508138  52.4018192  66.4377737  32.0553327
  51.9911814  66.2525368  33.5003400  45.1686478  97.9821301  14.4974744
  45.9246302  98.3665848  14.0537190  44.6294594  97.6291370  13.7897289
  34.9755979  71.2381411   8.6059469  34.6022439  72.0588493   8.2845819
  34.2348242  70.6325579   8.6334145  56.0964346  78.6107922  21.1715651
  55.4447365  79.2959118  21.3203382  56.2817574  78.6561298  20.2335715
  45.9220028  95.7454395   0.6461874  45.2701139  95.0446987   0.6310944
  46.4734936  95.5432892   1.4019792  61.8355656 103.2334900  13.5919690
  61.4561558 102.3636723  13.4666872  61.9458532 103.5766792  12.7052367
  49.2930889  71.5080357  16.9565082  49.2700243  71.4151955  16.0041010
  50.2001381  71.7428255  17.1523750  89.1806845  22.7033242  24.1788769
  88.4474473  23.3184728  24.1655278  89.5996766  22.8484734  25.0271749
  80.0754170  13.8278016   7.3775440  79.6740012  13.0351933   7.0213383
  80.7082324  13.5076436   8.0204117  16.8759532  38.7648221  85.9349967
  16.2008853  39.1876908  85.4042426  16.7914815  39.1706868  86.7977617
   1.8684956  24.0991982   4.9253875   1.5108057  23.7879857   4.0938613
   1.2228295  24.7306928   5.2424920  40.5923319  77.2816467  16.1479378
  40.8747959  77.3921299  15.2400613  40.3970242  76.3478470  16.2260592
 109.6913294  41.0763284  73.6528329 109.3716577  41.9287797  73.9484075
 109.7224096  41.1497804  72.6989618  41.2304635  66.7009851  87.4944124
  42.1606584  66.8392964  87.3159656  40.8316178  67.5617906  87.3672727
  99.6472005  23.3358785  84.6090350  99.6226386  23.0491229  85.5219421
  98.7809280  23.1168195  84.2657868  26.2584782  20.6663060  23.4585857
  25.8885717  20.6628251  22.5757551  26.9586539  20.0143743  23.4274721
  63.1722260  36.4717984  31.3513350  63.5365200  35.7230473  30.8792186
  63.8709211  36.7423058  31.9470572  85.4525708  76.2590539  24.4340829
  85.3611468  76.3659489  23.4872750  84.7709989  76.8193161  24.8052911
  34.0248962  19.9756166  85.8749179  33.1067653  19.9436685  85.6061319
  34.1317220  20.8456012  86.2595583   6.5456986  76.3759375  16.1998284
   6.4994299  77.1158409  15.5943227   5.8467937  75.7879639  15.9133816
  23.8861108  53.1460142  20.8593059  24.4773984  53.2814550  21.5997553
  23.7516093  54.0216923  20.4969120  74.8196339  99.7676432  66.9863299
  75.5185555 100.3303110  66.6529468  74.2447304 100.3608334  67.4699048
  18.2801910   4.3929788  69.7458700  18.5832925   3.6493751  69.2248920
  17.3407026   4.2437764  69.8523072  52.4276686  86.7324543   7.7859586
  51.9041967  87.0499420   7.0501506  53.2276392  87.2571564   7.7548200
  38.2586169  83.0273724  16.8697715  38.8458824  82.3752117  17.2519195
  37.7935195  82.5553417  16.1790431  44.2430639  38.9581990   8.9636648
  43.5476685  38.9369559   9.6210843  43.9640045  39.6299267   8.3414608
  46.8599606  41.8893099  16.5683019  47.4795437  42.4773979  17.0001626
  46.9858122  42.0532131  15.6336749  54.6837710  88.1360662  68.6211423
  54.0874468  87.4657142  68.9546946  54.3664669  88.9524471  69.0072445
  50.4363537  69.9912739   9.1908145  50.0317430  70.0792170  10.0538266
  51.1534452  69.3714857   9.3245173  92.8504375  14.5496102  63.6550907
  92.5679568  15.4478904  63.4832553  92.4343745  14.0317222  62.9659513
  36.9716835  66.0421610   9.8046726  37.4729776  65.7456970   9.0450382
  36.6458559  66.9066095   9.5540857  51.7472458  34.5408082  14.9849570
  51.1445856  35.0093770  14.4074857  52.4627018  35.1583934  15.1364195
  11.3245435  13.8805839  74.0250686  10.4262777  13.9913865  74.3366328
  11.2787814  14.0735885  73.0886463  64.9518393 102.4669373  74.3485311
  65.7939362 102.8412163  74.6074215  64.4786595 103.1961739  73.9478472
  26.4444251   4.8400231  84.4295225  27.1223111   4.3830033  84.9273518
  25.7104011   4.2261525  84.4049553   8.4838433  19.5672866  61.5428427
   8.6131950  18.8702794  60.8996609   8.6344476  19.1441508  62.3881272
  38.6031337  43.5284253  69.3083624  38.5450263  42.5870152  69.4714836
  38.3066220  43.9316293  70.1242880  47.6558971  71.1688805   6.1182302
  47.8361464  70.2673340   5.8518571  48.4534311  71.4501476   6.5666217
  98.1288861  89.4223415  81.0010616  98.8323974  88.9223897  80.5871180
  97.9156493  88.9263880  81.7915002  19.9280019  29.2101213  57.1352342
  19.3000884  29.9120542  57.3062447  20.1629253  28.8821813  58.0032757
  62.7821207  61.6204214  13.9828146  62.9082203  60.7907486  13.5224056
  63.4876680  61.6452789  14.6292043  85.8412074  81.6912615  86.8874151
  86.7912244  81.5749180  86.9003466  85.5077266  81.0026586  87.4626065
   6.6385074  18.7259313  87.9546473   6.8616004  17.8069230  87.8067005
   6.4396043  18.7766047  88.8895807  31.1261077   4.8623153  72.1607391
  31.8680043   4.2577954  72.1801237  31.5033431   5.6954690  71.8782834
  23.8919687  51.9615984  35.1074672  23.7498164  51.0150385  35.1142478
  24.0472364  52.1738911  34.1871095  33.8749242  58.9226913  17.5356793
  34.5557737  58.5166073  16.9992399  33.0574751  58.7140512  17.0834875
  24.1822314  82.6548767  24.8477507  24.5888424  82.7700901  23.9889002
  23.4268904  83.2427120  24.8359418  61.0675807   9.6973916  86.4421145
  60.5775256   9.3023320  85.7210014  61.3277145   8.9563104  86.9892511
  35.2076054  84.3587208  22.5984335  34.8408365  83.6646175  22.0507765
  34.6987963  85.1370430  22.3713517 109.3723611  40.1204415  78.8951448
 109.9269990  39.3403550  78.8866070 109.8690656  40.7728883  78.4013621
  58.9342785  33.8326788  18.8599193  58.4314060  33.0602121  19.1180837
  59.6735334  33.4821606  18.3630562  43.2682705  52.1293736  20.0706983
  42.8120089  52.6151466  20.7577777  43.0544281  52.5978231  19.2638183
  77.4592732 100.7953655  81.9159714  77.4002646  99.9409210  81.4885620
  78.2864808 101.1624872  81.6042397  30.2701039   1.9921704  79.5802251
  30.6495423   2.1540233  78.7164763  30.8194871   1.3055488  79.9583272
  96.7393216  75.1204157  12.0311451  96.8711921  74.5598173  11.2665713
  96.3739463  74.5366907  12.6959753   9.7481668  52.8506041  29.6751666
   9.5150727  53.4319067  30.3990388  10.3609562  53.3610535  29.1458654
 100.7888182  91.4674854  16.2180436 101.5260573  90.8701992  16.3443792
 101.1865982  92.2718239  15.8848262 103.4280728  97.7521669  81.9038573
 103.4874867  96.9502174  82.4230698 102.5531529  97.7225840  81.5167282
  49.6771860  50.7829523  16.9396698  48.8406372  50.4275703  16.6394770
  49.4438505  51.5903950  17.3977363  57.0834346   7.9405995  80.3987673
  57.1822925   8.1297275  81.3318751  57.0791621   8.8009091  79.9791530
  20.2754641  37.3650455  32.2882152  19.7591245  36.5745258  32.4453831
  19.6785808  37.9528522  31.8251324 105.3086184  78.6501038  76.5282909
 104.9060439  78.0379021  77.1442238 104.7991370  78.5505116  75.7240883
  59.1522169  75.1417875   3.7179545  58.8498735  74.5595646   4.4149768
  58.3741283  75.6399202   3.4676218  28.2510610  25.3674861  74.1957298
  28.4969516  26.2480184  73.9121298  27.8149409  25.4999991  75.0374345
 102.6309565  19.7784205  86.8971029 102.7785114  20.4382726  87.5746361
 101.7294506  19.9260875  86.6112483   6.7392965  40.4755040  75.4226450
   6.2057443  40.6975957  74.6596042   7.0016713  39.5668527  75.2751640
  57.4889469  63.3904839  18.7966275  57.3969126  62.7146578  19.4682074
  56.8025589  64.0257454  19.0004683  47.7252722  25.1462245   7.1055686
  48.5585260  25.1404905   6.6345227  47.0637131  25.0311995   6.4234108
  95.8535004  57.3207235  24.8955750  95.8649063  56.6093159  24.2552662
  95.9181499  56.8809938  25.7433319  68.6642790  59.1974068   6.7512536
  68.6371279  59.8752785   6.0759878  67.7448273  58.9981127   6.9276732
  34.0180488   9.7108766  63.9711527  34.6691652   9.5609017  63.2857422
  33.3121629  10.1847573  63.5313848  86.6646909  91.2833178  86.8720517
  86.3544463  91.0431563  87.7451516  87.3531865  91.9288599  87.0316840
  14.4303746  14.0802594  66.4368228  14.0706916  14.5391675  67.1959428
  13.9035220  13.2842084  66.3664130  23.0539417  82.9789066   9.2058426
  23.2780957  83.8770008   9.4496077  22.0976567  82.9533291   9.2389369
  92.5474325   4.8302670  74.6017817  91.8201092   4.5382710  75.1513020
  92.3687295   4.4456264  73.7436727 105.2226426  44.8688173   5.4456240
 105.0019851  44.3077135   4.7021818 104.6712299  44.5484591   6.1594492
  53.7067080  62.4019337   4.0367079  54.0588665  63.2810211   4.1760466
  54.2826843  61.8299913   4.5440263  10.1976581  21.9542190  88.2338566
   9.3949123  21.8129178  88.7357186  10.2984948  21.1569377  87.7138529
  57.0759153  67.3305035  30.4896426  56.5275145  66.7612076  29.9498343
  56.4750290  67.6968193  31.1384749   8.1369252  11.4844628  74.5113603
   7.7573724  10.9797164  75.2306679   8.7280746  10.8714124  74.0743843
  46.5952969  81.6538048   5.3806722  47.5066185  81.9433689   5.4240531
  46.2156105  82.1641636   4.6654084  54.5189190  50.0447893  11.8837059
  54.4473410  50.2313519  10.9475958  54.1650438  49.1605711  11.9794512
  52.4109268  38.5566473   4.4018725  52.2683239  38.5147786   3.4562808
  51.5429306  38.4193563   4.7813025  26.4465690  75.9499407  13.1699514
  26.7449927  76.1012602  12.2731352  26.4685893  76.8151093  13.5788941
  42.6078558  48.9609194   5.6563234  42.5759029  49.1661644   4.7219336
  43.2802629  48.2836533   5.7299179  27.6536059  78.0829668   5.5612791
  27.2671652  78.8998652   5.8768350  28.4157944  77.9455853   6.1237979
  76.3920879  52.1996641  11.1381805  75.8441353  52.1394062  11.9207096
  76.0009098  51.5788841  10.5234885  44.1301627   6.5023442  69.5820931
  43.5426040   6.8359204  70.2601293  44.5287795   7.2860833  69.2038158
   9.0911145   4.5215436  76.4236549   8.7530275   4.6377584  75.5357245
   9.8569150   3.9573785  76.3164273  90.8205692   7.2421237  86.1349044
  90.6302968   6.4872714  86.6918797  90.0960902   7.8468057  86.2952978
  86.6458415 100.8508360  66.3794640  87.5575780 100.8900940  66.0906318
  86.6607713 101.2052452  67.2685102  95.6017736  19.9390670  84.9484388
  94.6887521  19.6743270  84.8364947  96.0806254  19.4302817  84.2941693
  17.9320808  31.0238095  71.3482181  17.2496648  31.1215707  72.0122842
  18.6725755  30.6426545  71.8200473  45.0976181  64.5874977  22.4443555
  45.3195095  64.9990416  23.2795978  44.8071718  65.3118610  21.8901253
  48.2455492  62.5375080  17.3078871  47.6553822  61.8095207  17.5027549
  47.8905630  63.2736111  17.8062487  44.6976662  69.8218107  23.1198287
  44.1353226  70.0923967  22.3940301  44.0885735  69.5463276  23.8049173
  91.4786092  19.4095727  87.5878397  92.2722558  19.2319175  88.0926130
  91.2332526  18.5603782  87.2205476  22.6032996  56.1451864  27.6165152
  23.1514978  55.9929991  26.8467426  21.7640090  55.7409000  27.3965621
  38.5142827  72.7921057  21.3092208  39.0469623  72.7778435  20.5140591
  39.0960550  73.1479645  21.9808888  11.4790070  66.8158770   5.9312594
  11.2577474  67.5325584   5.3365779  10.6659913  66.6370535   6.4037609
  35.2026510  99.3619251  10.0315118  34.6994162  98.8112259   9.4317502
  34.9184418  99.0881824  10.9035885  53.5847855  41.8646526  13.1416321
  54.1726446  41.9930363  13.8860595  54.0532970  41.2579918  12.5683153
  21.1053276  50.6591368  39.8155522  20.4093075  51.2260342  39.4832635
  21.6543937  50.4812574  39.0519309  60.3829761  16.7927571  66.5297750
  60.4272266  16.2205716  65.7636956  60.9241862  16.3553115  67.1870235
 109.4977235 103.3729136  77.3903016 110.0636291 103.5830366  76.6474453
 110.0957440 103.0441010  78.0614833  79.2567778  53.7583447  14.4224393
  78.6029291  54.3274021  14.0163720  79.9088335  53.6151886  13.7364650
  37.0802093  69.8433638  13.0132699  37.6501322  69.4096708  13.6483514
  37.6802635  70.2074718  12.3624313  33.6534591  35.4569264  79.9508682
  33.4692903  35.4792138  79.0118161  33.9527650  34.5626851  80.1150886
  63.8832188  36.2982059   7.6696944  63.0636501  36.7861104   7.5891483
  64.5540714  36.9028306   7.3524833  92.2892426  91.8989002  45.7123641
  92.0252561  91.8263232  44.7951535  92.4949740  92.8263342  45.8297185
 108.7136974  76.9341278   9.3894506 108.8343724  76.6672802  10.3007472
 109.3789872  77.6074076   9.2469263  98.9156059  11.0380622  67.8154353
  98.0283502  11.2793513  68.0815009  99.0753607  10.1989718  68.2474521
 110.9713391  21.8779441  65.8196024 110.4865221  21.6101476  65.0389174
 111.8672494  22.0126506  65.5106858  31.5081544   6.2241002  90.0629204
  31.6836639   5.9759637  90.9705864  32.1765990   5.7639619  89.5552943
  46.0690737  58.2763004  11.6235590  46.6346264  57.5619793  11.3300776
  46.0883331  58.9078951  10.9045696   4.9837728   6.4774533  64.6392420
   5.7296891   7.0254346  64.3951968   4.2316241   7.0686122  64.6071342
  49.7056150  53.6624908   2.6557314  49.2383957  53.8460159   3.4707513
  50.6276035  53.6282825   2.9106799  50.0411892  80.1872349   4.3762371
  49.5513535  80.8880329   4.8065567  50.3895855  79.6614838   5.0962633
  55.0156784  40.1330090  30.8529615  54.4959068  40.2374363  30.0559926
  54.8835230  40.9500122  31.3338709  41.2050962  71.6194773  31.2599778
  40.6116486  72.3672390  31.3300061  42.0175028  71.9194508  31.6677046
  58.4642744  61.7642784  15.0129724  57.9848957  62.5840998  15.1326644
  57.8625822  61.0875225  15.3231287  61.8497849  61.2576771  29.3043184
  61.2932014  61.6534138  28.6336207  61.2351561  60.8961868  29.9429035
   0.5082865  11.7035361  84.7639403   0.8763261  12.5598928  84.9817154
   0.7783313  11.1361381  85.4860005  94.7011856  25.9983703  75.4510370
  95.2074794  25.5649539  76.1380962  94.0754489  26.5466901  75.9243540
  53.8304173  68.6115169  87.1007082  53.5823881  69.5151376  87.2961119
  53.8787006  68.5776531  86.1453268  71.8406390  99.8241913  68.4124497
  71.0661172  99.9130976  67.8570727  71.9602560  98.8792288  68.5071686
  34.0588593  60.3908920   1.3629495  34.2583752  60.0510645   0.4906311
  34.1927028  59.6445417   1.9471386  60.3667784  21.0889339   3.4411883
  61.1486578  20.8985901   3.9595231  59.8035383  20.3254747   3.5681435
  53.1697750  83.0712891  23.5222864  53.8514423  82.5303459  23.9209747
  52.3512936  82.6275826  23.7446594 106.7065314  39.8700543  79.0624765
 107.6381639  40.0472470  78.9324847 106.4642814  39.3092557  78.3255533
  70.5969381  61.1662006  12.6307666  70.1247025  61.9767809  12.4405432
  71.1058283  60.9939289  11.8385649  73.6060595  97.5260412  42.2689465
  73.3026527  98.4334242  42.2400407  74.2547320  97.5126993  42.9727009
  27.7067113  93.5607529  33.3947849  26.7806530  93.7934494  33.4618568
  28.1588459  94.2249107  33.9150763  35.5338144  92.9485035   4.1248691
  36.1347914  92.8052616   4.8559916  35.3676128  92.0726490   3.7763155
  28.8387251  65.7469082  32.6445723  29.7092438  66.1306190  32.7503991
  28.6589909  65.8157873  31.7069244  46.3564968  58.0376053   2.7739108
  46.2331104  58.9210558   3.1210750  47.3010874  57.9634571   2.6379427
  38.2603498  14.3247338  66.2761906  38.4441896  14.6681520  67.1505479
  39.0418620  13.8216897  66.0472420  75.0392485 100.6153584   3.6110690
  74.5806074  99.7789669   3.6905664  75.9236479 100.4347801   3.9296055
  31.2672944  44.3194600  89.9146861  31.5618797  44.7391530  90.7229637
  30.5622144  43.7343999  90.1918060  17.7172418  23.3496734  79.8771099
  17.9110999  22.4946996  79.4928411  18.4331937  23.9125701  79.5825103
  19.1577001  34.3912145  71.0265294  18.8479705  34.7911378  70.2139047
  19.8418327  33.7823220  70.7482365   1.1400623  15.4976960  88.1856105
   0.9353800  15.8008595  89.0701588   2.0828266  15.6374188  88.0966908
 111.2534054 111.2534054 111.2534054 109.4712190 109.4712190 109.4712190
