
47774  0.0000000e+00
  37.2609496  42.7412224  65.1032066  38.2338548  42.9860020  64.9863815
  36.9806767  43.1544542  65.9811497  36.6067839  43.0822754  64.4133902
  37.1878052  41.3263369  65.4153013  37.7900934  41.2353134  66.3192177
  35.7822323  40.7810020  65.7121944  35.3263307  40.4486370  64.7795725
  35.8650565  39.9829149  66.4499617  34.8088503  41.7853689  66.3819027
  35.2939796  42.8279352  66.7931461  33.5435247  41.4554358  66.5049410
  32.7785587  42.1040249  66.6243792  33.2839298  40.5478239  66.1458492
  37.7860641  40.5228662  64.2831278  37.5538397  40.9132051  63.1340837
  38.4317327  39.3672895  64.4941521  38.5693097  39.0954900  65.4571104
  39.1352940  38.6006308  63.4401369  38.8701415  39.0520191  62.4840736
  40.6848764  38.8280797  63.4964180  40.9286499  38.9652014  64.5499229
  41.2437773  37.9681587  63.1272745  41.1475420  40.0724220  62.7223921
  40.4808760  40.9321308  62.7899122  42.4831581  40.3906870  63.3994722
  42.8848219  41.2439108  62.8528643  42.3461866  40.6839991  64.4402933
  43.1682587  39.5464993  63.4774828  41.3265467  39.8420358  61.2344837
  40.3796101  39.4155765  60.9035015  41.5026236  40.8115005  60.7683992
  42.2514009  39.2879939  61.0739136  38.9332509  37.0495152  63.4840727
  39.2300272  36.3448405  64.4732809  38.5974479  36.5127754  62.3493385
  38.2915425  37.0413542  61.5448999  38.4508991  35.0260806  62.1693039
  38.0438256  34.5373464  63.0544758  37.7041268  34.7665262  60.8941031
  37.3347902  33.7455153  60.7980347  36.7716146  35.3297400  60.8578825
  38.4456396  35.0921679  59.7619534  38.5365582  36.0461879  59.8183680
  39.8830771  34.3370247  61.9889259  40.7529116  35.0529885  61.6344023
  40.0612926  33.0482960  62.3049593  39.0190744  32.1001458  62.7682400
  38.3172703  31.7806244  61.9978619  38.4766197  32.5676060  63.5900211
  39.7788501  30.9185791  63.3689594  39.2443562  29.9719429  63.2896042
  39.9586654  31.0000825  64.4409275  41.0666704  30.9013867  62.6148033
  41.0356903  30.2683187  61.7280245  41.9531202  30.5714488  63.1565094
  41.3597536  32.4203372  62.3250246  41.8412781  32.8386855  63.2088900
  42.2213507  32.7347326  61.1139631  43.4406137  33.0821586  61.1678219
  41.5334129  32.5963497  59.9128294  40.6036711  32.2074914  59.9796772
  42.1440840  32.6996636  58.5517359  42.9770136  31.9968009  58.5693550
  40.9651375  32.2592020  57.5921822  40.5987549  31.2875915  57.9235983
  40.1763678  32.9699922  57.8385973  41.4193583  32.1982479  56.1751795
  41.9322681  33.1117201  55.8741760  42.5065660  31.1412907  55.8756590
  42.9490757  31.2891245  54.8905563  43.3720303  31.1762762  56.5373564
  42.0619440  30.1491880  55.9540653  40.1955318  32.1178675  55.2464867
  39.5998931  33.0274463  55.3238201  40.5529737  31.9096375  54.2380333
  39.5396185  31.2924290  55.5231380  42.7394724  34.0909481  58.3109951
  43.8553143  34.2569590  57.7955008  42.0475721  35.1105738  58.7439442
  41.2165213  34.8628855  59.2617369  42.3410034  36.5241218  58.7897778
  42.7063704  36.9119120  57.8388691  41.1070108  37.3183990  59.1734982
  40.5427408  36.9500232  60.0302362  41.5542126  38.2825303  59.4154978
  40.1377249  37.5408030  58.0428743  40.5315876  38.3654118  57.4487352
  40.1037741  36.5820813  57.5253773  38.7126088  37.8023624  58.5743093
  38.4192443  37.8440380  59.7747707  37.8022051  37.8145123  57.7291489
  43.4528017  36.7913675  59.8351002  44.3112898  37.6213956  59.5659256
  43.3429384  36.1219311  60.9651995  42.5413179  35.5162168  61.0682583
  44.3615580  36.2119699  62.0195055  44.4176102  37.2924709  62.1517134
  43.8334513  35.6008649  63.3137560  43.0168343  36.2183404  63.6878729
  43.4572983  34.5911646  63.1490660  44.7291994  35.5440617  64.3644762
  44.2545176  35.3211594  65.1685810  45.7884884  35.7865095  61.5646935
  46.7869377  36.4505768  61.9273138  45.8461666  34.6949720  60.8069849
  44.9613714  34.2252088  60.6783152  47.0139503  34.2011070  60.1969433
  47.8634787  34.2948937  60.8734131  46.7229414  32.7485323  59.8011208
  46.5405750  32.2777748  60.7671595  45.9212399  32.6525140  59.0688992
  48.0588818  32.0752716  59.3311596  48.8638115  32.6379275  59.8040295
  48.1315231  30.6069064  59.7581196  47.8151321  30.4306102  60.7861853
  47.4697208  30.0298047  59.1123056  49.1356564  30.1835155  59.7346163
  47.9746342  32.1004534  57.8390408  48.9277649  31.8329525  57.3828745
  47.2152042  31.3839269  57.5260592  47.6295614  33.0211878  57.3686504
  47.3806047  35.0903797  58.9819813  48.5512829  35.4817700  58.8980865
  46.4190245  35.6149936  58.1812906  45.4829454  35.2422404  58.2513475
  46.7422199  36.6280866  57.1596575  47.4416304  36.2643170  56.4069319
  45.4733276  37.0337129  56.3978958  45.6753349  37.9061604  55.7765007
  45.0852966  36.1846614  55.8351851  44.6174812  37.2294545  57.0438862
  47.4456692  37.9380369  57.7334881  48.4250593  38.4006548  57.1770859
  46.9493771  38.4098244  58.8663101  46.1236238  37.9705787  59.2474890
  47.5876713  39.3931913  59.7782993  47.7132893  40.3211689  59.2204666
  46.6572094  39.7810698  60.9260225  45.8539867  40.2389812  60.3487492
  46.2479877  38.8733721  61.3695526  47.1151972  40.6992769  61.9723129
  46.8873978  40.6066275  63.3037853  46.4158678  39.7431445  63.7492752
  47.4619436  41.6700411  63.9418173  47.5238228  41.7729950  64.9446535
  48.1485271  42.4857187  63.0726814  48.9905214  43.6061430  63.2798910
  49.2098522  43.9273071  64.2874336  49.4076920  44.3399668  62.1655035
  49.9725294  45.2405882  62.3558664  49.0791988  43.9080000  60.8671474
  49.4029474  44.4831228  60.0122690  48.3141565  42.7246952  60.6329155
  48.1907415  42.4144030  59.6058369  47.7719259  41.9634199  61.7427778
  48.9986229  39.0605545  60.1751089  49.8987389  39.8508334  59.9038744
  49.2102385  37.9321003  60.8248949  48.4136724  37.4072146  61.1566782
  50.5536556  37.4383307  61.1491489  51.0056448  38.1992483  61.7854023
  50.4827881  36.0473943  61.8459988  49.7813749  36.1536503  62.6735449
  50.2071381  35.3619146  61.0446024  51.8851042  35.7617164  62.4377823
  52.6333857  35.5607486  61.6710997  52.3081064  36.5102696  63.1077385
  51.9777536  34.4814467  63.2942963  51.0662556  33.6337662  63.4800482
  53.1501293  34.2132664  63.8175297  53.1688643  33.3493423  64.3403912
  53.9487791  34.7968721  63.6133909  51.5192509  37.4261856  59.9077940
  52.6317549  38.0260181  59.9772167  51.1774778  36.7800689  58.8193226
  50.3439331  36.2125874  58.8765144  51.8744373  36.8491864  57.5125790
  52.8872728  36.4504838  57.5700140  51.0022306  36.0959005  56.3997746
  49.9779224  36.4421058  56.5377712  51.3516331  36.3492918  54.9425411
  50.8168745  35.6533504  54.2961597  51.0136652  37.3674798  54.7497416
  52.4088907  36.2677455  54.6902370  51.0326290  34.5825195  56.7446041
  50.8025694  34.4344592  57.7997065  50.2126837  34.0806937  56.2308264
  51.9987917  34.1741800  56.4481449  52.2396040  38.2743478  57.0868778
  53.3987093  38.5494709  56.8479633  51.2262917  39.1205502  57.0353937
  50.2826643  38.7640333  57.0860004  51.3251066  40.5178690  56.7400360
  51.6138506  40.5818176  55.6909227  49.9350214  41.2624025  56.8048143
  49.2369986  40.6723261  56.2109518  49.6395493  41.2478065  57.8538990
  50.0819588  42.6682949  56.2916517  50.7171583  43.1358051  57.0440197
  50.5318117  42.5454903  55.3064394  48.7278748  43.4070206  56.1364889
  48.2877779  42.9251099  55.2634621  48.1599665  43.1993914  57.0433855
  48.8669586  44.9317217  55.8822918  49.2408323  45.4474735  56.7667866
  49.5752716  45.1095963  55.0731230  47.5773859  45.5892134  55.5426168
  47.0882940  45.0907898  54.8129177  46.9944525  45.4290628  56.3517141
  47.6332235  46.5832472  55.3726721  52.3757744  41.2184381  57.5842619
  53.2105350  41.9170094  57.0946407  52.3301935  40.9031534  58.8871384
  51.6574860  40.1993608  59.1559410  53.2694006  41.3374615  59.8776340
  53.2610703  42.4206686  59.9988556  52.9460669  40.7852221  61.3054752
  52.6198816  39.7476339  61.3770056  53.7478447  40.9875774  62.0156193
  51.4922810  41.6731071  61.9276667  50.5404329  40.8561611  61.4677906
  54.6688461  40.9947681  59.5069599  55.5198908  41.8373394  59.7265959
  54.9365473  39.7612476  59.0744305  54.2104435  39.0626526  59.0048313
  56.2747765  39.5055962  58.6249876  56.9319010  39.9304414  59.3838024
  56.5842533  37.9904151  58.5673189  55.7821035  37.3724937  58.1638050
  57.4196768  37.8840804  57.8753233  57.1345568  37.5035524  59.9331427
  57.9036236  38.1850052  60.2968216  55.9863758  37.4032927  60.9379292
  55.1187181  36.8682885  60.5518770  56.3720369  36.8817973  61.8139505
  55.7292318  38.3835077  61.3393831  57.7707720  36.1136770  59.7153139
  57.0941067  35.4457498  59.1823006  58.5102987  36.2055635  58.9198637
  58.2551670  35.6571674  60.5784798  56.6294289  40.1727962  57.2730350
  57.7639103  40.6539392  57.1735811  55.6960630  40.2068949  56.2901068
  54.7922897  39.8304105  56.5381956  55.8857393  40.8407068  54.9509096
  56.6457891  40.2002525  54.5034218  54.5994616  40.7659054  53.9999342
  53.7625122  41.1696959  54.5696449  54.7265816  41.4447212  53.1566381
  54.2815495  39.3960619  53.3524036  54.0063143  38.6378074  54.0854740
  53.1940699  39.6373177  52.3043537  52.3994112  40.3013992  52.6443720
  53.5910988  40.0715637  51.3867998  52.7932072  38.6429143  52.1079588
  55.4674864  38.7304497  52.5946283  55.1664162  37.8007102  52.1118832
  55.8928251  39.4897294  51.9383669  56.1928654  38.3965564  53.3365440
  56.3646317  42.2644377  54.9426126  57.1404839  42.6455450  54.0895319
  55.9579134  43.0835581  55.9558392  55.2884197  42.6977634  56.6062593
  56.2851858  44.5142460  56.0857916  55.9269047  45.0640631  55.2154827
  55.4364586  45.0669765  57.2405910  54.4029570  44.7829628  57.0423031
  55.7605267  44.6930885  58.2118177  55.5071640  46.5609217  57.3545074
  56.5402412  46.7404318  57.6522064  55.2237654  46.9593716  56.3803244
  54.6602774  47.0672035  58.5027647  53.6984682  46.5543509  58.5013390
  55.1347971  46.8949604  59.4688177  54.5951509  48.5787010  58.3734703
  55.5808210  49.0253210  58.5041809  54.2558098  48.8978958  57.3880434
  53.7914753  49.1928720  59.4883966  54.2989397  49.0725660  60.3533316
  53.6407423  50.1718998  59.2912149  52.9051924  48.7147141  59.5656490
  57.7234459  44.8369312  56.1682844  58.2570839  45.8153677  55.5998325
  58.3784866  44.0881109  57.0312738  57.9187489  43.2692194  57.4029779
  59.7732353  44.2525339  57.2906113  60.0463390  45.3024578  57.1848726
  60.0493479  44.1053200  58.7778378  59.8275709  43.0967712  59.1267586
  61.1005259  44.3562841  58.9197540  59.2319107  45.0874186  59.5979881
  59.2212582  46.5013170  59.3666697  59.7540712  46.9466734  58.5395241
  58.4971666  47.3509550  60.2392292  58.3724546  48.4085846  60.0595617
  57.6439524  46.7478466  61.2061644  56.8025541  47.5657368  61.8541002
  55.9098387  47.2287512  61.9594717  57.6730108  45.3423834  61.3945150
  56.9914150  44.9617863  62.1408224  58.4315062  44.5389462  60.6058455
  58.4961224  43.4932852  60.8681774  60.6974268  43.4791613  56.3184309
  61.9135857  43.4870529  56.4299488  60.0834608  42.9213095  55.2522850
  59.0990114  43.0979204  55.1116705  60.7505512  42.1317720  54.1635942
  61.5782642  41.6167164  54.6511555  59.8112726  41.0579920  53.5035849
  59.1477442  40.7343483  54.3055105  59.1816521  41.6683197  52.8561401
  60.5770254  40.0821304  52.8908062  60.7116556  39.3017793  53.4335089
  61.3426828  42.9401588  53.0819654  60.5984926  43.5144472  52.3046637
  62.6251745  42.8199768  52.7566385  63.1325817  42.2528267  53.4207058
  63.2082367  43.3097982  51.5411663  62.9054403  44.3437672  51.3758373
  64.7341490  43.2471895  51.5765524  65.1417303  43.5224915  50.6038284
  65.3309870  44.2341661  52.5731707  65.0714874  45.2768230  52.3897982
  64.9258471  43.9123726  53.5325432  66.4157486  44.1737080  52.4852037
  65.1899290  41.9522858  51.9758320  65.8552980  41.6828966  51.3384008
  62.9826689  42.4510384  50.2223110  63.0261087  43.0207205  49.1383457
  62.8613901  41.1665440  50.2505302  62.7817488  40.7112932  51.1485910
  62.8490639  40.3205013  49.0486908  63.4250402  40.8113527  48.2642031
  63.4047937  38.8828325  49.2479134  63.3104134  38.3153081  48.3221149
  64.7683048  38.8275766  49.8660946  64.6985102  39.4463587  50.7607126
  64.9728107  37.7887225  50.1250744  65.4761887  39.1674542  49.1101265
  62.5321484  38.3447099  50.2172041  62.4236012  37.4062800  50.0463867
  61.5154219  40.1599073  48.4003687  61.3923311  39.8332191  47.2245073
  60.4023647  40.3546715  49.1574669  60.5778790  40.7063103  50.0878668
  59.0427923  40.2659512  48.6594009  58.7935162  39.2503452  48.3519840
  58.0010653  40.4513788  49.8257065  58.2421112  39.8869896  50.7265186
  58.0855560  41.5220261  50.0119066  56.6697931  39.9530792  49.4428492
  55.5345106  40.6279135  49.1776180  55.4214621  41.7005253  49.2334890
  54.4543028  39.7663999  49.0996504  53.4963560  40.0831032  49.0534306
  54.8396635  38.4455633  49.2678452  54.1830873  37.1801710  49.2134094
  53.1258965  37.1700549  48.9928198  54.8120785  35.9657907  49.6643877
  54.3811274  34.9885106  49.5043659  56.1512661  36.0784078  49.9642277
  56.6890717  35.1541710  50.1157284  56.8116617  37.3335123  49.7525263
  57.8903008  37.2799039  49.7606802  56.2337160  38.6013961  49.4936466
  58.8297415  41.3224459  47.5650406  59.3902779  42.3980856  47.5185823
  57.9601908  40.9623814  46.6039896  57.6366997  40.0056601  46.5922403
  57.5341749  41.7392826  45.3650713  57.8365469  42.7768230  45.5071354
  58.3704519  41.1407995  44.1672134  58.5625219  40.0708342  44.2471218
  57.9414082  41.2098408  43.1675863  59.7830105  41.7330694  44.1127205
  59.8248577  42.8067350  43.9294386  60.2285957  41.6224861  45.1013184
  60.6939793  41.0453510  43.1334782  61.6878605  41.4903879  43.0861712
  60.8805847  40.0466490  43.5282946  60.1256037  41.0560989  41.6595936
  60.6909227  40.3462076  41.0557985  59.1442919  40.6015158  41.7955303
  60.1007509  42.3853779  41.0062981  59.2772102  42.8874683  41.3059378
  60.9037590  42.9733706  41.1781836  60.0362301  42.2795153  40.0039387
  56.0589886  41.4771128  45.1033545  55.7195568  40.3933191  44.5564699
  55.1897097  42.4920464  45.4415846  55.3383684  43.3342505  46.6083288
  55.9731674  44.2150879  46.5121222  55.6888485  42.6949358  47.4186039
  53.9564323  43.7734127  46.8745852  53.7969351  44.7142744  46.3478518
  53.6929274  43.8829899  47.9265594  53.0324078  42.7133036  46.3069820
  52.0569372  43.0931377  46.0032082  52.8740644  41.9309044  47.0491886
  53.8091564  42.2816420  45.0821877  53.5525942  41.2267590  44.9847651
  53.4225368  43.0755234  43.8040495  54.1516066  44.0044546  43.3746767
  52.2910404  42.7330446  43.1764030  51.6806650  42.0311308  43.5699177
  51.6525936  43.5947609  42.1869278  52.3648787  43.6956358  41.3680410
  50.4006433  42.8838778  41.6463709  50.2387047  43.2475805  40.6316805
  50.5243826  41.8050051  41.5524292  49.0574598  42.8811693  42.4638700
  48.7745714  43.9024305  42.7190304  47.9621363  42.3520279  41.6539812
  47.0308590  42.2941637  42.2174263  47.7803326  43.0191851  40.8113956
  48.1801510  41.3549852  41.2712622  49.3123102  42.0296097  43.7316179
  49.9254894  41.1549807  43.5144901  49.8346901  42.6553822  44.4552469
  48.3552885  41.7527103  44.1738224  51.3264179  45.1053858  42.5773811
  51.1091757  45.4102182  43.7409401  51.3092470  45.9986496  41.6134167
  51.7129612  45.7037258  40.7358456  50.8538342  47.3513317  41.9263124
  51.3851786  47.6676369  42.8239393  51.1655474  48.2841349  40.7455492
  52.1873283  48.1144476  40.4060268  50.5610275  47.9394960  39.9065709
  50.9136057  49.7904110  40.9905195  49.9773455  50.2576637  41.6767597
  51.7385530  50.6592083  40.4154444  51.4395189  51.6239262  40.4182291
  52.5380754  50.2250147  39.9768829  49.3517494  47.3926544  42.3331356
  48.5173845  46.8672657  41.6065311  48.9840412  48.0977726  43.4558868
  49.8604584  48.8132143  44.3827724  50.3511715  49.7066689  43.9967155
  50.6835079  48.2391548  44.8083830  48.9507341  49.2954826  45.5147600
  48.6364651  50.3299761  45.3763485  49.4461012  49.2561674  46.4848948
  47.6914263  48.3581543  45.4635572  46.7795277  48.8489962  45.8035851
  47.8726482  47.5048971  46.1171675  47.6336193  47.9686689  43.9859867
  47.2716522  46.9405508  43.9931250  46.5826845  48.7147284  43.1823969
  45.4034138  48.5785532  43.4504652  47.0447159  49.4588709  42.1483803
  48.0349493  49.6343851  42.0549536  46.1262512  50.2026796  41.1658287
  45.3897047  50.7469034  41.7569542  46.8594885  51.3244009  40.3471613
  47.7639198  50.8526182  39.9630737  46.2506056  51.6084576  39.4888592
  47.1857643  52.4881649  41.1928797  46.3443708  53.3354855  41.3525295
  48.3490849  52.5731087  41.7739105  48.4060907  53.2291079  42.5397539
  48.9875889  51.7914057  41.7371368  45.4987288  49.2399073  40.1063776
  44.6883821  49.6612692  39.2416930  45.7638645  47.8925705  40.2319765
  46.2244892  47.5189018  41.0494709  45.3389502  46.8873835  39.2340088
  45.5217743  47.2174406  38.2113934  46.2055302  45.6229067  39.3922591
  47.2151518  46.0134792  39.2649198  46.2009859  45.2460527  40.4150295
  45.9205008  44.6104574  38.4628797  46.8057632  44.3440723  38.2041335
  43.8044882  46.5704107  39.2711329  43.1640100  46.5966654  40.3253555
  43.1188583  46.3021946  38.0884385  43.5786343  46.5327930  37.2192240
  41.6736889  46.1776209  38.0069232  41.2350130  47.0736027  38.4461117
  41.1211681  46.1183310  36.5684652  40.0508976  46.3117218  36.6407394
  41.6359234  46.8848753  35.9892106  41.3807774  44.7561789  35.9621000
  42.4486494  44.4068670  35.2282429  43.2975578  45.0299692  34.9884343
  42.3421860  43.0679512  34.7997928  43.0066967  42.6591730  34.1583681
  41.2181902  42.4699879  35.3206897  40.6031847  41.1470556  35.1953459
  41.0342264  40.3686047  34.5832849  39.3729305  40.9635258  35.8159614
  38.9813995  39.9571776  35.7968092  38.6642456  41.9575834  36.5372992
  37.7694392  41.6559696  37.0614696  39.2392540  43.2267427  36.5593815
  38.6577106  44.0266895  36.9933057  40.4934597  43.5338116  35.9843159
  41.0277128  45.0402737  38.8274813  39.8780107  45.2572107  39.2647266
  41.6637325  43.9756298  39.2374921  42.6154375  43.8731146  38.9152265
  41.1848783  42.9014349  40.1423025  40.3544664  42.3669767  39.6809268
  42.2054720  41.8074083  40.4493523  42.9462385  42.2830296  41.0921192
  41.7714977  40.9418297  40.9498930  43.1869602  41.3359070  39.3440843
  43.6965561  42.1715260  38.8643408  44.2150021  40.3578758  39.9629164
  43.7000132  39.4761157  40.3442097  44.8186445  39.9842691  39.1357923
  44.9291754  40.8457041  40.6263113  42.3938990  40.5591917  38.3713126
  42.9434395  40.5484390  37.4300480  42.2126150  39.5386219  38.7084675
  41.4550829  41.0038376  38.0411339  40.6368732  43.4772778  41.4439249
  39.6755505  42.9414940  41.9632101  41.3075972  44.4441557  42.0991850
  42.1526957  44.8402929  41.7131996  40.8424664  45.1355171  43.2946777
  40.5446672  44.4160843  44.0574646  41.9154167  46.0923386  43.8380623
  42.0473623  46.7150688  42.9532528  41.5349150  46.7542076  44.6160412
  43.1521368  45.3909302  44.3069553  43.1886196  44.4084024  45.3052187
  42.3133945  44.3252897  45.9324932  44.4165707  43.7277460  45.5841780
  44.3891859  43.0574751  46.4305735  45.5887699  44.0049505  44.8529816
  46.7873716  43.5608292  45.2296495  46.7557764  42.9076195  45.9324408
  45.5206776  45.0091219  43.8683558  46.3420057  45.3416014  43.2508755
  44.3048763  45.6280470  43.5111237  44.2953014  46.3391495  42.6983213
  39.5359373  45.9265089  43.0279684  38.5647655  45.9407282  43.8180161
  39.4979000  46.6192675  41.8959904  40.3340244  46.5774441  41.3309717
  38.4172034  47.5527573  41.4602470  38.1503987  48.0467701  42.3945189
  38.8898420  48.6102676  40.4355669  38.9223289  48.1467104  39.4495845
  38.1697512  49.4271994  40.3887749  40.2274561  49.2144299  40.6416130
  40.6237888  49.7453594  41.8537378  41.8682766  50.2280235  41.6408825
  42.4546576  50.6236553  42.4569941  42.2326899  50.1446962  40.3434801
  43.1262398  50.3540945  39.9217796  41.1520052  49.5274973  39.7004962
  41.1231899  49.2082834  38.6691451  37.0866847  46.8630314  40.9945917
  36.0152793  47.3539686  41.3299465  37.1569633  45.7750225  40.2874947
  38.0779982  45.4274797  40.0616264  35.9612608  44.9355412  40.0028181
  35.0728917  45.5632782  40.0724173  36.0694265  44.5294046  38.5446668
  36.9513965  43.9351940  38.3056211  35.2013683  43.9062500  38.3295918
  35.9748793  45.4008913  37.8968430  35.7526207  43.6772919  40.9232378
  34.9574971  42.7567387  40.6169939  36.5579700  43.6500168  41.9921780
  37.1575403  44.4557714  42.0988274  36.3236237  42.7852154  43.1803703
  37.0260620  43.1511974  43.9291906  34.9188375  42.9354572  43.8250303
  34.1574216  42.5198412  43.1650209  34.8105383  42.4690199  44.8042202
  34.5852995  44.3874502  44.0665340  34.8562241  45.0971842  43.2848835
  33.5057282  44.3369293  44.2082024  35.3014612  44.9056911  45.3348732
  35.2376270  44.2172813  46.1775589  36.3697410  45.0282383  45.1563787
  34.8750758  46.2478352  45.7873869  35.1040435  47.0204401  45.0533867
  33.8297129  46.2673092  46.0954952  35.7235575  46.7473650  46.9476986
  35.4132986  47.5946903  47.4014330  35.6532645  46.1445761  47.7550459
  36.7035747  46.7579603  46.7036676  36.6453075  41.2900496  42.9621840
  36.2118530  40.3344107  43.6471033  37.6928520  41.0003042  42.1519995
  38.1756830  41.7888975  41.7456770  38.3560753  39.6602321  42.1295691
  37.5837588  38.9232063  42.3496294  38.8766360  39.3313169  40.7156134
  39.5622468  40.1106548  40.3829384  39.4222522  38.3882427  40.6837511
  37.7698636  39.2564917  39.6010995  37.2669911  40.2192593  39.5100117
  38.4375787  38.8975000  38.3138919  38.9402890  39.7732019  37.9033685
  39.1458368  38.0740118  38.4052038  37.6493597  38.5353255  37.6538610
  36.6730833  38.2435560  40.0297594  35.9478188  38.0087948  39.2506623
  37.1258903  37.2768497  40.2500916  36.0457253  38.5748792  40.8572531
  39.3381953  39.4202995  43.3380365  39.7025943  38.2598615  43.6085606
  39.7275329  40.4713392  43.9953136  39.3463778  41.3310814  43.6269903
  40.3128815  40.6542921  45.3230286  40.1390457  39.6683478  45.7540846
  41.8597174  40.7803583  45.2433109  42.1225452  41.7625809  44.8505497
  42.2308397  40.8200073  46.2674236  42.7209806  39.7080708  44.6139002
  42.2829390  39.4717789  43.6441612  44.0560961  40.4263735  44.2940092
  43.7784433  41.1562347  43.5335398  44.3719673  40.9447050  45.1993608
  44.8412323  39.7313333  43.9963818  42.9194307  38.5483909  45.4860258
  43.4756136  38.8461375  46.3749027  41.9569921  38.1895471  45.8507824
  43.3376551  37.7625751  44.8569918  39.6680379  41.8542719  46.0853577
  39.0539598  42.7134132  45.3896093  39.5568013  41.8716335  47.4281406
  40.0545168  41.0996485  47.8481674  38.7391543  42.7780819  48.1987572
  38.6767459  43.7249565  47.6624393  37.2718167  42.4520969  48.0643320
  37.0532751  42.4853611  46.9969845  37.1082163  41.4322042  48.4123945
  36.3202262  43.4113073  48.7757587  36.8418670  44.4688034  49.2621899
  35.0613618  43.2015896  48.7312651  39.1328025  42.9587555  49.6614027
  38.7778163  42.0588255  50.4389906  39.8678446  44.0227127  50.0937796
  40.5866003  44.9098492  49.1399145  40.1064110  45.8827066  49.0346622
  40.7263947  44.4399786  48.1663752  41.9735575  45.1175308  49.8388290
  42.5372267  45.9852266  49.4960737  42.4347353  44.1453791  49.6646595
  41.4423609  45.2734852  51.2825203  40.8979797  46.1970043  51.4796734
  42.2381353  45.2498102  52.0270252  40.4792309  44.1279888  51.4333200
  41.1112404  43.2717180  51.6688585  39.5361829  44.3855333  52.5783682
  39.9108076  44.2082930  53.7488794  38.2966995  44.8020697  52.3100376
  38.0839801  44.8692274  51.3249826  37.1789813  44.8063040  53.2860422
  37.4076700  45.5273581  54.0708256  35.9612417  45.2742672  52.5027370
  36.1893082  46.0465765  51.7681456  35.5411482  44.4709873  51.8974590
  34.9116993  45.5693102  53.3853149  34.1409564  45.3865814  52.8429365
  36.8760967  43.3988142  53.8187551  36.2846255  43.2559824  54.9037552
  37.3878670  42.4013519  53.1316280  37.9337597  42.6873398  52.3314285
  37.7751660  41.1401558  53.7779856  37.2796202  41.1806488  54.7479820
  37.1576595  39.9449492  53.0133486  37.3779488  40.0101328  51.9478321
  37.6986051  38.6246896  53.5532045  37.0741820  37.8220725  53.1607771
  38.7460685  38.4300780  53.3228779  37.6354694  38.6863136  54.6396255
  35.7533956  40.0179482  53.2719564  35.3602934  40.6117964  52.6282024
  39.3211985  41.0955906  53.8430071  40.0028276  40.7982588  52.8735685
  39.9065995  41.1341143  55.0965357  39.2615080  41.1809540  56.3794613
  38.9965081  40.1828480  56.7282677  38.4491730  41.9057608  56.3258505
  40.3074741  41.5652466  57.4017477  40.6094170  40.6717205  57.9481459
  39.9219394  42.2172928  58.1855202  41.4860916  42.1742725  56.6410351
  42.4886608  41.9534111  57.0073462  41.2453604  43.2299709  56.5159607
  41.3509321  41.4172125  55.2830935  41.7279291  41.9994593  54.4422817
  42.1378469  40.1065445  55.3450298  42.9216337  39.7365546  56.1890793
  42.0160246  39.4313979  54.2103434  41.6024542  39.9348474  53.4385920
  42.7630758  38.1309605  53.8793230  43.5429096  37.9808140  54.6259260
  41.6062260  37.0601869  54.1160393  40.8788300  37.3499322  54.8743534
  40.8363533  36.9354177  52.7308083  41.4280796  36.4027977  51.9863129
  39.9547815  36.3134003  52.8858089  40.7105160  37.8949833  52.2293091
  42.2064924  35.6603384  54.4323778  42.7525806  35.6413174  55.3755236
  41.3122940  35.0374961  54.4564533  42.9095745  35.3017497  53.6805820
  43.3897114  38.0744028  52.4978542  44.0977621  37.1102405  52.2014332
  43.2487774  39.1798639  51.7157030  42.7769327  39.9550724  52.1590042
  43.8032341  39.4586301  50.3428602  43.3446789  38.7159824  49.6899366
  43.4561777  40.8671665  49.8949480  43.7554169  41.1813354  48.8950205
  42.3697376  40.9543991  49.8834229  43.8998795  41.9301558  50.9027100
  43.4453249  42.1242046  52.2188854  44.0380621  43.2293081  52.7100372
  44.0239954  43.6031866  53.7231588  44.8783827  43.7561560  51.8066883
  45.4527998  44.5840979  51.8749380  44.8793554  42.8739738  50.7015276
  45.3149891  43.0969906  49.7387791  45.2754974  39.2654395  50.2040434
  45.6311941  38.7095451  49.1614962  46.1179829  39.4957423  51.1689901
  45.7006645  39.8828077  52.0033312  47.5522470  39.0615916  51.2449121
  48.0504513  39.6296096  50.4592562  48.2213593  39.4050217  52.5842285
  47.5586367  39.3006396  53.4433031  49.5074224  38.5954261  52.7292299
  50.3209686  38.7858629  52.0292425  49.9322224  38.8382363  53.7032366
  49.3504286  37.5170398  52.7522850  48.6812210  40.8514690  52.6763725
  49.1301060  40.9653091  53.6631060  49.4581461  41.1113119  51.9573641
  47.6944399  42.0163584  52.5148439  46.8367577  41.9888258  53.1869459
  48.1948709  42.9093885  52.8892279  47.2851086  42.1553755  51.5142345
  47.7437830  37.5850558  50.8403444  48.5542822  37.2600770  49.9759436
  46.9310093  36.6681957  51.3988495  46.2058592  37.0838833  51.9658279
  46.8986464  35.2439666  51.0606432  47.8919935  34.8067856  51.1618519
  46.0179758  34.3714738  52.0120001  45.0147390  34.7586107  51.8338299
  46.0115147  33.3229208  51.7143488  46.4160824  34.4402146  53.5010099
  46.1471415  35.4307628  53.8678789  45.5676365  33.5051131  54.3279409
  44.5612717  33.5127854  53.9092827  45.9866858  32.4991751  54.3035936
  45.5668926  33.8254857  55.3697968  47.8341103  34.1955400  53.8108826
  48.2318592  33.2402253  53.4684372  48.4595776  34.9202752  53.2896757
  48.0048656  34.2880368  54.8834419  46.3944483  34.9925923  49.6836567
  46.9749260  34.1660857  48.9521885  45.3607512  35.6927943  49.2065477
  45.0782585  36.5087509  49.7304964  44.7401333  35.3444386  47.9255152
  44.5342302  34.2773366  48.0091524  43.3516693  35.9916949  47.7740479
  43.5374260  37.0640779  47.7140903  42.9321098  35.5692244  46.8610334
  42.3222303  35.7104945  48.8872910  42.0746231  34.6489906  48.8896990
  42.7907324  35.9152770  49.8499250  41.0608244  36.5877938  48.8917112
  40.6277514  36.4112020  49.8762751  41.2894201  37.6450634  48.7574577
  40.1311111  36.2098336  47.8704596  40.0956345  35.2544928  47.5446320
  39.2819595  36.9820309  47.1746016  39.2349792  38.2393074  47.2955132
  39.6798849  38.6792588  48.0883551  38.4393334  38.6679673  46.8446255
  38.5374975  36.5222144  46.2382030  38.6083293  35.5657625  45.9215260
  37.9072952  37.1294022  45.7339525  45.5932188  35.7258105  46.7771292
  45.4690647  35.0251436  45.7615805  46.4391851  36.7313981  46.9279671
  46.4015055  37.1320248  47.8543472  47.5705433  37.0250487  45.9517813
  47.1043062  37.0865798  44.9684477  48.2448626  38.3288407  46.2924576
  48.5749388  38.1458473  47.3150349  49.1900301  38.4462070  45.7623768
  47.2833347  39.5189452  46.2352085  47.1616936  39.8167396  45.1937580
  46.3962650  39.1714334  46.7647791  47.8280926  40.7442856  46.9860077
  49.0382099  40.8389997  47.1227980  47.0089483  41.6565228  47.2182941
  48.6250067  35.8852029  45.8032417  49.1698074  35.7102537  44.7424841
  48.8973856  35.1380396  46.8733406  48.2108927  35.1626182  47.6137638
  49.8743057  34.0788531  46.9970083  50.6873369  34.4105601  46.3512135
  50.3220272  33.8175869  48.4468079  49.4177198  33.5377908  48.9872265
  51.3783360  32.7035809  48.5513306  52.3058605  33.1184554  48.1567574
  51.6106081  32.4253964  49.5793200  51.1472511  31.7568135  48.0631399
  50.8408880  35.1842451  49.0623045  51.8011284  35.3609991  48.5777473
  50.2164602  35.9658122  48.6294699  51.0295773  35.2984262  50.5731440
  50.0944567  35.6477690  51.0108805  51.4047527  34.3775678  51.0196495
  51.8767452  35.9702420  50.7112312  49.3361664  32.9112124  46.2276936
  50.0544214  32.3131871  45.4230642  48.0551624  32.5024915  46.4983559
  47.5111771  33.0074072  47.1833706  47.2945595  31.5011740  45.7010508
  47.8157663  30.5611491  45.8821535  46.3401079  31.3991022  46.2174845
  47.2617579  31.8750715  44.1809940  47.6764011  30.9532237  43.4487629
  47.0714808  33.1337261  43.8356686  46.7548800  33.8837790  44.4334030
  47.0523167  33.3348203  42.4228191  46.5803766  32.5281787  41.8618345
  46.2908506  34.6512341  42.0697880  46.6505718  35.4312253  42.7408409
  46.3854074  35.0183940  41.0478544  44.7198057  34.4170976  42.2428465
  44.3323231  33.9508009  43.1486797  44.0988159  35.8056188  42.4285650
  44.1996145  36.5135145  41.6058636  43.0425978  35.7597470  42.6939011
  44.5424223  36.2466431  43.3212042  43.9930487  33.7904716  41.0540581
  44.4311237  32.8030562  40.9084558  42.9193354  33.7022114  41.2197495
  44.1834021  34.4863486  40.2369738  48.5380602  33.3484626  41.8888569
  48.6123133  33.0847883  40.6739950  49.6239519  33.5174632  42.6836920
  49.3512440  33.5575747  43.6553526  51.0518456  33.7306666  42.3498726
  51.4560032  33.6981010  43.3616543  51.7235899  32.5991511  41.5622139
  51.2257862  32.4559760  40.6031561  52.7256107  32.9220390  41.2797213
  51.8197918  31.3052535  42.3779631  52.2728443  31.6208839  43.3177614
  50.8142138  30.8913612  42.4529314  52.8097439  30.2984953  41.7300844
  53.8256359  30.6900525  41.7824507  52.6222754  29.3661070  42.2626305
  52.3506498  30.0702786  40.3618813  51.3668966  30.2016640  40.1746225
  53.0482721  29.6764994  39.2885113  54.3111801  29.3802333  39.3391728
  54.6971655  29.5375848  40.2591515  54.8205280  29.1689539  38.4929895
  52.4584913  29.4813514  38.1590652  51.6513968  30.0462341  37.9363370
  52.8979254  28.9909577  37.3932266  51.2919950  35.1516676  41.8584538
  52.2084618  35.3639007  41.0730791  50.5275583  36.1406636  42.3390579
  49.9702406  35.8489919  43.1292629  50.6334209  37.5573754  41.9862127
  51.0433292  37.7065253  40.9872961  49.2343473  38.2102728  42.1261311
  48.8178682  37.8307962  43.0592108  49.3769407  39.2851782  42.0150471
  48.2427645  37.7152872  41.0765600  48.1425142  36.6314268  41.0191154
  46.8068361  38.3344316  41.2601280  46.2542057  37.8348684  42.0558262
  46.8697596  39.3891811  41.5277958  46.2369680  38.0500245  40.3755569
  48.8044405  38.1167388  39.7063732  48.9815712  39.1644526  39.4634342
  49.5475197  37.3980522  39.3607903  48.0166245  37.9198170  38.9792752
  51.6079712  38.3594108  42.9187489  52.0511341  39.4332457  42.6220465
  51.9199753  37.7244043  44.0801573  51.4380932  36.8792892  44.3515921
  52.8647184  38.3235002  45.0544167  53.4218740  39.1133356  44.5505857
  52.1437931  38.9556980  46.2232304  51.5424061  38.1557965  46.6551924
  52.8235960  39.2809224  47.0107555  51.3250637  40.0578022  45.7101297
  50.6489182  40.3118229  46.3425112  53.8743114  37.2247481  45.5852413
  53.3995771  36.1790919  46.1188602  55.1665258  37.5127172  45.4784632
  55.4557180  38.4272480  45.1620770  56.1794806  36.4682388  45.7091331
  55.7106876  35.8775973  46.4962006  56.4166021  35.6836414  44.3676519
  57.3141956  35.0830030  44.5148373  55.5451822  35.0631905  44.1584396
  56.6012859  36.5454030  43.1409788  57.7144432  37.3640442  42.8820133
  57.4815798  37.8434992  41.6249895  58.1465387  38.4781218  41.0579920
  56.3924265  37.3632526  41.0958815  56.0058165  37.5300837  40.1778364
  55.7874584  36.5647650  42.0147562  54.8743105  35.9964466  41.9168997
  57.5823736  36.9643950  46.2651968  57.7141476  38.1877661  46.4456797
  58.5686398  36.1104679  46.4712572  58.4816504  35.1213837  46.2861967
  59.8849964  36.3757730  47.0460415  59.9573135  37.4042726  47.3996830
  60.0932598  35.4846787  48.2702017  59.6843767  34.5043063  48.0256891
  59.4687939  35.7388520  49.1266727  61.8329668  35.2834225  48.7920094
  60.8405876  36.2120962  45.9108114  60.9855938  35.0926590  45.3235722
  61.7137814  37.2350812  45.6849384  61.4855289  38.0764866  46.1948776
  62.8859568  37.3046494  44.7748232  62.5386238  36.9112539  43.8194704
  63.3381748  38.7284541  44.4980097  64.2489100  38.7171531  43.8992310
  62.5771952  39.2376995  43.9066601  63.6304808  39.4562817  45.7307673
  62.7835989  39.7799492  46.0464096  63.9765549  36.2594271  45.0882626
  64.7318268  35.8404136  44.1418743  64.1226482  35.7685590  46.3136530
  63.4084511  35.9181309  47.0119762  65.0322533  34.6508431  46.6439867
  65.9764671  34.8209858  46.1266756  65.4167414  34.5923471  48.1330061
  65.4499817  35.6048727  48.5352373  64.5738459  34.2864823  48.7527418
  66.6223764  33.7231374  48.5378265  67.9335451  34.0294075  48.1436348
  68.7153721  33.0761695  48.7249422  69.7946787  33.0403495  48.7101507
  68.0194521  32.4262929  49.6404314  68.3723736  31.8465471  50.3883886
  66.6524553  32.6520276  49.4234943  65.8593607  32.2647357  50.0459242
  64.6126223  33.3522201  46.0293674  65.4430294  32.5557971  45.5954742
  63.3077765  33.1954193  45.8203411  62.6976299  33.9707971  46.0362291
  62.6429129  31.8735790  45.5709553  63.3739996  31.0790849  45.7206059
  61.5004063  31.6978359  46.6645527  60.8307934  30.9518623  46.2364817
  60.9100389  32.6107836  46.7426205  62.2298002  31.2957001  48.2959223
  62.2050047  31.8309617  44.0446949  62.7171135  31.0479808  43.2638836
  61.2406445  32.7306795  43.6800814  61.0298824  33.4494686  44.3575907
  60.7220364  32.8830743  42.2809553  60.6521368  31.8926120  41.8312836
  59.2970800  33.4558082  42.3834038  59.2875338  34.3130827  43.0565262
  58.7673521  33.9226604  41.0299683  57.6818657  33.9891195  41.1035013
  59.0796709  34.9379182  40.7853937  59.1843462  33.2583976  40.2730227
  58.3292341  32.3298430  42.8603601  58.6713171  31.9032812  43.8032961
  57.3190451  32.7391410  42.8701735  58.2748747  31.5039349  42.1511221
  61.6774368  33.9194107  41.5915346  61.6254282  35.0889182  41.9259739
  62.4657631  33.4420609  40.6686735  62.5771809  32.0832443  40.0896740
  61.5893507  31.7042303  39.8276639  62.9613066  31.4079332  40.8542013
  63.6458302  32.1963406  39.0246248  63.2439280  32.3599410  38.0247188
  64.3078899  31.3322735  38.9683533  64.5417786  33.3738160  39.3728304
  64.9401426  33.8650727  38.4850955  65.2102137  33.0199504  40.1577330
  63.5548115  34.3516898  40.1356125  64.0708447  34.8575521  40.9516478
  63.0051517  35.4978132  39.2331505  63.5960960  36.5882325  39.1572213
  61.7762756  35.3215599  38.6946130  61.3499737  34.4185758  38.8462114
  60.9207821  36.1769748  37.9122615  60.7877398  37.1108460  38.4584188
  61.5817690  36.4444613  36.4956546  62.6479530  36.2243056  36.4419222
  61.1072159  35.7910872  35.7635331  61.4490604  37.9451752  36.2050414
  61.5608835  38.0256271  35.1237822  60.4395485  38.3138895  36.3867831
  62.5907898  38.7976766  36.8280578  62.5391817  38.7535882  37.9159427
  63.6195230  38.5083270  36.6133881  62.2899246  40.2192354  36.2784696
  62.3745251  40.1745558  35.1926756  61.2434721  40.4880476  36.4226055
  63.1662226  41.2374973  36.8475461  62.8118658  42.1609688  36.6432691
  63.2278919  41.2208509  37.8555274  64.1125154  41.1762094  36.4998698
  59.5304918  35.5016446  37.6017070  59.4629622  34.3371367  37.2186303
  58.3608246  36.1476731  37.8242302  58.5262680  37.0713139  38.1978822
  57.0326519  35.8022380  37.4410987  57.1123743  35.5012226  36.3965249
  56.5350246  34.4987130  38.1814218  57.3146868  33.7375641  38.2111835
  56.3135290  34.8295331  39.1961122  55.2771807  33.9095712  37.4610472
  54.7112560  34.7445726  37.0480037  55.5790710  32.9332662  36.2942314
  56.1778784  33.4564781  35.5487275  56.1657047  32.0679069  36.6026497
  54.6182537  32.5633526  35.9363270  54.5135927  33.2333803  38.5794091
  54.1786718  33.8009858  39.4475961  53.6852646  32.6876068  38.1276250
  55.1828766  32.5231361  39.0649056  56.0483217  37.0077968  37.5125766
  55.3357363  37.1313214  38.5088897  56.0405922  37.8178406  36.4896369
  56.5348339  37.4550056  35.6870341  55.2798462  39.0758824  36.3522363
  55.7174587  39.7826481  37.0572734  55.5720568  39.5880270  34.9385309
  56.6497421  39.7250080  34.8495173  55.2653599  38.8877773  34.1615534
  55.0418711  40.9044886  34.4930744  55.3905058  41.0686207  33.4734583
  53.9672947  40.7561207  34.3864226  55.4455376  42.1554518  35.3241324
  54.7276735  43.1208324  35.5768251  56.6351938  42.2309589  35.7373881
  53.7754822  39.0017796  36.4588237  53.2047367  38.1441569  35.7709765
  53.0830050  39.9169779  37.2070384  53.6086416  40.4630089  38.4313869
  53.9179087  41.4870739  38.2222223  54.3681145  39.9294376  39.0028811
  52.4150610  40.7253408  39.4182920  52.6897764  41.5837860  40.0312376
  52.2775459  39.8249269  40.0170088  51.2545538  40.9122467  38.4809256
  51.2329626  41.9227219  38.0727983  50.3280163  40.5787468  38.9482617
  51.6141033  39.9477816  37.3160553  51.4317942  38.9797568  37.7827382
  50.8242273  40.0574875  36.0519385  51.3702297  40.5752134  35.1082587
  49.4592905  39.7407794  36.1078596  49.2021942  39.2218423  36.9353294
  48.4583426  40.2153778  35.1261973  48.5631180  39.7055960  34.1684675
  47.0599985  39.7736883  35.5020070  46.3171434  39.9680710  34.7283888
  47.1249294  38.2487750  35.6618762  47.4422503  37.8174162  36.6112685
  46.1193371  37.8324604  35.6021929  47.5713015  37.6073456  34.9019933
  46.5477753  40.3022432  36.8155885  45.8799839  39.5542526  37.2429824
  47.2909546  40.5490541  37.5737882  45.7150459  41.5696907  36.6046381
  45.1437140  41.6661453  37.5278783  46.2524080  42.4717140  36.3118839
  44.8815727  41.4052534  35.9217143  48.6309242  41.6873074  34.9192619
  48.9135647  42.3808050  35.8537221  48.6269236  42.1686888  33.6517501
  48.4695339  41.3923502  32.4568677  47.8124571  40.5353165  32.6046300
  49.4299555  40.9165907  32.2584987  47.8671360  42.3053646  31.4306712
  46.7799664  42.2614861  31.4957976  48.1650019  42.2129917  30.3862381
  48.4161329  43.6538124  31.8367672  47.6519394  44.3858671  31.5756035
  49.3194056  43.9326334  31.2941265  48.6468887  43.5407209  33.3162928
  49.6330976  43.9613199  33.5127425  47.5887346  44.4193697  34.0244865
  46.4093828  44.1146421  33.8778543  47.9460239  45.5694437  34.5889449
  48.9395618  45.7507658  34.5787144  47.0976257  46.3590431  35.5430198
  47.1000004  45.7862473  36.4703822  47.9045486  47.5938225  35.9228134
  48.3830309  47.9785442  35.0221777  47.3245001  48.4241867  36.3254738
  49.0388536  47.2800636  36.9912863  48.7157917  47.4241114  38.0222964
  49.2238951  46.2088537  36.9113922  50.2531242  48.1485367  36.7912602
  51.3183880  47.4450874  36.8767977  50.2936459  49.4326830  36.6706991
  45.7486773  46.7797518  35.0817347  44.9495316  47.2825480  35.9304047
  45.4956865  46.7575169  33.7727284  46.1398602  46.3790369  33.0930996
  44.3649626  47.4308968  33.2009339  43.4859371  47.4312258  33.8454652
  44.6475077  48.9160347  32.8596592  45.3265953  49.2706347  33.6350298
  45.2118301  48.9543915  31.9279003  43.4016848  49.8233843  32.8016233
  42.9372740  50.4682112  31.7503190  43.4369373  50.3454065  30.8007622
  41.8472242  51.2347507  32.1137404  41.3570690  51.7247343  31.3790536
  41.7040491  51.2960386  33.4908342  40.8824968  51.9899464  34.4490147
  40.0419235  52.5507450  34.0677762  40.9552956  51.6570425  35.7792878
  40.2553701  52.0536470  36.4998579  41.9178486  50.7622099  36.2224460
  41.9602919  50.5578661  37.2820902  42.7694559  50.1129770  35.3476548
  43.5295486  49.4433022  35.7220888  42.6406288  50.3169870  33.9671135
  43.9169931  46.7052031  31.9091749  44.8171186  46.2705183  31.1591530
  42.6567793  46.4673042  31.6101003  41.5541697  46.3375759  32.5278115
  41.0318327  47.2795725  32.6948833  41.9614363  46.0203695  33.4878230
  40.5790854  45.3529692  31.9278049  39.5694137  45.4172230  32.3334360
  40.9565496  44.3355703  32.0303798  40.6697321  45.7416534  30.4542947
  40.2869987  46.7594767  30.3791022  40.1819515  44.9641228  29.8664045
  42.1779490  45.8840656  30.3191471  42.6527548  44.9049616  30.3824806
  42.6538038  46.7047405  29.1265750  42.8648996  47.9151630  29.2881894
  42.8557873  46.0494328  27.9286361  42.7835608  44.6229601  27.5850773
  41.7700005  44.2449951  27.7189946  43.5260773  44.1635513  28.2375431
  43.3846188  44.4637966  26.1545634  42.9052877  43.7138271  25.5253673
  44.4312620  44.1713572  26.2388778  43.2271338  45.8877802  25.5584598
  42.2847271  45.7735205  25.0228071  44.1013622  46.0306549  24.9233127
  43.2084513  46.8791962  26.6933417  44.1485357  47.4216318  26.7938566
  42.0969629  47.9676056  26.3703227  40.9062958  47.7645397  26.7577100
  42.4944067  49.0795135  25.7158232  43.4323311  49.1894388  25.3576136
  41.4950180  50.1126766  25.4167557  41.1681414  50.4583120  26.3974643
  42.0902777  51.4155483  24.6659255  43.0146933  51.8002796  25.0966716
  42.3553276  51.0293388  23.6817074  41.0643768  52.5446796  24.4514561
  40.1596689  52.0535040  24.0931940  40.8918858  53.4257078  25.6691146
  41.8530273  53.9368296  25.7244802  40.0560713  54.1091824  25.5195045
  40.7954693  52.6799345  26.4581800  41.5354443  53.4918165  23.2817626
  42.3747301  54.1270876  23.5648584  41.9796753  52.9138708  22.4713659
  40.6769323  54.1060877  23.0102396  40.3023338  49.4727325  24.5944095
  39.1517472  49.7635555  24.9092746  40.5638599  48.6142492  23.5544991
  41.5150356  48.4892702  23.2386589  39.4644117  47.8212976  22.9203534
  39.0000916  48.4697962  22.1774173  40.2034283  46.7394876  22.1177387
  40.7975817  47.1946764  21.3253450  40.8974504  46.1958456  22.7587485
  39.3865132  46.1094999  21.7657924  38.3847785  47.2257757  23.9113212
  37.1902156  47.4446630  23.6593342  38.8011765  46.5129185  24.9463296
  39.7876310  46.3038015  24.8890114  38.0175614  45.7728148  25.9320521
  37.1562457  45.2516079  25.5142212  38.9286757  44.6910715  26.5004206
  39.5717001  45.1105881  27.2741270  38.3757854  43.8950253  26.9991493
  39.7687078  44.1143990  25.5078793  39.2073750  43.6318684  24.8965955
  37.4323130  46.5853977  27.0175457  36.9342804  45.9743214  27.9785490
  37.4800801  47.9003143  27.0396900  37.8225470  48.3369446  26.1957860
  36.8373775  48.7224579  28.1538439  35.9628677  48.1261444  28.4141231
  37.7754617  48.6215448  29.3868232  37.2955060  49.2046547  30.1727772
  37.9819775  47.6015949  29.7110939  39.3441105  49.4205523  28.9226770
  39.7844195  48.5532999  28.0067635  36.4686084  50.1718283  27.8512120
  35.8025765  50.8856535  28.5363078  37.0161200  50.7273054  26.7826343
  37.5622606  50.1337814  26.1747146  36.6981506  52.0982361  26.3115239
  36.8629813  52.2398281  25.2434039  35.6267762  52.2501755  26.4425659
  37.4224043  53.2145596  27.1200609  37.2609401  54.3950701  26.8536973
  38.1859326  52.8345680  28.1424403  38.3423781  51.8394661  28.2159424
  38.7673473  53.6152124  29.2958403  38.4888005  54.6683550  29.2582941
  38.1908202  53.1198168  30.6510949  38.2366967  52.0311451  30.6792426
  38.9418840  53.6774302  31.8975282  38.4649253  53.1996584  32.7532983
  39.9538183  53.2891083  31.7822218  38.8547993  54.7634315  31.9309974
  36.7847610  53.6812639  30.9214735  36.4241052  53.3297586  31.8881583
  36.8008423  54.7705555  30.8856630  36.0989547  53.2925415  30.1687026
  40.3399611  53.6217451  29.2671394  40.9648991  52.6697350  29.6819353
  40.8896446  54.7751188  28.8510585  40.3203440  55.8638048  28.0136108
  39.7271633  56.5251541  28.6451602  39.7052407  55.4603338  27.2092748
  41.5752888  56.6284132  27.4883318  41.4203405  57.6800394  27.2471333
  42.0745468  56.1523104  26.6444349  42.4964476  56.5286446  28.6947942
  42.1329165  57.2611189  29.4155097  43.4888077  56.8180418  28.3490014
  42.2760153  55.1063871  29.1798735  42.9755116  54.3811893  28.7640524
  42.3873281  55.0961685  30.7425833  41.4022732  55.4209614  31.4146161
  43.5173416  54.5365191  31.3327527  44.5964003  53.9113665  30.6299400
  45.1806259  54.6662426  30.1036835  44.2458105  53.1744576  29.9073410
  45.5200529  53.2395172  31.6972327  46.5319490  53.6153221  31.5457654
  45.4105902  52.1550274  31.6968894  45.1648664  53.7921000  33.0447340
  45.7706499  54.6638250  33.2921624  45.1837015  53.0778360  33.8678837
  43.7174034  54.2728138  32.7870846  43.1355762  53.4107304  33.1132555
  43.1364107  55.4319143  33.5401821  43.6130428  56.5865278  33.4195828
  42.1075726  55.1736450  34.3155265  41.8650198  54.2254305  34.5648432
  41.4842319  56.0820198  35.2718019  40.7091761  55.5039454  35.7750177
  42.4921608  56.3844919  36.4403868  43.4765482  56.7643642  36.1669278
  42.0675945  57.1563530  37.0823169  42.7366495  55.1314545  37.2946477
  41.8027735  54.6172190  38.2267189  40.8722591  55.1384926  38.3964849
  42.0712805  53.4183550  38.9124560  41.3480043  52.9421759  39.5578480
  43.3792353  52.8489208  38.8659120  43.6373472  51.9884682  39.4654226
  44.3250751  53.4254742  38.0146909  45.2886438  52.9566240  37.8800511
  43.9974976  54.5013762  37.1999145  44.6494102  54.8591375  36.4167047
  40.9160709  57.3152781  34.6154189  41.1927605  58.4532356  34.9518824
  40.1871920  57.1282768  33.5319901  40.0183535  56.2020397  33.1663561
  39.4858718  58.2186556  32.7764821  39.4312692  59.1096687  33.4019518
  40.2148819  58.5242176  31.3737392  40.2853394  57.6814079  30.6861258
  39.6472526  59.2701960  30.8174920  41.5971136  59.1748905  31.5864396
  42.1694803  58.4379911  32.1498847  42.1561432  59.2642021  30.6549788
  41.6678667  60.5989838  32.1979976  41.1597538  61.5859985  31.7165780
  42.4448633  60.7309914  33.3121371  42.3514271  61.5938616  33.8286901
  43.0059242  59.9918175  33.7108016  38.0511189  57.8334284  32.6144290
  37.6828957  56.6529560  32.8216577  37.1885347  58.7491369  32.2438145
  37.6381516  59.6475315  32.1397543  35.8658862  58.4295130  31.6182137
  35.3624821  57.8645229  32.4027300  35.0081253  59.6646833  31.4184785
  35.4497480  60.3708029  30.7152963  34.1073704  59.3278408  30.9053683
  34.6688104  60.2621651  32.7120972  34.0959334  59.4776583  33.2065272
  35.6000495  60.4132652  33.2580471  33.7798929  61.4933586  32.6656651
  34.3211746  62.1775150  32.0121789  32.7771521  61.3224697  32.2739935
  33.6967707  62.1130419  34.0834212  33.0965328  61.3947821  34.6419263
  34.6729159  62.1988964  34.5607781  33.0614710  63.4681892  33.9614534
  32.3759580  63.4987402  33.2203460  32.8136587  63.8613939  34.8581600
  33.7822294  64.0818214  33.6092281  36.0522175  57.6525688  30.2083349
  37.0984268  57.7640104  29.5154595  35.1101470  56.7871332  29.8389626
  33.8822627  56.4559126  30.4803157  33.0412865  57.1094179  30.2483892
  33.9260244  56.4787483  31.5691972  33.6170053  54.9580717  30.0817037
  32.5595689  54.7117567  30.1779318  34.2942739  54.3242216  30.6541038
  34.0769887  55.0324869  28.6386847  33.1995797  55.3946924  28.1029034
  34.4263816  54.0354490  28.3704734  35.1897073  56.1287832  28.5642099
  36.2030411  55.7356405  28.4824204  35.0090194  56.9475746  27.3607779
  34.0849948  57.7859926  27.2332788  36.0878778  56.7966366  26.4982724
  36.8415713  56.2408972  26.8766904  36.3007450  57.3414183  25.1492262
  36.1566782  58.4218311  25.1564384  37.7147198  57.0964003  24.4554734
  37.9954052  56.0431862  24.4482851  37.6860404  57.3842478  23.4045601
  38.8376021  57.8403616  25.3041720  38.8261247  57.5054216  26.3413715
  40.1775122  57.5088406  24.6716309  40.9908533  57.9504108  25.2474761
  40.2905703  56.4486885  24.4449282  40.2952766  57.9786062  23.6951303
  38.5858083  59.4079685  25.1941991  38.2595682  59.6531248  24.1834712
  37.8374147  59.6569061  25.9465551  39.4129705  60.0010204  25.5843234
  35.1132369  56.9129324  24.2041039  34.8431396  57.6676321  23.3137441
  34.4996238  55.7278776  24.2714024  34.9689102  55.2522516  25.0288010
  33.3472347  55.1233530  23.6369371  32.8463507  55.8031130  22.9476237
  33.8845825  54.1206264  22.6215935  34.2328477  53.2602406  23.1930375
  32.7373862  53.6654949  21.7063928  31.8906474  53.2080555  22.2181320
  32.3753238  54.5403671  21.1663890  33.1209278  52.9727793  20.9573030
  34.9714875  54.6492434  21.8984485  35.7294989  54.5448160  22.4782062
  32.4889302  54.4937801  24.8002505  32.9587555  53.8804817  25.7286310
  31.2847424  54.9099445  24.9257040  31.1502695  55.7035494  24.3156147
  30.4087734  54.8048115  26.1167026  30.8407688  55.3147173  26.9777942
  29.0260816  55.4602051  25.7617998  28.4759140  55.5703402  26.6962981
  29.3254828  56.4422846  25.3957748  28.3155465  54.7299576  24.8031592
  27.7735853  55.3961325  24.3740964  30.1313591  53.3422184  26.4733672
  30.1971006  52.4946737  25.5683756  29.7421551  53.0182409  27.7542758
  29.6508598  53.8356209  28.9012885  28.7861133  54.4981098  28.9389586
  30.5561614  54.4364405  28.9882159  29.6116686  52.9300165  30.0971794
  29.2371559  53.4390879  30.9852600  30.5178928  52.4219370  30.4268932
  28.6353636  51.8073130  29.6117425  27.5976562  52.1405840  29.6257329
  28.8888502  50.9005594  30.1609635  29.1425252  51.7605543  28.0854392
  29.9764109  51.0595417  28.0490923  28.0284309  51.2538195  27.1459270
  28.0775738  50.0390482  26.7210770  27.0697308  52.0701742  26.7504048
  26.9558620  53.0050087  27.1154022  26.2060261  51.7569542  25.5762291
  25.6636071  50.8317995  25.7711029  25.2897525  52.9433918  25.3287673
  25.8986068  53.8012600  25.0433517  24.6643329  52.6915979  24.4722891
  24.4845629  53.1543064  26.4911795  24.1219783  53.9968777  26.2079740
  26.7963552  51.3110828  24.2957616  26.5589213  50.2227736  23.7623906
  27.5903630  52.2050190  23.6965179  27.8546953  53.0421066  24.1960311
  28.0184174  52.0226717  22.3131895  27.2030592  51.7784595  21.6322637
  28.9697289  53.2871294  21.9109154  29.5624185  53.5809755  22.7772164
  29.6442962  53.0762959  21.0810852  28.2349777  54.5466089  21.5421462
  27.7099442  54.5039701  20.5878806  27.5166798  54.7529936  22.3355961
  29.1334057  55.8160305  21.4221621  29.4947791  56.0734510  22.4177718
  30.0932050  55.6206703  20.9439087  28.2677031  56.9427919  20.8252263
  27.4051523  56.6936445  20.3625846  28.6324263  58.2666159  20.9721994
  29.6822214  58.6299515  21.6295123  30.3419137  57.9335165  21.9455647
  29.9038482  59.6048021  21.7732096  27.9634452  59.2742062  20.3744125
  27.1815705  58.9738417  19.8100078  28.1711030  60.2618408  20.3349471
  28.8930964  50.8296108  22.1239424  28.8866496  50.2020979  21.0502863
  29.6989846  50.5782700  23.1657958  29.6567488  51.1890316  23.9690924
  30.5680919  49.3511915  23.2874441  31.2909961  49.4185066  22.4744344
  31.4236856  49.3510485  24.5864081  30.6622076  49.4683981  25.3574371
  32.0099449  48.4395456  24.7028637  32.5265431  50.4807663  24.7274804
  32.0931053  51.4744806  24.6145177  33.1830549  50.3475332  26.1518836
  33.4463954  49.2965508  26.2709689  33.9468789  51.1100912  26.3041234
  32.3866844  50.5204678  26.8757558  33.6354351  50.2901649  23.6520052
  34.4333601  50.9957886  23.8833332  33.9476466  49.2575598  23.8080549
  33.2358551  50.3521061  22.6397824  29.6496940  48.1711054  23.1271839
  29.8234820  47.4360800  22.1840453  28.7585187  47.9550600  24.0517783
  28.6049747  48.7357616  24.6738958  27.7683353  46.9497824  24.1668582
  28.2298040  46.0014963  24.4423676  26.8271947  47.2533226  25.3791189
  27.4306369  47.4890518  26.2556982  26.1719894  48.1216955  25.3103065
  25.9946704  46.1605310  25.6852055  25.2260971  46.1560059  25.1099920
  26.9617748  46.6005993  22.8203750  26.8731999  45.4145002  22.4211764
  26.4932799  47.6877213  22.1693587  26.7189550  48.6177731  22.4921250
  25.9430981  47.6972675  20.8106875  25.0243783  47.1171951  20.7236362
  25.4675961  49.1141129  20.4691339  24.9904680  49.5032883  21.3685727
  26.3420296  49.7317934  20.2643251  24.6507502  49.3631172  19.2151201
  24.8793769  48.5761881  18.4963906  23.6405873  49.1132116  19.5394945
  24.8043370  50.7823801  18.6564112  24.0538263  50.9216928  17.8783202
  24.6761203  51.4880228  19.4772196  26.0967731  51.0669851  18.0935168
  26.5774155  50.2113104  17.8549767  26.5231299  52.3021936  17.7856040
  25.8880138  53.4476519  18.1122351  24.9714756  53.4744072  18.5357249
  26.2915635  54.3020535  17.7555156  27.6855946  52.4088287  17.2980928
  28.1770372  51.5279388  17.2469485  28.0962372  53.2994986  17.0568883
  26.8734455  47.1522856  19.7299206  26.5337372  46.2272501  18.9989209
  28.1127238  47.6526117  19.6080041  28.3787107  48.4011555  20.2317262
  29.0302968  47.0840502  18.5610461  28.5001278  46.9186592  17.6231384
  30.0327992  48.0760813  18.2115304  30.4905319  48.4675074  19.1200292
  30.7982278  47.5137091  17.6767826  29.4942999  49.3344593  17.4306977
  28.2843781  49.5368767  17.2273624  30.2828193  50.1009941  16.9297612
  29.5995092  45.6931543  18.8404000  29.6855998  44.8346043  17.9759967
  29.8973227  45.4551125  20.0820065  29.8096156  46.2060833  20.7516742
  30.5199814  44.2313623  20.5510497  31.1083484  43.9514542  19.6772146
  31.4703822  44.4976664  21.7278194  30.8653998  44.9378633  22.5204849
  31.7947435  43.5242414  22.0956969  32.5779080  45.5010891  21.4625192
  33.7922835  45.5228853  22.1600246  34.4564342  46.6121817  21.7079210
  35.4065895  46.9755268  22.0706654  33.7397337  47.2015524  20.7520986
  33.9256287  48.1239319  20.3850007  32.5503564  46.5248251  20.5582070
  31.7906976  46.7416239  19.8217821  29.6322155  43.0177498  20.7864618
  30.2386594  41.9385958  20.9224248  28.2995772  43.2448292  20.8029342
  27.9202485  44.1738272  20.6881523  27.3056054  42.1922493  20.8187270
  27.1095586  41.8217945  21.8249226  25.9543920  42.8944921  20.3767896
  25.1930761  42.1288443  20.2275109  25.5782127  43.4638357  21.2267566
  26.0882759  43.3753014  19.4077682  27.6240659  41.0872984  19.8372138
  27.6727271  39.9232578  20.1532245  27.8361487  41.4092350  18.5834360
  27.7540445  42.3981094  18.3950591  28.0534768  40.4118443  17.4979115
  27.4005938  39.5425558  17.5765753  27.7737975  41.0507965  16.1307204
  28.3165359  40.5272341  15.3436840  26.2690854  41.2507629  15.8496070
  25.7893205  40.3095531  15.5811822  25.7781720  41.5631580  16.7712998
  25.9633255  41.9064426  15.0343168  28.2153893  42.3524380  16.0650432
  29.1310668  42.3313999  15.7774782  29.4557047  39.8165154  17.6094282
  29.6115613  38.7772226  17.0097816  30.4579639  40.4262733  18.3313763
  30.2555370  41.1837769  18.9680207  31.7242050  39.7598362  18.5627139
  32.0585680  39.4720936  17.5659657  32.7777982  40.7365751  19.0309739
  32.4758410  41.0185003  20.0396562  33.6334062  40.0630379  19.0797448
  33.1597686  42.0052910  18.1607950  32.1903729  42.4941683  18.0639493
  34.0015435  42.8211641  19.0787268  34.5976019  42.2099972  19.7564363
  34.7504926  43.3553219  18.4940422  33.3429289  43.4621334  19.6648061
  33.8043523  41.7898178  16.7890418  33.8624382  42.7861929  16.3508999
  34.8529768  41.5201187  16.9145739  33.1759572  41.0429955  16.3037837
  31.6727090  38.5558009  19.4446075  32.2551560  37.5498843  19.0793979
  30.9881830  38.6327839  20.5744171  30.3474641  39.3983388  20.7277250
  30.8437371  37.6002121  21.6822696  30.2166653  36.8091917  21.2709737
  32.1655059  36.9013214  22.0171714  32.4815345  36.2904143  21.1715841
  32.9603529  37.6309180  22.1721244  31.9985914  35.9401655  23.1978512
  30.9404087  35.5613256  23.5429001  32.9927969  35.2607441  23.6727023
  32.7248502  34.5452929  24.3333364  33.9563394  35.4320288  23.4230328
  30.1837897  38.1552553  22.8667140  30.7327986  38.9610696  23.6010480
  28.9516044  37.6582026  23.0478907  28.5755038  37.0378232  22.3451900
  28.0777240  38.0044079  24.2104268  27.7077675  39.0257621  24.1206217
  27.2783303  37.2648454  24.2564702  28.7487602  37.9517865  25.6134105
  28.5078812  38.8155317  26.4002991  29.4834328  36.9271827  25.9209538
  29.5903778  36.2064695  25.2215004  30.3102350  36.8458557  27.1648955
  29.5613861  36.9141293  27.9539871  31.0390067  35.5331278  27.2021246
  30.2856112  34.7646356  27.0291591  31.7577267  35.4146791  26.3912535
  31.4268994  35.3021741  28.1942511  31.4198208  37.9994798  27.3325896
  31.7358375  38.5700560  28.3861327  32.0540977  38.3695674  26.2347913
  31.6767120  38.1115389  25.3341746  33.1737471  39.2727995  26.1974978
  33.7577581  39.1726589  27.1123743  34.1204238  39.0058994  24.9806523
  34.6365523  38.0617309  25.1546001  33.5604215  38.8588238  24.0571451
  35.2271056  40.0421095  24.9050403  34.8124480  41.0492468  24.9480009
  36.2091255  39.8680472  26.1019397  37.1962738  40.2128792  25.7941580
  35.9701872  40.3757906  27.0363975  36.3424158  38.7869668  26.1419153
  35.8696342  39.9976087  23.5553193  36.1705613  38.9506793  23.5168552
  35.1462865  40.2127695  22.7688241  36.7182636  40.6785822  23.4904790
  32.5249553  40.6864929  26.1463141  33.0679798  41.5775967  26.8467307
  31.4021969  40.8922005  25.4855633  31.0128689  40.0991917  24.9960160
  30.5034757  42.1019793  25.5380034  31.0229254  42.9435682  25.0797439
  29.3655777  41.8319321  24.5601177  29.8699641  41.6199064  23.6173868
  28.8885880  40.8974457  24.8556209  28.3439994  42.9994678  24.5001531
  28.6642313  43.8735008  25.0672746  28.3546925  43.2884884  23.4492230
  26.9458318  42.6816368  24.8536992  26.6447830  41.8733597  25.7147169
  26.0111809  43.3186913  24.2019010  25.0789094  43.2865238  24.5891261
  26.3015723  43.9099121  23.4362435  30.1191473  42.3038769  26.9558024
  30.4825163  43.3500481  27.4932504  29.4627094  41.3035583  27.6312494
  29.2579770  40.4029417  27.2224855  29.2020321  41.4508009  29.1093349
  28.3730912  42.1304941  29.3067622  28.7759757  40.1207209  29.7667789
  27.8653359  39.7413921  29.3031573  29.5694113  39.3961620  29.5835423
  28.4456563  40.2252102  31.2409782  27.2098684  40.7011080  31.6920519
  26.3649178  40.9032440  31.0504889  26.8539739  40.7915354  33.0289602
  25.8706427  41.0410976  33.3993340  27.8545380  40.4128838  33.9761806
  27.5270915  40.3361368  35.0024796  29.1400170  40.0120068  33.6164689
  29.8416591  39.6977067  34.3749666  29.4774532  39.9654150  32.2247410
  30.4782319  39.7876287  31.8597293  30.4030275  42.0289469  29.9504781
  30.3866005  43.0861950  30.5862379  31.6485143  41.4061594  29.7651243
  31.7171669  40.6973982  29.0488553  32.8941727  41.8661165  30.4505873
  32.5423574  41.7670107  31.4774776  34.0488815  40.8825207  30.1435471
  33.8744211  39.8392606  30.4067516  34.2350340  40.8122015  29.0718603
  34.8756647  41.4384842  30.5856299  33.3212972  43.3174181  30.0983977
  33.4275723  44.1677237  30.9755564  33.3781695  43.6189413  28.8249373
  33.2258248  42.9376411  28.0950570  33.5715628  44.9467087  28.3051848
  34.5877314  45.3256559  28.4142852  33.2515955  44.8860073  26.8074918
  32.2436309  44.4711971  26.8140554  33.4496832  46.1703539  26.0040069
  32.9435897  46.9944763  26.5067959  34.4941735  46.4777327  26.0556078
  33.0167198  45.9890318  25.0202560  34.0920281  44.0518045  26.1732173
  33.7925220  43.1791449  26.4384770  32.6550174  46.0196638  28.8855076
  32.9872847  47.1338463  29.2810845  31.3769984  45.6558990  28.9285541
  31.0719609  44.7836494  28.5208321  30.3225970  46.5972567  29.3459511
  30.5055881  47.5296736  28.8118887  28.9908361  46.0304546  28.9022851
  29.1250372  45.8964777  27.8289056  28.9341664  45.0548649  29.3851066
  27.7835321  46.8126392  29.2346120  27.7654862  47.1178102  30.2808666
  27.8222537  47.7747679  28.7238073  26.4506626  46.0849333  28.9697576
  26.4980936  45.6289625  27.9808497  26.2245560  45.3844643  29.7736979
  25.2449274  47.0344925  29.0425515  25.3111815  47.3408127  30.0865245
  25.4546595  47.7889824  28.2843590  24.0093875  46.2522411  28.6600709
  23.9854670  45.4876566  29.3195748  23.1171227  46.6849899  28.8516140
  24.2010212  45.7777500  27.7893043  30.3320861  46.8764400  30.8769298
  30.4187274  47.9972172  31.3828921  30.3769994  45.8224821  31.6807890
  30.5296445  44.9400377  31.2137866  30.5836201  45.7948875  33.1290436
  29.8102617  46.3975143  33.6053467  30.5710554  44.3056393  33.5553074
  29.6236014  43.8396740  33.2845354  31.3096189  43.9194059  32.8528500
  30.7933211  44.0335846  35.0716901  31.6117239  44.6676397  35.4127049
  29.8458648  44.2613554  35.5601048  31.0596180  42.5236750  35.3308988
  31.3938618  41.7773867  34.4596386  30.9535718  42.0803499  36.6119313
  31.0740614  41.1162710  36.8878579  30.4959154  42.6645756  37.2970104
  31.9116235  46.5744972  33.4829950  31.8552661  47.5425482  34.2087078
  33.0722713  46.2224960  32.9147077  33.0787253  45.4203367  32.3010302
  34.3019080  46.9514608  33.1012034  34.5573854  47.0165634  34.1588402
  35.4624987  46.1181641  32.4236560  35.3755379  46.1067057  31.3371873
  36.3755751  46.6649294  32.6591110  35.6975532  44.6449852  32.9297924
  34.7726178  44.0780354  33.0354857  36.6624808  43.7834835  32.0525932
  36.1199474  43.8253307  31.1081386  37.6667380  44.2072201  32.0563865
  36.7169285  42.7357960  32.3483729  36.4805770  44.6726513  34.2548394
  36.8910408  43.6797619  34.4386411  37.2345448  45.4504681  34.3758178
  35.7086325  44.6912432  35.0241590  34.3413997  48.3330059  32.5672674
  34.9474645  49.1773891  33.2664943  33.6116958  48.6719370  31.5515828
  33.0594516  47.9431295  31.1226678  33.5208750  50.0825357  31.1368895
  34.4914293  50.5611753  31.0063767  32.7202964  50.2370501  29.8735023
  33.1784749  49.6461153  29.0804243  31.6884232  49.9718904  30.1037812
  32.7311110  51.5870428  29.4307971  33.5880923  51.7385817  29.0255570
  32.8283143  50.9183598  32.2511768  33.4158301  51.8487310  32.8179264
  31.6425490  50.5174446  32.7010512  31.2924266  49.6935940  32.2333074
  30.9831405  51.1927557  33.7962437  31.0443711  52.2587538  33.5771608
  29.4628692  50.8431196  33.8550043  28.9118075  51.5723467  34.4488549
  29.0199327  50.8691931  32.8593969  29.2387986  49.4377947  34.3847084
  29.8912859  48.8423681  33.7460899  29.6219206  49.3967581  35.4043341
  27.7400637  49.0779972  34.4498563  27.3127913  49.3864679  35.4039979
  27.0934844  49.5221710  33.6930585  27.6688194  47.6188612  34.2564654
  27.6109505  47.2950506  33.3015323  27.6280594  46.7379093  35.1897931
  27.6959038  46.9910240  36.4569545  27.6955342  47.9545975  36.7596579
  27.7493095  46.2916851  37.1837115  27.6325226  45.4893398  34.8102784
  27.2779059  45.1652670  33.9218378  27.6319885  44.7613621  35.5103827
  31.6307497  51.0402727  35.1507521  31.4487505  51.8962860  35.9991241
  32.4311137  50.0179100  35.4024959  32.5028753  49.2594910  34.7393584
  33.1760478  49.8924780  36.6462231  32.4365020  50.2236319  37.3752713
  33.5010505  48.4045172  36.8394756  34.1702843  47.9973888  36.0815358
  34.1923475  48.1884861  38.2150173  35.2453256  48.4392357  38.0867100
  33.8186049  48.7862444  39.0463424  34.1781878  47.1267843  38.4613538
  32.3244619  47.6812983  36.7445779  32.0386434  47.7106762  35.8285832
  34.4129181  50.8093500  36.6739511  34.6357751  51.3755035  37.7129531
  35.1259184  50.8458090  35.5609775  34.8762083  50.2740574  34.7667193
  36.5617394  51.3838673  35.5594277  36.9067168  51.2651348  36.5865564
  37.4974656  50.5803776  34.5461559  37.0234966  50.5630875  33.5647511
  38.3718443  51.2058973  34.3664646  37.7967405  49.1536617  34.8374867
  36.8470764  48.6745644  35.0756049  38.4661770  48.4432888  33.6633825
  39.3641877  48.9564991  33.3194423  38.7595034  47.4523544  34.0099525
  37.6514316  48.3382607  32.9469609  38.6498594  49.0467978  36.0837698
  38.6428046  48.0322933  36.4823079  39.6561813  49.3123436  35.7598925
  38.3254600  49.7712851  36.8307567  36.5120983  52.8843355  35.2552128
  37.4706674  53.5987329  35.6115294  35.4168391  53.4095001  34.7814894
  34.6662974  52.7974844  34.4947433  34.9529290  54.8045492  34.8808670
  35.7783175  55.4244518  34.5307779  33.7864304  55.0075960  33.8885117
  33.3279228  55.9713554  34.1099715  34.1890121  54.9336576  32.8782821
  32.7308536  54.0654993  33.9627552  33.0505610  53.2985353  33.4819674
  34.4936037  55.1732922  36.2514949  34.1577554  56.3557959  36.4076400
  34.3255234  54.3072081  37.1969056  34.4735289  53.3386564  36.9517469
  33.9297605  54.6511269  38.5629821  33.7100673  55.7166719  38.6296535
  32.6588893  53.9027452  38.9397955  32.3047376  53.4507465  38.0133104
  32.8908658  53.0952263  39.6342015  31.6280484  54.9454212  39.4850230
  32.1788001  55.4626465  40.2706766  31.3655376  55.6256962  38.6748314
  30.3862572  54.2251110  40.1453590  29.9028134  53.4499836  39.5507479
  30.7191372  53.6830425  41.0304880  29.2714596  55.1445293  40.5561209
  29.5622635  55.6379747  41.3880157  28.2967544  55.6860924  39.8273087
  27.8229165  55.1075220  38.7017798  28.2630444  54.2874765  38.3094549
  27.0282555  55.5870342  38.3034325  27.6780081  56.7562246  40.2802944
  27.9653835  57.2276688  41.1260176  26.7435336  56.9793797  39.9687505
  35.0423169  54.4894743  39.6393752  35.1211119  55.2936792  40.5803251
  35.9721375  53.5624647  39.3831754  35.8526111  52.9502487  38.5888171
  37.2214675  53.4500027  40.1014614  37.0439291  53.3235168  41.1694431
  37.9555821  52.2870445  39.4138646  38.4929228  51.7534304  40.1978445
  37.2668958  51.5976715  38.9254189  38.5931563  52.7085543  38.6367393
  38.1547618  54.6773958  39.9796057  38.1610560  55.4921818  39.0314245
  38.9775372  54.8727179  40.9812117  38.9150572  54.3381786  41.8358803
  39.9331856  55.9453869  41.1995792  40.1342869  56.5545034  40.3183126
  39.3586636  56.9084787  42.2380877  40.1706123  57.6075506  42.4384642
  38.2586670  57.7709675  41.6309977  37.3809481  57.1679831  41.3983631
  37.9950976  58.5588360  42.3366165  38.5905480  58.2568121  40.7134390
  38.9688492  56.3047266  43.3866358  38.1037354  56.6000032  43.6798811
  41.3393402  55.3634977  41.6173220  41.3438749  54.1910696  42.0418024
  42.4611807  56.0222054  41.3702440  42.5461912  57.1651888  40.5620241
  42.0710087  58.0555344  40.9738302  42.1633387  57.0097160  39.5533824
  44.0443707  57.5014877  40.5714035  44.2587280  58.2735634  41.3103628
  44.3358994  57.8658199  39.5863295  44.7275829  56.1923218  40.8256674
  45.6826162  56.3499784  41.3268232  44.9996805  55.5974102  39.9538016
  43.7226772  55.3813887  41.5925312  43.7892485  54.3674946  41.1979580
  44.1295910  55.3789282  43.1015158  43.5031700  56.0218525  43.9745331
  45.2360487  54.7306347  43.4790611  45.5779123  54.1296959  42.7427816
  45.8709574  54.6243811  44.8293304  45.3777075  55.3931522  45.4241419
  45.5019617  53.2867336  45.6097841  44.4253540  53.1548309  45.5019903
  46.0854816  52.0407867  44.9498463  47.1279430  52.0705414  45.2668667
  45.5566072  51.1956596  45.3904772  46.0631418  51.9797134  43.8617897
  45.8842182  53.3761597  47.1256495  46.9559717  53.4386301  47.3141766
  45.4130411  54.2536688  47.5684452  45.3224134  52.2339916  47.9417133
  44.2619038  52.0298433  47.7941990  45.9072447  51.3476610  47.6957464
  45.5538607  52.3938704  48.9947891  47.4123764  54.9411011  44.6782637
  48.0090761  54.5808029  43.6343193  48.0955887  55.4976749  45.7365370
  47.6488400  56.3782930  46.7768097  46.7161226  55.9955454  47.1911097
  47.5374317  57.3536396  46.3031101  48.8361597  56.3630056  47.7188063
  48.8595533  55.3878546  48.2052612  48.8021517  57.1447515  48.4776354
  50.0071955  56.5056038  46.7902756  50.9522867  56.2093449  47.2454071
  50.0020504  57.4863100  46.3145781  49.5820761  55.5451632  45.6975222
  49.9731016  55.8822441  44.7375393  50.1770258  54.1491842  45.8204937
  49.9913502  53.4833860  46.8291664  51.0248756  53.7660313  44.8483324
  51.0530996  54.3888569  44.0537262  51.8711615  52.5467062  44.8482323
  51.2164211  51.7323303  45.1583958  52.4158335  52.1395540  43.4528732
  52.9795074  51.2085772  43.5133553  51.5889549  51.9230843  42.7764750
  53.4452534  53.1381512  42.9314423  54.2711830  53.2982206  43.6244917
  53.9812517  52.6417065  42.1225214  52.9349804  54.4933367  42.4440145
  52.0587635  54.4419909  41.5504169  53.4457302  55.5712557  42.9019928
  52.9518127  52.7076340  45.9304857  53.3189917  53.8091993  46.3020849
  53.4038782  51.5543079  46.5052032  52.8983545  50.7200480  46.2433720
  54.2060852  51.5083981  47.6674843  53.6693096  51.9444418  48.5100031
  54.4541311  49.9422455  47.9058170  55.1787519  49.6136189  47.1608162
  54.9777269  49.8912191  48.8604593  53.2873440  49.0038872  47.9587078
  52.4527597  48.8869333  49.1268396  52.6587629  49.4508266  50.0246048
  51.4901733  47.8441858  49.1927958  50.8050060  47.8671646  50.0273085
  51.2610674  47.0117569  48.1309462  50.3384829  46.0045385  48.3121157
  50.0369501  45.6611061  47.4678850  52.0287800  47.1275043  46.9529676
  51.8491554  46.4561939  46.1262417  53.0631256  48.0965424  46.8394947
  53.7261105  48.1535387  45.9888458  55.5744696  52.1440840  47.5857258
  56.1979961  52.2121239  46.5079498  55.9800434  52.7092314  48.7111235
  55.4053259  52.5763083  49.5309639  57.1221447  53.5350943  49.0029144
  57.3486376  54.0101862  48.0484009  56.8465185  54.6849489  49.9653625
  55.8757639  55.1618052  49.8299313  56.8560696  54.2975807  50.9841633
  57.9994774  55.8163595  50.0071192  58.9734697  55.3273010  50.0238800
  57.9460764  56.7033720  48.7632608  56.9566822  57.1601582  48.7398672
  58.7460184  57.4435616  48.7807226  58.1658697  56.0721016  47.9022789
  57.7998114  56.8050432  51.1340904  57.7184105  56.3373232  52.1152735
  58.5894060  57.5560665  51.1094332  56.8568039  57.3367834  51.0072470
  58.3887005  52.6111269  49.3245173  59.5751858  52.9312658  48.9938545
  58.1901979  51.4326096  49.9351025  57.2068977  51.2575722  50.0853825
  59.0562057  50.3299379  50.1354885  58.4835958  49.5738029  50.6725836
  59.5503473  49.6841049  48.7866116  60.3032541  50.3442669  48.3560038
  59.9864149  48.6880922  48.8634205  58.3449221  49.6410131  47.7626896
  57.5332689  49.0229034  48.1464291  57.9102659  50.5886841  47.4447250
  58.8812017  49.0295029  46.4890814  59.9000883  49.3775797  46.3193750
  59.0318584  47.9502010  46.5117025  57.9154253  49.2989731  45.2612114
  58.2119131  48.5631609  44.5136976  56.8846083  49.0920067  45.5487680
  58.0503416  50.6722355  44.7108698  59.0067291  50.9556437  44.8693180
  57.8249979  50.6577682  43.7264299  57.4810410  51.3647175  45.1761293
  60.2485085  50.7313824  51.0646439  61.3226366  50.1586294  50.9286451
  60.1399422  51.6325045  52.0380354  59.2005587  51.9392061  52.2468138
  61.2284327  51.9564915  52.9970598  62.2031832  51.6912556  52.5876474
  61.0833502  53.4249401  53.3794594  60.1066256  53.6614513  53.8015652
  61.7093992  53.5646009  54.2607403  61.5508842  54.3580484  52.2538090
  60.9450150  54.1294336  51.3770199  61.3826799  55.3995466  52.5278521
  63.0329990  54.1412878  51.8847609  63.3846998  53.5203505  50.9255695
  63.9330578  54.5173454  52.7657127  64.9142313  54.3322611  52.6135921
  63.6773825  55.1510096  53.5094833  61.0265875  51.0341692  54.1992569
  59.9090290  50.7316017  54.6483183  62.1265411  50.5566120  54.8351765
  63.0340385  50.8375406  54.4922018  62.2015190  49.6205854  55.9408808
  61.2120008  49.3236923  56.2884474  62.7010250  48.2657242  55.4608727
  63.7034225  48.4225750  55.0625038  62.6832056  47.2428465  56.6338015
  63.0407190  47.7173281  57.5476694  61.6899681  46.8297672  56.8097162
  63.3445978  46.4027071  56.4220476  61.7182922  47.6828480  54.3465948
  60.7311201  47.7231789  54.8069954  61.7940903  48.4507465  53.5767269
  62.1121407  46.2692118  53.8767099  63.1385422  46.1977291  53.5168409
  62.0507479  45.5400085  54.6845436  61.4208794  45.9463787  53.0982256
  63.1131363  50.1218557  57.0164061  64.2753601  50.3841972  56.7482662
  62.6296425  50.1714993  58.3069372  61.3021517  49.7424316  58.6823320
  61.0427046  48.7612200  58.2848167  60.5857086  50.5448484  58.5064316
  61.3534069  49.6102810  60.1789188  61.6119671  48.5914612  60.4674435
  60.3546190  49.7665834  60.5864620  62.3861742  50.6965637  60.6082869
  62.7486753  50.5759382  61.6291428  61.8947506  51.6694498  60.5990171
  63.3667850  50.5984020  59.4699621  63.7837982  51.5868855  59.2773247
  64.5519638  49.5680857  59.7398090  64.3659592  48.3829546  59.8948574
  65.7776117  50.0636244  59.8980236  65.8620501  51.0602999  59.7579956
  67.0806170  49.3360233  59.9801111  67.3565006  48.9415836  59.0021515
  68.0803347  50.3877306  60.4482365  68.0661869  51.3155317  59.8763132
  67.7996969  50.6529236  61.4675570  69.5332098  49.9528265  60.5398798
  69.9608421  48.9134312  61.0569906  70.4975033  50.7315493  60.0967693
  71.4541245  50.4749775  60.2946234  70.3022051  51.6278028  59.6740627
  67.0671177  48.1295395  60.9388733  67.5850201  47.0434856  60.6846571
  66.5396643  48.3456421  62.1296453  66.0616636  49.2279768  62.2440672
  66.4026451  47.4563646  63.2719851  67.3718691  47.0304632  63.5314465
  65.7832098  48.1790257  64.3999958  65.3100204  47.4039221  65.0028372
  66.4614725  48.8070679  64.9775934  64.8481560  49.1382885  63.9980316
  65.2351809  50.0133228  63.9197111  65.6153631  46.1906719  63.0453300
  65.8303976  45.2036285  63.6973810  64.7488928  46.1918831  62.0728636
  64.5943069  47.0871973  61.6317081  63.7587595  45.1753330  61.7885637
  63.9519358  44.4218111  62.5521040  62.3792458  45.8085012  62.0244455
  62.1823788  46.6722393  61.3893890  61.6557360  45.0680017  61.6834211
  62.2539425  46.3394403  63.7936020  61.5516663  45.2175760  63.9756203
  64.0373468  44.5990658  60.3802204  63.2200766  43.6951256  60.1024723
  65.0038147  44.9606848  59.5304298  65.6767559  45.6427097  59.8499537
  65.3116322  44.3242693  58.2076502  64.5467091  44.7374201  57.5501585
  66.6590166  44.9989033  57.7432060  67.4203730  44.8392200  58.5067129
  67.0307827  44.3559217  56.4068651  66.2728977  44.4015646  55.6247950
  67.9355431  44.7986650  55.9903383  67.1973991  43.2884312  56.5511036
  66.4366055  46.5142822  57.4323750  66.2403631  47.0860481  58.3393860
  67.3120546  46.9568300  56.9571447  65.6033945  46.6647387  56.7459202
  65.2433205  42.8409910  58.1837177  65.8563471  42.2667503  59.0469122
  64.5641708  42.2693300  57.2432470  64.1000605  42.9418564  56.6496038
  64.2639256  40.8412933  57.1492577  65.1716948  40.4539490  57.6118803
  63.0472326  40.4105043  57.9670095  63.3173227  40.6534290  58.9946985
  62.2026491  41.0251188  57.6555109  62.7271748  39.0752673  57.8209352
  61.7675829  39.0857005  57.7948999  64.1339302  40.5203390  55.6781101
  63.7802029  41.4361763  54.9319458  64.4748688  39.2923141  55.2484035
  64.5572710  38.5555410  55.9343195  64.3142128  38.7795806  53.8940239
  63.6866903  39.5106673  53.3842897  65.2645159  38.8111854  53.3610868
  63.5318613  37.4445987  53.7741041  63.0661058  36.8721938  54.7987652
  63.0878973  37.0425701  52.5757027  63.2354927  37.6475978  51.7805529
  62.4285841  35.7337117  52.2335196  61.7912245  35.9029531  51.3656330
  63.6358976  34.9766636  51.6921997  64.4206572  35.1861978  52.4190760
  63.9525747  35.4527879  50.7642317  63.3334112  33.1736898  51.4912558
  61.6285229  35.0047827  53.3606482  62.0721626  34.0017033  53.9396524
  60.4073763  35.4430985  53.7167120  60.1702690  36.3592982  53.3639288
  59.5645428  34.9428010  54.8598433  60.1790762  34.8844147  55.7581997
  58.4617519  36.0758591  54.9785757  57.7638865  35.9884119  54.1458416
  57.9495859  35.9439516  55.9316683  59.2196083  37.6773214  55.0448465
  60.2146196  37.4665928  55.9111309  58.9027786  33.5581136  54.6957064
  58.6552668  32.9485607  55.6935406  58.6960316  33.1675148  53.4501457
  58.7200785  33.7693644  52.6394081  58.4611797  31.8180537  52.9476070
  57.5119829  31.7001057  52.4249125  59.6240902  31.6787124  51.9373083
  59.6983624  30.6895518  51.4854813  60.6080103  31.8854833  52.3583174
  59.3761349  32.8984928  50.5795574  58.5342932  30.6259537  53.9407396
  57.5084829  30.0446272  54.3327379  59.7393847  30.1424384  54.3209314
  60.5615520  30.6520820  54.0303850  59.9389076  28.9077258  55.1284599
  59.6078873  28.0164886  54.5953369  61.0092592  28.8714623  55.3313017
  59.2220592  28.9995742  56.4245367  58.4454823  28.1447625  56.8111420
  59.4090366  30.0922871  57.1040058  60.0328875  30.8085418  56.7606497
  58.8473082  30.2876472  58.4586716  59.0500975  29.3315601  58.9412403
  59.5012522  31.4512181  59.2560625  60.5805731  31.5093184  59.1153765
  59.0807533  32.4138832  58.9652777  59.2835379  31.3561010  60.7486725
  59.9543285  30.5209255  61.5732908  60.7762098  29.8754478  61.3007689
  59.4277239  30.6650734  62.8335190  59.8464346  30.2842927  63.6700583
  58.3577728  31.5834260  62.8221083  57.5047541  32.0989394  63.9026451
  57.5804901  31.6928911  64.9005413  56.4801025  33.0734491  63.6286736
  55.7629299  33.5063791  64.3103218  56.2963104  33.3577776  62.2896051
  55.5341959  34.0502453  61.9639301  57.1430254  32.9456043  61.2264824
  56.9948483  33.1513524  60.1766682  58.2180738  32.0242000  61.4941359
  57.3233461  30.5900311  58.4712172  56.5914965  30.1026297  59.3056536
  56.7737150  31.2225318  57.4627590  57.4686098  31.5113926  56.7891312
  55.3895569  31.3986993  57.1975040  54.9378777  31.5748572  58.1737471
  55.0822830  32.6061082  56.2737989  55.5282688  32.4839258  55.2867460
  54.0124607  32.6570606  56.0713482  55.4341745  33.9034295  56.8835163
  56.5088654  33.9593339  57.0567608  55.0091887  35.0607371  55.9124947
  53.9315796  34.9875951  55.7658052  55.2997828  36.0326004  56.3114119
  55.4688311  34.8639631  54.9439335  54.7073650  34.1229677  58.1891012
  53.6599827  33.8453794  58.0706501  55.0460196  33.4696531  58.9932108
  54.8387766  35.1497579  58.5304642  54.6391964  30.0934529  56.7504978
  53.5125256  29.9913549  57.0832062  55.3510857  29.0886593  56.2067747
  56.2814474  29.4010687  55.9681892  54.9998808  27.6603079  55.9773779
  53.9855862  27.6221371  55.5800724  55.8938837  27.0598197  54.8824310
  56.9058275  27.0111728  55.2845526  55.4123497  25.6961226  54.4954491
  54.3929291  25.9096432  54.1740561  56.0335350  25.2863693  53.6989975
  55.3657007  24.9746180  55.3111410  55.9698629  27.8566360  53.7025547
  56.5269279  28.5973692  53.9527607  55.0400019  26.8024993  57.2171164
  54.0706730  26.0710835  57.4354696  56.0251999  26.9397283  58.1150532
  56.7880964  27.5593925  57.8824472  56.0066462  26.4779305  59.5473385
  55.9447002  25.3901649  59.5150948  57.2424412  26.8460083  60.2533293
  58.0578089  27.1300340  59.5880461  56.9882536  27.6409674  60.9544230
  57.7403259  25.6762981  61.0998058  56.9416666  25.3798914  61.7797947
  58.0705261  24.8767805  60.4366016  58.9501047  26.1752725  61.8561220
  59.8225975  26.4018583  61.2433243  58.7249327  27.1664047  62.2498941
  59.4798946  25.1450968  62.9295778  58.5591078  24.8872685  63.4528160
  59.7986603  24.2391610  62.4140501  60.3818417  25.7554317  63.9084339
  61.3613987  25.7806182  63.6636209  59.9228001  26.5620685  64.3068266
  60.4791021  25.1179147  64.6857452  54.8309946  26.8736482  60.3480005
  54.1475105  26.0697627  60.9727430  54.4155979  28.1631851  60.2033234
  54.9992847  28.7806201  59.6572590  53.2064867  28.6865973  60.8474064
  53.2559586  28.5405898  61.9264507  53.1725740  30.2392316  60.5895090
  52.9538155  30.5001712  59.5540571  52.1071768  30.9745646  61.4507008
  52.2690630  32.0491648  61.3662720  51.1176252  30.7260394  61.0671282
  52.1049404  30.5827856  62.4678564  54.3602371  30.8058643  60.9707546
  55.0862026  30.4032564  60.4885912  51.8591642  27.9820871  60.3058147
  51.0557127  27.4882507  61.1086082  51.6489267  27.8489470  59.0112257
  52.4115610  28.1143594  58.4045506  50.5259943  27.2137976  58.4170294
  49.6624660  27.5541234  58.9885187  50.4702139  27.7302909  56.8759727
  51.4254761  27.5050402  56.4018011  49.2809343  27.1339250  56.0932970
  49.3868208  27.6254964  55.1262188  49.4417620  26.0713124  55.9113789
  48.3136654  27.3606014  56.5417576  50.2744484  29.2694402  56.9215393
  49.3432188  29.4796038  57.4476051  51.0995102  29.8168159  57.3773432
  50.2385044  29.6536636  55.9021378  50.3603268  25.6559849  58.4736729
  49.3656445  25.1239920  59.0018225  51.4510918  24.9320245  58.1195021
  52.2454166  25.5107164  57.8865433  51.7029619  23.5281110  58.5803938
  51.0115051  23.0129552  57.9136086  53.1677341  23.0372334  58.3163786
  53.7432432  23.6317301  57.6068258  53.7631369  23.2710171  59.1989613
  53.4082937  21.5790534  57.8753376  54.4723034  21.3468027  57.9205751
  52.8803587  20.7723355  58.3838606  53.0501175  21.4105153  56.3672543
  52.0352030  21.7557573  56.1701250  53.6683035  21.9713545  55.6662512
  53.1671858  19.8810422  55.9087324  54.1464615  19.4493306  56.1154842
  52.3874712  19.2922962  56.3919735  52.8798866  19.8356187  54.4643259
  52.7775478  18.8828564  54.1451454  52.0644617  20.2973819  54.0875483
  53.5713720  20.3038049  53.8962221  51.2878990  23.2017422  59.9972105
  50.4798889  22.3200440  60.1774502  51.7849874  24.0228152  60.9551764
  52.4453974  24.7583389  60.7479095  51.4104462  23.8512874  62.3674917
  51.6076565  22.7995706  62.5751019  52.4105597  24.6747518  63.2349968
  53.3638573  24.1487002  63.1840515  52.5765610  25.6755257  62.8362513
  52.0883942  24.8135090  64.7578335  51.4073658  25.6599736  64.8461342
  51.5530872  23.9559698  65.1654768  53.3179331  25.0473595  65.5708075
  54.1285801  25.9472227  65.3020763  53.5014725  24.4378614  66.6591692
  49.9255466  24.2159820  62.6206541  49.2283392  23.6440110  63.4811211
  49.3378639  25.2479148  61.9820356  49.9323797  25.7233644  61.3182592
  47.8816223  25.4826951  61.8965530  47.4952507  25.7281899  62.8857708
  47.6041555  26.6890574  61.0145903  47.9992199  26.5969753  60.0028849
  46.1687899  27.3077083  61.0430002  45.7718086  27.5129247  62.0371819
  46.1309052  28.1326604  60.3315783  45.4375696  26.6231012  60.6131983
  48.2598972  27.8168178  61.5894079  49.1961575  27.6084518  61.6295004
  47.0477819  24.2718554  61.5674019  45.9546947  24.0804863  62.0468044
  47.5351477  23.5115933  60.5809164  48.3397293  23.8947535  60.1055813
  46.8728399  22.2895193  60.0426483  45.8238459  22.5471258  59.8965454
  47.4346876  21.9912410  58.6113930  48.3751202  21.4503026  58.7166786
  46.4990902  21.0727239  57.8700399  46.8329430  20.9841323  56.8362141
  46.4480877  20.0960875  58.3513784  45.4887152  21.4691710  57.7696991
  47.6813793  23.1417322  57.8987408  48.5560036  23.4294248  58.1705332
  46.9369555  21.0565090  60.8964634  46.0604000  20.2396941  60.8758736
  47.9723740  20.9030056  61.7377472  48.6266947  21.6719317  61.7645121
  48.2546473  19.6779096  62.5403786  47.3941183  19.5684278  63.2003784
  48.4878635  18.4910417  61.5534973  47.5466776  18.3953166  61.0121012
  49.2776537  18.8014388  60.8694029  48.7290525  17.1015322  62.1081114
  49.6242237  17.0880747  62.7298737  47.9080343  16.9217432  62.8021669
  48.7332106  15.9298396  61.0537243  47.9666328  16.0127926  60.2832842
  49.6593046  16.0789549  60.4985523  48.5832882  14.6273351  61.7625523
  48.4942484  14.5754445  62.7672815  48.5283327  13.4782743  61.2115812
  48.6813068  13.3751714  59.9502420  48.9517975  14.1965997  59.4285154
  48.7177086  12.4506998  59.5451164  48.2879496  12.4457312  61.9946194
  47.9411173  12.7108181  62.9054070  48.4010792  11.5213692  61.6036463
  49.4298267  19.8454142  63.6043549  50.4382372  20.5512738  63.3164310
  49.4165516  19.0458024  64.6321106  48.7909269  18.2542682  64.6786547
  50.0885868  19.3959057  65.9225225  49.4943810  20.1978731  66.3605547
  50.1411343  18.2791734  66.9315434  50.8338547  17.4948776  66.6263866
  50.6551218  18.6719942  68.3216333  51.7283154  18.8468647  68.2455969
  50.0222397  19.4489825  68.7504148  50.5138063  17.8150737  68.9802837
  48.8840008  17.5390065  67.0716810  49.1138077  16.7939639  67.6317692
  51.5161419  19.8984051  65.7984829  51.7494392  21.1047053  66.0804081
  52.4904013  19.1595089  65.3057671  52.2060680  18.3224702  64.8172760
  53.9267254  19.6183264  65.0933790  54.0736675  20.5931902  65.5583000
  54.9546576  18.5985935  65.6503344  54.5754480  18.3500922  66.6415691
  54.8481369  17.7122128  65.0249672  56.4522028  18.9978170  65.6394339
  56.7160034  18.8867557  64.5876837  56.5790224  20.0616574  65.8400822
  57.4569941  18.2275927  66.5208483  58.5219049  18.8178992  66.9266272
  57.2514629  17.0394886  66.8916559  54.3074608  19.8462105  63.6127710
  54.0219498  18.9644396  62.8215218  54.8619604  20.9951568  63.2035255
  55.3195477  22.0858455  64.0722227  55.8945274  21.7999434  64.9529982
  54.4781590  22.6635218  64.4549227  56.2543678  22.9589987  63.2139301
  57.2551632  22.5614810  63.3826971  56.1805201  24.0028477  63.5189247
  55.8199739  22.6722646  61.7497730  56.5577364  22.9291892  60.9896421
  54.9094820  23.1930161  61.4532518  55.3357601  21.2045670  61.7952299
  54.4609690  21.2130427  61.1450243  56.3789368  20.2602887  61.1821079
  57.3126984  19.8516965  61.8878317  56.1368752  19.7996426  59.9494648
  55.3817415  20.1556849  59.3810368  56.9016647  18.6830091  59.3411922
  57.8437185  18.5516655  59.8735428  56.1317968  17.3473608  59.4510984
  56.0391474  17.1288776  60.5149508  54.7033739  17.3793221  58.8041115
  54.0154362  18.0702722  59.2913771  54.4121790  16.3296688  58.7648964
  54.8422480  17.7497542  57.7884388  57.0137882  16.2096536  58.8779259
  56.8855906  16.1275518  57.7986097  58.0469322  16.4383948  59.1394472
  56.6395664  14.7965968  59.4266891  56.7472601  14.7359157  60.5096626
  55.5939674  14.5630527  59.2259932  57.2747278  14.0565360  58.9398813
  57.3408556  19.0927494  57.9090834  56.6068029  19.9089372  57.3124838
  58.5214758  18.6387837  57.4284935  59.1401863  18.1622326  58.0689621
  59.1033077  19.1173196  56.1183167  59.9052906  18.4015417  55.9377813
  58.1306314  18.9448524  54.8835373  57.1223259  19.2320156  55.1817989
  58.5291004  19.5048022  54.0374994  58.0290842  17.5675666  54.4762373
  57.4044609  16.7238462  55.1181412  58.7220240  17.1800351  53.4111691
  58.8809347  16.1900318  53.2897282  59.2802382  17.8699601  52.9289818
  59.8042774  20.4865265  56.2769651  59.8821831  21.2826896  55.3309250
  60.3090811  20.7663012  57.4855518  60.2169371  20.0289607  58.1696177
  60.9875154  22.0590806  57.9197550  60.2429819  22.8470135  57.8060198
  61.4769030  21.9574308  59.3514538  62.0299530  22.8385186  59.6769190
  60.2739143  21.8429756  60.3068829  60.6332159  21.3830853  61.2274885
  59.8011208  22.8166509  60.4354095  59.4895983  21.1365056  60.0351381
  62.4053097  20.8784914  59.4897985  63.2622766  21.2007618  59.2010927
  62.0844936  22.4520731  56.9459724  62.8166294  21.6179681  56.3197899
  62.2508669  23.7729788  56.8562174  61.7013025  24.3819332  57.4454975
  63.0566072  24.5509934  55.9376383  63.1574202  25.5755901  56.2956095
  64.5265627  24.1389942  55.9380388  64.8095131  23.1725168  55.5209446
  65.4099751  25.2095151  55.2346420  66.4829206  25.0589728  55.3539228
  65.2973175  25.1961446  54.1505575  65.0506973  26.2268329  55.3898382
  64.8926449  24.0628791  57.3042583  64.6950483  23.1848001  57.6382208
  62.5400400  24.5236826  54.5147514  62.8838634  23.6758590  53.7325668
  61.5230751  25.3082061  54.1960526  61.5342331  26.1673284  54.7269773
  60.8001280  25.2734280  52.9196978  60.8907700  24.3312359  52.3791790
  59.2847157  25.4443860  53.4281206  59.0568495  26.4910388  53.6298418
  58.7344885  25.2090311  52.5170994  58.8263941  24.6168399  54.5988703
  58.0091906  23.4990764  54.3827868  57.8788996  23.0718398  53.3994770
  57.3325157  22.9178762  55.4443264  56.6997385  22.0560956  55.2915764
  57.4847746  23.3609009  56.7335510  56.7740011  22.8224206  57.7214432
  56.4622879  21.9540143  57.4562931  58.3399534  24.4697571  56.9843531
  58.4291935  24.9318004  57.9564428  58.9463997  25.1656961  55.8835268
  59.5531940  26.0302711  56.1087179  61.2345695  26.3702941  51.9703150
  62.4217987  26.6380239  51.8765211  60.2809620  26.9691181  51.1507177
  59.3422937  26.5987134  51.1082506  60.5271769  27.9773426  50.1029587
  61.1920357  28.7413669  50.5058670  61.2281656  27.2516322  48.9221668
  61.7106104  27.8989220  48.1897974  62.1376991  26.8283844  49.3484306
  60.3621435  26.4677095  48.1645536  60.1678419  25.7294726  48.7466669
  59.2085314  28.6208797  49.6871805  58.1704664  28.3543420  50.2684689
  59.1944313  29.3589330  48.5809135  60.1019096  29.5252085  48.1698990
  57.9362392  29.9311423  48.0476189  57.4446297  30.4109311  48.8939190
  58.1255293  31.0146165  46.9528580  58.7539339  31.8252254  47.3218012
  58.6196375  30.5380416  46.1062002  56.7384100  31.5405774  46.5004683
  56.1436701  32.5525069  47.3043394  56.4391851  32.7633882  48.3214951
  54.8429155  33.0741239  46.8395472  54.3580818  33.7764168  47.5014496
  54.3050957  32.8395820  45.6000805  53.2041883  33.5278916  45.1994991
  53.0830336  34.3099451  45.7429314  55.0107002  31.9061971  44.7272539
  54.6519184  31.7493129  43.7207413  56.1728621  31.2537861  45.2276182
  56.6757393  30.6693649  44.4713306  56.9684458  28.8408661  47.5603437
  55.7797623  28.9477038  47.8057146  57.4019957  27.8578949  46.8182182
  58.4010839  27.7109241  46.8000269  56.5256786  26.9029427  46.1609602
  55.8083725  27.5399041  45.6434155  57.2374153  26.0572314  45.1803541
  58.0737782  25.5610538  45.6726980  56.3762045  25.0386834  44.3657255
  56.2489223  24.0815425  44.8714781  55.3986692  25.4826760  44.1775990
  56.8571520  24.7752452  43.4237146  57.6325369  27.0258808  44.1809940
  58.4139204  27.4780011  44.5075274  55.7460737  26.0643005  47.2117424
  54.5467520  25.8570600  46.9855642  56.4254475  25.7358122  48.3386660
  57.4226189  25.8962369  48.3360720  55.8466387  25.1000142  49.5198488
  55.2888298  24.2201519  49.1992283  56.8983507  24.6615267  50.4611301
  57.4995804  25.4766655  50.8638334  56.4106894  24.1964793  51.3178778
  57.8465986  23.7088919  49.8293972  57.6791525  22.4821663  49.9849844
  58.8844728  24.1421342  49.2622519  54.9128008  26.1043310  50.1693630
  53.7877035  25.6861210  50.4808283  55.3502560  27.3209453  50.4049110
  56.3071966  27.4913526  50.1304626  54.5648766  28.3942008  50.9912157
  54.2247581  28.0822515  51.9786930  55.3266382  29.7490358  51.1305380
  56.1905384  29.6538997  51.7883587  55.5702305  30.2124000  50.1744699
  54.5362616  30.9343886  51.7677212  53.8072729  30.5988574  52.9374886
  53.8449764  29.5942068  53.3320236  53.2536411  31.6660619  53.7339592
  52.7670240  31.3658881  54.6501970  53.3528566  32.9925013  53.2561588
  52.7986956  33.7896848  53.7292433  54.1614246  33.2848454  52.1552801
  54.0763903  34.2500973  51.6783524  54.8133421  32.2585249  51.4478397
  55.4911184  32.4938512  50.6406021  53.2177925  28.5473323  50.2175713
  52.1942616  28.6923766  50.8212471  53.2396603  28.6307836  48.9006090
  54.1707802  28.8812804  48.5999918  52.0809317  28.7813830  48.0553961
  51.6020250  29.6900535  48.4201860  52.5724745  29.0728617  46.6537333
  53.2861185  29.8815608  46.8112707  53.1815386  28.2439351  46.2931490
  51.5078449  29.5642996  45.6581211  50.7313871  30.0142550  46.2767935
  51.8916130  30.3297186  44.9836159  50.8325624  28.4893703  44.8492575
  51.1943769  27.3309898  44.8058605  49.7479868  28.7733316  44.1491938
  49.3834639  28.0952334  43.4954309  49.3153715  29.6852112  44.1868353
  51.1366272  27.5800467  48.0566359  49.9179173  27.7386260  48.2940054
  51.6632938  26.3635921  48.0486631  52.6666784  26.2646914  47.9891682
  50.8543301  25.0810266  48.2049036  50.1741552  24.9912834  47.3579025
  51.7912817  23.9241219  48.0666590  52.3710585  24.1824579  47.1805286
  52.4603415  23.9753532  48.9256334  51.1076403  22.5746632  47.9932594
  50.8816814  22.2742271  49.0163803  50.1889038  22.7277565  47.4270535
  52.0601130  21.5229177  47.3767424  52.8686094  21.3475370  48.0864382
  51.5488529  20.5616546  47.3249006  52.5712252  21.7513275  45.9681034
  51.7059422  21.7169094  45.3061342  52.9063606  22.7884555  45.9805012
  53.7280369  20.8372307  45.5054665  54.0051937  21.0411978  44.5558977
  54.5989180  21.0237789  45.9817696  53.5657024  19.8413181  45.5492163
  50.0317812  25.1560903  49.5259905  48.8146400  24.9535894  49.5079517
  50.7987690  25.4118609  50.5724382  51.7937279  25.5142617  50.4321861
  50.3321791  25.4463744  51.9848680  49.9185944  24.4640446  52.2130775
  51.5114212  25.6444216  52.8996134  52.0557308  26.5593266  52.6655722
  51.0769796  25.8654475  53.8745546  52.2942114  24.8864055  52.8721762
  49.2580938  26.5417695  52.2190428  48.2034206  26.2310767  52.8044367
  49.6401405  27.7524543  51.7931414  50.5500650  27.9564643  51.4051723
  48.7145185  28.8920331  51.7962933  48.2982302  29.0815353  52.7856827
  49.4232559  30.1855898  51.3060188  50.0427675  29.8488593  50.4748011
  48.4521770  31.2446380  50.7250547  47.5864124  31.4458060  51.3560009
  49.0025902  32.1806979  50.6305122  48.0031443  30.9751248  49.7691107
  50.2359200  30.7414889  52.5108671  49.6222401  30.8662629  53.4030199
  50.9466314  29.9752927  52.8206062  50.8276415  31.6501331  52.3998165
  47.4493408  28.5728621  50.9492683  46.3895321  28.8304043  51.4370584
  47.5716257  28.1037712  49.6775723  48.4971523  27.8130150  49.3965721
  46.4295626  27.7861834  48.8095856  45.8621550  28.7108731  48.7042189
  46.9268656  27.3927093  47.3782873  47.6783562  28.0584455  46.9538403
  47.3664856  26.4043903  47.5126886  45.7578707  27.1941519  46.4293242
  44.8151493  27.9302502  46.3459826  45.7617426  26.1206985  45.6107903
  45.0160551  26.0205317  44.9369812  46.4756393  25.4078603  45.6589270
  45.4906225  26.6914630  49.3539762  44.2682028  26.8896103  49.4247866
  46.0245037  25.5585670  49.9027205  47.0041800  25.3587031  49.7599316
  45.2772903  24.5193028  50.6824493  44.5356989  24.1421127  49.9782658
  46.1510515  23.4065318  51.1659670  47.1186590  23.8585806  51.3838863
  45.6935644  22.9309201  52.0334911  46.3872623  22.3635292  50.1146984
  45.4428053  21.8498635  49.9351120  46.7588472  22.8278995  49.2012501
  47.4262428  21.2231159  50.4876089  47.4169350  20.4058480  49.7664356
  48.4472036  21.5850854  50.3663063  47.2230434  20.7074189  51.8891668
  47.2624540  21.5306592  52.6024866  46.2478638  20.2245450  51.9520807
  48.3199501  19.8297346  52.3770380  49.1910458  20.3407145  52.3909664
  48.1190586  19.5457804  53.3252525  48.4044075  19.0187168  51.7810345
  44.4930410  25.1700735  51.8273067  43.3250332  24.8101044  51.9477224
  45.1167107  26.0215950  52.6863050  46.1069489  26.0714722  52.4938488
  44.4927406  26.6965079  53.7468147  44.2194605  25.9537601  54.4963121
  45.5432081  27.5444388  54.5441580  46.3987494  26.8961382  54.7335291
  45.8381271  28.4093285  53.9499474  44.9178457  28.2347178  55.8147240
  44.1351175  28.8855243  55.4249859  44.3094063  27.3216629  56.7895937
  43.5087013  26.7785525  56.2875938  45.0653124  26.5910387  57.0775223
  43.9761066  27.8372431  57.6902533  45.8630371  29.1309452  56.6143036
  45.3286886  29.7099757  57.3674965  46.5911388  28.4891582  57.1103764
  46.2744617  29.7248864  55.7981777  43.2395172  27.5362253  53.2992601
  42.1677446  27.3131156  53.8211489  43.4631729  28.4313059  52.3578119
  44.4154453  28.5367036  52.0381689  42.2928143  29.1082835  51.7259407
  41.8125343  29.7667503  52.4497271  42.8345490  30.0129819  50.6119442
  43.3998013  29.3546796  49.9522257  41.9653225  30.3370857  50.0396633
  43.7118578  31.2115479  50.9983301  44.3369627  30.9586954  51.8547249
  44.5571375  31.6752958  49.7758389  43.9875460  31.8060541  48.8557482
  45.1132107  32.6125193  49.7983408  45.2432299  30.8535624  49.5705652
  42.7568150  32.4166751  51.2352371  42.1849728  32.6525950  50.3377771
  42.1056795  32.2207522  52.0871449  43.4076786  33.2609200  51.4626646
  41.2507439  28.0597377  51.1084604  40.0855541  28.2489562  51.3788795
  41.6656780  27.0467401  50.4414225  42.6304722  27.0629215  50.1430702
  40.6906509  26.0319281  49.8775339  40.0225163  26.5170550  49.1659451
  41.5429258  24.9863267  49.1372490  42.2663116  24.5851946  49.8471117
  40.6887293  23.8320827  48.5376453  41.3846588  23.1269002  48.0832195
  40.0555801  23.3495307  49.2822027  40.0003338  24.2242789  47.7890444
  42.3016453  25.5797672  48.0758667  42.8836823  24.9072886  47.7144623
  39.8553634  25.3713703  50.9172201  38.7012386  24.9669766  50.6514025
  40.3188419  25.3171754  52.1458149  41.2312937  25.7221246  52.2992563
  39.7303629  24.5857120  53.2323360  39.1391993  23.7462187  52.8664398
  40.9342861  24.0500927  54.1318655  41.2312794  23.0860949  53.7188244
  41.7814016  24.7334623  54.1910744  40.6495810  23.7528753  55.1411772
  38.7404132  25.4260373  54.0769291  37.8188252  24.8895669  54.6687651
  38.9200902  26.7491126  54.0164471  39.5586252  27.0932722  53.3136415
  38.4651399  27.7186990  55.0288296  37.7863717  27.1391845  55.6545591
  39.5743632  28.3933616  55.8220291  40.1492357  29.1102529  55.2357769
  39.2045832  28.8516068  56.7392921  40.5303860  27.4137259  56.2705898
  40.9866858  27.0148039  55.5261087  37.5853205  28.8096261  54.3985891
  37.0104170  29.5405030  55.1883364  37.4705267  28.9520836  53.0799103
  37.8884721  28.1922507  52.5621510  36.7257380  30.0216627  52.3899889
  35.9960675  30.3952456  53.1084061  37.7309895  31.1558414  52.0198822
  38.1866050  31.4108706  52.9766893  38.5294342  30.7157826  51.4224434
  37.2061443  32.4746108  51.3716221  37.1058583  32.2678018  50.3061295
  35.8951235  33.0420113  51.9582987  35.9778309  33.3743286  52.9931021
  35.6459117  33.8801360  51.3075018  35.1624060  32.2558856  51.7759991
  38.2646036  33.5991812  51.6193724  39.1483307  33.5636425  50.9822941
  37.7956557  34.5350575  51.3155270  38.5822868  33.6210155  52.6618195
  35.8869410  29.4499779  51.1741638  34.6341825  29.4909692  51.2076664
  36.4455843  28.8618255  50.2589369  61.5851545  33.1228876  49.6718884
  50.9172297  21.8902659  52.5853109  24.1253448  54.5674944  39.9262834
  23.3963537  60.5410433  22.2424364  25.4727411  57.7828264  32.8591895
  45.1437140  51.1804533  67.2922802  34.6918130  36.6763663  45.8773232
   0.5323942  24.6107173  69.2890692  41.9474094  12.1993132  30.6351700
  42.6854532  12.7670021  30.4132214  42.3350924  11.3295956  30.7327404
   6.4908656  79.7493865   3.1135740   6.0441597  78.9296653   2.9020443
   6.2577971  80.3407600   2.3979035  19.6524971   8.8663121   3.1861248
  20.0387686   8.1496163   3.6894837  19.4962662   8.4928198   2.3187580
  18.2551964  67.5129917  28.7672940  19.0852889  67.3209383  28.3310642
  18.3770998  67.1987059  29.6631661  27.5674885  12.3180599  35.7242146
  26.8604534  11.9831009  36.2756958  27.7411287  13.1958170  36.0642472
  77.1889171  16.7912366  36.9337597  76.6931924  17.0931056  37.6949158
  77.0447788  17.4665334  36.2708702   9.9290236  80.7374933  12.5986901
   9.4318255  79.9552133  12.3598042  10.8409413  80.5039432  12.4252167
  59.0429554  72.9100373  12.7278939  58.1126937  73.1261494  12.7922573
  59.1962084  72.2952034  13.4453335  58.1088981  80.0126293  18.1567707
  57.2870335  80.4008272  18.4568825  58.6111173  80.7513025  17.8127136
  80.9941253  72.5845411  38.7646427  80.8470831  73.1165292  37.9825917
  81.6837368  73.0458834  39.2419567  54.8091745  17.5239575  54.5986509
  54.4412422  16.6990507  54.9154902  55.7564402  17.4074757  54.6718168
  76.7645645  22.3965526  63.5137367  77.0957756  22.7347255  62.6817703
  76.4332151  23.1691790  63.9714384  27.0024212  61.8885281   9.2536202
  26.8397912  62.2109010   8.3671322  27.3127373  60.9916213   9.1291418
  55.4592166  62.8187230  20.0206890  54.7422967  62.2251632  20.2441731
  55.0357709  63.6671212  19.8897495  24.0593918  71.4972880  23.0721035
  23.8086041  72.0811274  22.3562374  24.5995530  70.8258035  22.6554814
  61.0761946  16.6105147  22.6459828  60.6327360  16.2140055  21.8960800
  60.5791109  16.3075800  23.4058323  52.5328645  64.4987562  10.1802197
  53.2693586  64.8164251  10.7026139  52.9195604  63.8530257   9.5888367
  79.7687111  58.0447807  26.3943234  79.5987424  57.1144071  26.2468567
  80.6790695  58.1675377  26.1252346  44.5739191  10.8597870   4.4530573
  43.7273949  10.7058449   4.0336218  44.3945282  10.7823820   5.3901043
   9.4811400  78.1449153  11.9157257   9.8949870  77.5758007  11.2668171
   9.7500857  77.7813914  12.7593746  83.3207855  49.3477305   3.0213633
  82.8175554  48.5491362   3.1802263  84.1090927  49.2440870   3.5543432
  63.6322388  43.1845718  32.7583828  63.2360205  43.9637911  33.1483307
  64.4410929  43.0539712  33.2532921  23.0179852   7.6251860  36.7247334
  22.1087711   7.7360173  37.0027199  23.0777853   6.7067642  36.4617577
  29.0275582   8.8380282  50.6826401  28.1624611   8.7980407  50.2749252
  29.5804032   8.2899707  50.1256609   5.6365212  75.8380153  48.1462422
   4.9084290  75.6153944  48.7263718   5.7084855  76.7905762  48.2069054
  12.5258368  17.6264067   9.8520079  12.7767389  18.3210774   9.2431488
  12.5999849  18.0282612  10.7175961  74.3256006  69.9596980  33.4210625
  74.6350011  70.5171707  32.7071133  74.6414146  69.0846374  33.1957665
  18.2069796   2.1767302   8.6403313  17.9512041   2.9369231   8.1179133
  17.6811951   1.4575978   8.2901516   4.7322520  72.8553894  22.6935711
   4.1643532  72.1013715  22.5348797   5.2911957  72.9017189  21.9179001
  42.6777371  67.3214414  53.6562195  42.1176537  66.8066027  53.0752888
  43.5297974  66.8873241  53.6141052  41.4664810   2.3808785  59.7838249
  41.5429991   3.1491299  60.3496590  40.6035297   2.4668188  59.3786659
  80.6737847  24.8287983  27.9721585  81.5021009  24.5951195  28.3911076
  80.0461549  24.8778649  28.6932030   4.1955670  61.0700395  25.3153839
   4.0408095  61.0337832  26.2592926   5.0619229  60.6798580  25.1995506
  39.2574501  12.8886807  56.8128777  40.0029659  12.8759110  56.2126493
  39.5521545  12.3849535  57.5715876  81.9096717  43.8789495  28.1569710
  81.7995319  44.2676171  29.0247479  81.1896429  44.2398667  27.6397362
  84.4760332  50.5679157  14.5643654  85.1897058  50.8756700  14.0056267
  84.4414339  49.6238008  14.4104710  81.2723932  63.2657793  11.4131584
  81.0627327  64.1805150  11.6016617  81.6215286  62.9254248  12.2368660
  48.3536453   3.2630129  14.8389092  49.0421492   3.0869885  14.1976490
  48.1901640   2.4158592  15.2534428  72.6500607  28.1845403  57.2202730
  72.9408121  27.3597527  57.6093960  72.2992134  28.6860394  57.9562330
  59.4981250  68.6882308  19.7137871  59.8582182  69.0663054  18.9115277
  60.2627430  68.5260036  20.2663079  81.6579169   4.7426148  27.5007477
  82.2857994   4.9271794  26.8022289  81.9006414   3.8724633  27.8172150
   6.0280698  17.2432776  34.3760624   6.1730950  17.9576273  34.9964752
   5.4272740  16.6512699  34.8286095  18.2433956   9.2827292  39.3453446
  19.0001362   9.1088171  39.9051037  17.5041025   9.3340845  39.9511852
  63.5005951  39.5556641  66.4406157  62.6324129  39.8159456  66.1328077
  63.4980536  39.7696877  67.3735809  62.4875602  60.0599196   3.9579621
  61.7003212  59.6900167   4.3575325  62.6626215  60.8534958   4.4637528
  33.4889048  12.7544518  17.6249447  33.4188097  12.8692837  16.6772404
  32.8969067  12.0287390  17.8227082  63.1994114  70.5329683  27.8395214
  64.1201291  70.5082753  28.1000939  63.1411967  71.2732627  27.2355309
  47.9681253  37.7976203  63.8018608  47.4785233  37.2190928  63.2172012
  48.2640266  37.2268295  64.5109940  42.3938053  10.9818144  12.0361748
  42.0336598  10.0968476  11.9782009  42.9467886  11.0667105  11.2594929
  66.7754667   1.8861313  35.1339379  65.8949679   1.5136071  35.1806774
  66.6327589   2.8299828  35.0631561  15.6306541  32.0389199  53.6722803
  14.7195959  32.3017907  53.8030720  16.1428368  32.7705765  54.0166378
  20.0454386  56.7878582  21.7574349  19.4749506  56.3154116  22.3637142
  20.9320553  56.5459671  22.0250740  14.3768232  17.2850676  20.4931965
  14.6648901  18.1105395  20.1035252  14.4170206  17.4388857  21.4370957
  38.9237698  79.6860697   2.4459639  38.8663205  78.8474014   1.9881764
  38.0190857  79.9949911   2.4943438  67.3348999  59.3816853  58.1898880
  67.0842028  58.8059998  58.9123583  67.7156878  60.1493597  58.6163950
   7.0140799  73.1246593  30.0581494   7.8585442  72.8125741  30.3832855
   7.2336253  73.6559966  29.2928257   9.4783514  17.5543423  25.2691212
   9.1112512  18.3968659  25.5367413   9.0217012  16.9110651  25.8112469
  13.1375950   8.4195633  23.0701962  13.4768646   7.7970619  23.7133351
  13.7041252   8.3078976  22.3067799  65.4412517  55.4230716  15.3570214
  65.6722531  56.2311223  14.8988476  66.0943613  54.7871091  15.0650826
  64.2443800  32.4281192  65.2279282  63.7245512  33.1205750  64.8198652
  65.0645065  32.8568411  65.4725122  29.3322723  28.8870735  17.5965920
  29.1007870  28.0072804  17.8942719  30.1125162  29.1136046  18.1026974
  51.1887416  59.1031733   8.6992731  51.0098776  58.1846979   8.9008751
  51.9163570  59.0747180   8.0779877   8.0387800   7.6724358  51.2202301
   7.1633833   7.3019619  51.1076966   8.5827797   7.1964331  50.5927601
  50.7105527  76.4858773  12.2181835  50.4735932  75.6881287  11.7452374
  50.3821478  76.3444164  13.1060925  18.8221180  65.2388144  59.8538637
  19.1919839  65.6713200  59.0842056  18.9751685  64.3063307  59.7012806
  66.6919756  15.8795500  52.0292473  65.8618498  15.6958008  52.4689722
  66.8978977  16.7818201  52.2736597  67.0662706  25.9115477  16.6343346
  67.4558943  26.7857809  16.6462746  67.6677721  25.3884716  16.1044159
  71.4322901  50.6645060  63.3415365  71.9308949  50.9831285  62.5891399
  71.5674973  49.7169256  63.3345699  15.8330124  33.0358620  29.1662064
  15.7320374  33.7447138  29.8014775  16.0024469  33.4807797  28.3358040
  34.2429035  11.1034985  27.9645481  34.3307131  10.7398100  28.8456001
  34.9935883  11.6900797  27.8716507  56.3158321  46.1974907  67.4008989
  56.0265017  46.8523073  66.7654991  56.3776779  46.6765738  68.2272720
  49.2553299   4.7946282  46.7714348  49.2803400   5.5998345  46.2544766
  49.0827530   4.1042538  46.1312618  57.8680620  73.2556846  18.4146633
  58.0707011  74.0723755  18.8709297  58.1272206  73.4174659  17.5075283
  19.9726828  75.0156667  22.0877686  20.2688607  74.1679933  21.7561569
  19.1763409  75.2023890  21.5905609  21.5615910  17.8102656  15.9052220
  21.9678181  16.9741316  15.6769886  21.9179361  18.4310503  15.2697029
  26.7637166  71.6273811   7.0128527  26.7992981  71.9296458   6.1053267
  26.2171849  70.8421304   6.9825115  47.4221914  19.2964239  39.9869385
  47.5530069  19.2242785  40.9324112  46.5620154  18.9054890  39.8336354
  83.7431535  57.1183982  34.3047562  84.3115005  57.7645650  34.7239056
  84.0540800  56.2756433  34.6353951  39.6326756  10.2042651  58.1333160
  39.5211363   9.6742475  57.3440933  40.5642462  10.4239964  58.1445837
  25.5435681   9.0540421  51.3180399  25.9621382   8.8738406  52.1597958
  25.0785971   9.8796618  51.4536333  68.2760367  60.8147218   5.5965748
  68.6991415  59.9744656   5.4199925  68.7124500  61.1420276   6.3831129
  52.1131563   4.1586933  68.1000376  52.7205706   3.4332132  68.2448149
  52.3472548   4.4983330  67.2362804  75.5089912  32.3519489  18.9518585
  75.3479633  32.6964661  18.0734387  74.6611652  32.0082887  19.2334881
  39.3994069   5.4875672  54.3954659  39.7814393   6.0535461  53.7246799
  39.1497612   6.0857570  55.0997925  15.4673203  51.8269935  13.1224289
  14.5679911  51.6495612  12.8468266  16.0008486  51.2304308  12.5973644
  76.5439090  41.3306454  15.3851261  75.8951673  41.1128939  14.7158375
  76.8730888  40.4830948  15.6843415  82.2630319  59.0805700  13.9419022
  81.8109808  59.7750607  14.4210282  82.9669151  59.5307937  13.4749165
  15.1266106  25.0180485  18.2280579  15.6675490  24.6897211  17.5098458
  15.6085881  24.7787502  19.0196743  50.5934381  13.1128538  66.1946011
  51.4087868  12.9962289  66.6822863  49.9051857  12.8942335  66.8228912
  73.4519128  49.8769648  47.2691345  74.1211823  49.6726591  46.6160107
  73.5537557  49.1985948  47.9367208  47.7702396   8.7966080  11.4056244
  48.1114929   8.7131901  12.2960320  47.0778673   9.4538994  11.4750805
  70.4387236  21.9351745  55.9627485  70.5187559  22.5143027  55.2048302
  71.2954092  21.9770408  56.3876867  50.2400225   6.9478865  24.0285340
  49.8580187   6.6830845  23.1917706  50.9826296   7.5019570  23.7881603
  81.8826494  28.5297372  25.2371540  81.0080776  28.2645466  25.5218067
  82.4453840  27.7924933  25.4738560  69.8109874  61.4490941  11.1492195
  69.1209945  62.0286467  10.8263245  69.3419942  60.7419112  11.5921250
  18.2357510  29.5594385  12.9910317  18.7999781  30.0091150  13.6200466
  18.8343867  29.2482593  12.3120346  67.3611259  23.9839315  58.7528944
  66.6474390  24.0138555  58.1157255  68.0482960  24.5282960  58.3685780
  69.4595385  17.3900676  46.7114210  68.5548162  17.4587655  47.0163631
  69.5178795  16.5140665  46.3300419  81.9575159  62.5788517  49.2649460
  81.9469682  62.3638708  48.3322573  81.9961349  63.5349459  49.2899370
  79.9913082  13.6587241  42.7561226  79.2171011  13.1324627  42.5564041
  80.3054819  13.9562061  41.9022885  38.3467960   9.6225256  69.0835714
  38.3060789  10.3621960  69.6897602  37.4319410   9.3815535  68.9379549
  73.1857833  68.1499221   6.7205229  73.4277258  67.2677257   6.4386931
  72.6907596  68.5092428   5.9842625   5.8831891  76.7084887  24.6446552
   6.1865338  75.8017042  24.6004334   6.2908276  77.1344616  23.8905945
  83.6378536  56.5901437   7.1631899  83.2597503  55.7656410   7.4689045
  82.8930816  57.1887603   7.1065941  50.3135833  24.1793051   0.9271660
  49.7494635  24.4084837   1.6657295  50.2676997  24.9385753   0.3461018
  17.7791118  24.2662430  68.6501789  18.2380484  23.9749455  67.8622961
  16.9067763  23.8792324  68.5761166  66.2480116  68.8537216  63.3533382
  65.5041790  69.0738106  62.7925301  67.0147800  69.1425514  62.8584862
  29.9448744  63.9599516  12.1602860  30.3181735  63.9714458  13.0416241
  29.9681792  63.0384686  11.9023075   3.6580618  52.2712412  22.3621407
   3.5272988  51.3274040  22.4532833   4.3749817  52.3541024  21.7333355
  73.7030554  33.2112122  56.9407415  74.5059061  32.8951311  57.3551798
  73.0067635  32.9678440  57.5508070  30.9777680  65.9769220  49.3266821
  30.1967278  65.5892260  49.7215223  30.6811657  66.8221397  48.9892435
  25.5344319  31.5899658  64.4998312  24.8526168  31.1291194  64.0109777
  25.3508186  31.3862824  65.4169083  40.4177496   4.4895079  13.8631096
  40.2212200   3.7335374  14.4163933  39.6100149   4.6443465  13.3733978
  83.4597215  35.5832111   4.3035259  83.0885372  36.4592647   4.1987314
  84.1517458  35.6927406   4.9557104  12.6440867  38.4074188  33.2911053
  12.3715743  39.3029478  33.4911003  11.9628008  37.8576505  33.6781922
  83.4483204  61.7924001  31.2920037  84.2388305  61.3646510  30.9628239
  82.9266557  61.9671085  30.5086937  27.0899027   8.0025788   7.9909792
  26.6152781   8.4295101   7.2777500  27.5730103   7.2935791   7.5665274
  12.6785849   0.8544456  58.2536697  13.1089496   0.1657241  57.7470350
  13.3967685   1.3990898  58.5758638   9.9087914  37.1046951  54.2263355
   9.6595152  37.4362495  55.0889816   9.3267830  37.5595560  53.6175671
  84.6024904  57.2985318  30.9000435  83.9622364  57.3700812  31.6079846
  84.1999349  57.7615526  30.1653328  18.3592194  12.0715304   0.3505554
  17.4969977  11.7600746   0.0752297  18.1778305  12.6669379   1.0777512
  47.0362442  11.6562910   0.5399742  47.7889937  12.2221394   0.3684416
  46.2845820  12.1531267   0.2168837  71.7836714  35.2292538  49.0700006
  71.9392490  34.6946359  49.8485947  72.6424789  35.3014445  48.6535025
  10.0219544  44.4395902  23.5814228   9.7845515  43.7731206  22.9366818
  10.9540614  44.2945024  23.7437763  11.3943156  66.6232898  23.8997975
  10.5267533  66.7578604  24.2811909  11.9192084  67.3495176  24.2364159
  67.1323785  78.5871460   0.8914795  66.7640552  77.7757337   1.2410202
  66.3987646  79.2019918   0.8898344  31.6794880  69.5772889   1.4341440
  30.9910687  69.0247109   1.8042364  32.3361405  68.9591768   1.1132326
  53.4108686  58.6208820  62.6498365  53.9615726  59.1905165  62.1127415
  53.1452990  57.9170656  62.0579338  67.7395877  56.1633935   7.6032772
  68.6456928  56.2654867   7.3120966  67.6123843  55.2165534   7.6628151
  62.2720814  36.4274669  67.7184296  63.0055475  36.7458916  68.2446098
  62.6839256  35.9942317  66.9708157  58.2700834  66.2538125  25.1801148
  57.9047761  65.4440572  25.5365887  59.0685544  66.4000251  25.6873551
  47.8245601  80.1232412  16.3320198  48.0818138  80.5585649  17.1447602
  48.5189113  79.4839551  16.1725750  50.0594442   0.4977579  37.3545017
  50.7187145  -0.1940994  37.4086323  50.1109236   0.8074255  36.4502373
  17.4317446  67.2831340  47.2240686  17.4439564  68.0128188  46.6046810
  16.9944039  67.6345737  47.9996061   7.8863906  15.4207003  67.9127836
   8.4840487  14.7475016  67.5874662   8.2557963  15.6815207  68.7564325
  26.6934897  24.0645645   0.9083252  26.1461760  24.7869871   0.6004506
  27.5666548  24.4465707   0.9971028  45.1162991  29.6624532   9.3214169
  45.4640457  29.7694483  10.2067747  44.8688564  28.7391522   9.2712393
  16.6261824  79.6349313  11.4961663  16.8774804  80.0061491  10.6504193
  16.8751248  78.7126067  11.4363804  22.4808463  63.5096743  24.9712029
  22.6688107  64.1457012  24.2810097  21.7426833  63.8868024  25.4498711
  38.2438534   5.7338925   0.0675144  38.2980364   6.1479206   0.9288349
  39.0507715   5.2240296  -0.0043354  59.5808825  70.0693848   2.1917763
  59.8568854  69.2176797   1.8531742  58.6661205  70.1495507   1.9215622
  54.2490435   5.6804681  50.1629639  55.0341225   6.1855859  49.9514532
  53.6180735   5.9235799  49.4854641  67.8183130  76.0222242  64.2880726
  67.9248957  75.0729788  64.3497562  68.7126295  76.3626567  64.2649555
  49.7486744  51.0556629   8.4239044  49.1436801  50.3233042   8.5416594
  49.2779097  51.6664185   7.8568163  57.8049460  67.0222635  44.1888618
  57.7901926  66.0656340  44.2184258  56.8849554  67.2781534  44.2550468
  56.1513996   0.5102966  60.8980703  56.5923548   1.0042301  60.2068233
  55.2774715   0.3367736  60.5482531  84.5912323  55.9897234   4.3724003
  84.3044290  56.4989760   5.1304522  85.3523168  55.5012586   4.6860590
   4.4148343  -0.2274828  17.2231331   3.8435166   0.5161305  17.4151268
   5.2734678   0.1647969  17.0647183  63.5246485   1.6536064  18.6771145
  63.9377897   1.7496701  19.5352116  64.1187304   1.0846730  18.1876030
   2.3818882  56.3439705   2.2248783   2.7443083  56.2275686   3.1031361
   1.7347105  55.6440654   2.1381369  38.6172557  12.4023604  66.2755585
  38.8094354  13.0620611  66.9419622  39.3958902  12.3902774  65.7189512
   6.4780139  21.7128277  62.9819775   7.1947955  21.1242914  63.2187891
   6.2429141  21.4571381  62.0900249  76.1064672  24.9445391  68.0474806
  75.2672672  24.5664191  68.3101654  76.6217899  24.1968536  67.7447605
  20.3237685  72.2340419   2.3805990  19.6986683  72.2980502   1.6585293
  19.7843894  72.2859242   3.1696549  43.5735750  42.4865818  68.1140423
  43.8409519  42.1288633  67.2674131  43.7342215  41.7765617  68.7355661
  41.9506121  32.5746894  66.0674572  40.9962225  32.6338220  66.1107731
  42.1394300  31.6460848  66.2026358   4.1537293  70.1432970  25.5943623
   4.7829255  70.5328300  26.2015000   4.1454657  69.2135551  25.8218422
  18.1759634  79.0890854  30.3029585  19.1226807  78.9521607  30.3377342
  17.8724518  78.8898593  31.1886358  75.3932008  54.9257877   5.8870926
  74.4710359  55.1567521   5.9989157  75.6105051  55.2277663   5.0051537
  31.6824254  31.9188114  39.9915447  30.7643231  32.1240189  39.8148861
  31.6535767  31.1034300  40.4920902  28.0895346   9.6533413   4.2541781
  28.6021345   9.7993727   3.4590998  27.9508608   8.7065716   4.2792311
  60.7447800  36.7183914  27.3007336  61.2662277  36.0632735  26.8368950
  61.3914594  37.2926208  27.7109661  61.0265360  80.6218650   2.8162708
  60.4672250  80.4786327   2.0527973  61.1028323  79.7585609   3.2226219
  44.1628378   7.7116318   7.0787373  43.3772390   8.2447214   6.9567576
  43.9054268   7.0488663   7.7196064  12.1888979  22.2964969  31.3997402
  11.2411793  22.1678164  31.4385071  12.5548228  21.4209797  31.5254441
  73.0055198  56.7666283   6.6062680  72.8616581  57.1737137   5.7519760
  73.7779531  57.2106626   6.9561424  35.0648030  58.9093449  19.2384663
  34.6209057  59.7129157  19.5094910  34.6247109  58.6544397  18.4275570
  16.3862952  48.2512137  30.0247708  16.1347636  49.1329887  29.7501126
  15.5592879  47.8259453  30.2515640  57.0840662   1.2263127  40.5284729
  57.4387854   0.5744572  41.1330357  57.5258654   2.0408793  40.7683220
  30.0050648  77.7927806   7.1889582  30.3807934  78.6092522   6.8596592
  29.0764054  77.9891422   7.3124447  68.3129501   9.6038431  48.8071156
  68.8105440  10.2682745  48.3305025  67.4513292   9.6049869  48.3901787
  40.3636763  66.0364678   5.1728716  39.9933443  65.3609970   4.6046915
  41.1038062  65.6082394   5.6030550   9.8617133  67.3465826  15.9363594
   9.0058239  66.9261625  16.0196247   9.7494038  68.2024553  16.3499966
   3.2812222  67.9789999   8.8739767   2.5162323  68.5347822   8.7252178
   3.6478814  68.2924654   9.7007408  40.5773926  36.4484239  67.2240829
  40.3731155  35.9188271  67.9948187  39.7567940  36.4823866  66.7324638
  74.4947165   3.0744477   3.3768645  75.2566069   3.5444327   3.0379286
  74.0216177   2.7897187   2.5949850  77.2393140  34.0825506   2.5553837
  76.7865810  34.1266146   1.7131701  76.9229183  34.8464599   3.0376425
  23.6529580  80.5521715  56.3162565  22.9426232  80.3573375  55.7049513
  23.6163559  79.8442292  56.9594622  75.3203497  53.5698690  67.4955025
  76.1790475  53.4324815  67.8954926  74.6961412  53.3565512  68.1891098
  80.7239256  65.9876182  12.0662060  80.8091745  66.7654135  11.5148487
  81.0205373  66.2729576  12.9304066  78.9272461  60.7957175  43.6849060
  78.2410440  60.4293039  44.2426625  78.8914737  60.2709951  42.8851452
  21.1237820  38.2529452  44.4990769  20.9480723  38.3926857  45.4295769
  20.3828343  38.6614082  44.0514412  66.0329089  78.4109881  10.3879872
  65.9798774  79.0556219  11.0935822  65.7182560  78.8772109   9.6134844
  14.7066697  70.8703139  10.9939804  14.7090109  69.9403455  10.7673016
  13.9229353  70.9838011  11.5316715  72.6600418  73.2008460  13.6649838
  73.5818824  73.4567764  13.6343994  72.4446544  73.1922963  14.5976010
  24.0461071  53.8641753   5.0497952  23.7705906  53.8349512   5.9660187
  23.7555607  54.7218254   4.7395554  68.4643969  37.9851770   5.4844418
  67.5649223  38.3099132   5.5260077  68.9620599  38.7068459   5.1000538
   8.5541862  21.2988301  40.7796421   7.9142755  21.8033762  40.2774754
   9.3258613  21.8637057  40.8204022  81.4911366   1.0137483  62.8812885
  81.3649654   0.1843556  63.3421803  80.9127140   0.9555818  62.1208429
  10.2467307  64.5824006  21.8080654   9.7997149  65.3535583  21.4591732
  11.1574658  64.6887233  21.5333119  22.2792881   0.5996533  41.9734135
  22.3382347  -0.3520851  41.8900528  21.3917606   0.8109446  41.6837921
   3.9582308  64.2385461   0.8243551   3.6055144  64.8216655   0.1522007
   4.2207821  63.4523513   0.3456106  51.3434610  54.2891290  28.0636730
  50.6645975  54.1665843  28.7272682  52.1612320  54.3188431  28.5602608
  24.9530190  21.5083142  53.1181565  24.0278309  21.7293616  53.0114117
  25.2634495  22.1010084  53.8026753  20.8869418  75.1933172   7.7362337
  21.0808190  74.6008852   7.0098295  21.4233454  74.8688962   8.4595957
  57.8270158  33.0993732   7.2788897  58.7163410  33.1220260   6.9255915
  57.3595342  32.4861571   6.7117396  20.7681664  63.0930331  15.3061714
  20.8815678  62.1819069  15.5767575  21.2195357  63.1507399  14.4640484
   4.9433526  61.9174793  13.0140248   5.7910212  62.3076322  13.2272568
   5.1268729  61.3332155  12.2783699  15.4393452  11.6351290  25.2732411
  16.1291807  11.9166203  25.8741799  14.6697205  11.5178414  25.8301487
   3.0559500  76.1777093  53.4098187   2.9177102  76.0047033  52.4785938
   2.2657975  76.6413572  53.6871758   6.1593341  36.4886808  49.8587799
   6.1865615  36.4490604  50.8147717   6.4459132  37.3772311  49.6476269
  37.3217505  18.9845629  21.7531433  36.7722338  19.1869660  20.9959831
  36.7238634  18.5800143  22.3817101  25.8713540  58.8682034   9.2329970
  25.5315979  58.8699677   8.3381262  25.5065640  58.0753531   9.6261254
  50.0605473  67.9015186  14.8259678  50.6109414  67.1189144  14.7972336
  50.2796397  68.3179429  15.6595268  84.6332559  14.4875123  15.9350624
  84.3501482  14.4996598  16.8493500  85.5269584  14.8296669  15.9564915
  82.7186069  78.4659579  36.8910160  83.4501037  78.5667613  37.5001087
  83.1294546  78.2222154  36.0615483  80.0518713  54.1922142  15.1083603
  80.8220539  54.0284350  15.6526222  80.0991068  55.1255193  14.9011269
  47.4563789  29.7160983  63.4258032  46.7607975  29.9428511  62.8085661
  47.9478312  29.0210485  62.9880619  73.9302549  43.1769049  38.8422909
  74.2634019  42.3759946  39.2470017  73.1374654  43.3835169  39.3372956
  13.6236571  42.6815557  65.0054026  14.1605471  42.3674631  64.2778540
  12.7558612  42.8129101  64.6234322  79.6669016  21.6478696   1.6185942
  80.0681600  22.4021509   1.1869898  80.3961286  21.0499730   1.7828360
  28.4634789  54.9199285  12.4629631  27.8133877  54.2547467  12.6891270
  29.3023308  54.4615259  12.5122586  61.6526231  49.2528036   0.2668514
  61.3529739  48.3776756   0.0206938  62.2310695  49.1061958   1.0152760
  74.3893251  59.6210518   5.2535715  73.5406551  59.2589881   4.9988022
  74.5012245  59.3506720   6.1649456  84.9382219  24.5162752  26.1120835
  85.7695112  24.0724006  26.2799206  84.3980512  24.3095281  26.8747750
  71.4446554  62.4249198  14.4888058  71.9083509  62.8399637  15.2160969
  71.5612659  63.0282810  13.7549153  62.8326115  59.3057289  43.0278053
  63.1851611  60.0260355  42.5052204  63.5184226  59.1163495  43.6681404
  14.0417155  34.2912509  53.8493862  13.5134896  35.0541546  53.6144676
  14.9442204  34.5654913  53.6865750  27.0502346   2.0110674   3.9853564
  26.6417425   2.6213093   4.5993271  27.9539459   2.3171778   3.9089623
  27.4364566  76.4236689  61.0077477  26.9243525  75.7869673  60.5091572
  27.9665755  75.8922386  61.6017103   4.8109969  36.7187747  24.4361344
   5.1711710  36.3392886  23.6345806   4.7470721  35.9810528  25.0426903
  52.8708515  36.6553261  21.0810127  53.1865177  37.4770834  21.4569130
  53.1314644  36.6971120  20.1609173  21.7578419  40.8225787  27.4565640
  21.1802491  40.3353920  28.0441609  21.5318545  41.7407175  27.6054993
  31.5598536  23.2332778  56.6389084  31.6047120  23.8604856  55.9172201
  32.4674702  22.9628658  56.7779827  83.8905058   3.3191564  37.4429741
  83.7922582   3.1933691  38.3867684  83.0465564   3.0545666  37.0769444
  62.4054623  34.6318889  64.7894812  61.4714718  34.7809482  64.9367046
  62.5758266  35.0123692  63.9278269  66.5928659  45.5219092  22.9573479
  65.8562336  45.7545676  23.5225620  66.4100871  45.9674659  22.1301213
  39.0009022  39.5500064  67.4966717  38.9531326  40.2487946  68.1490850
  39.6925545  38.9706826  67.8164148  54.9445915  48.6584425  66.0559607
  54.7945213  49.5856810  66.2401819  54.4411612  48.4878635  65.2599144
  16.8754586  54.0896215  28.7640991  16.2209614  54.7830560  28.8478413
  17.6977881  54.5035090  29.0262070  11.7167853  65.2641487  52.6238966
  11.0107325  65.8709431  52.8464270  12.4194526  65.4789686  53.2373571
  68.8705540  38.9973092  65.3563309  68.4201479  38.4379148  64.7235250
  68.2756996  39.7352839  65.4896545  48.1349373   9.1187859  52.5550747
  47.8836155   8.1988192  52.6371145  48.6142588   9.1632652  51.7277288
  74.1477832  34.7527745  13.5507908  74.3710479  35.6820508  13.4975949
  73.5554418  34.6912845  14.3001785  26.9322594  55.9740736  17.0638409
  26.3033398  55.7839646  16.3677445  27.7494725  56.1638823  16.6030159
  32.0099362  31.5921750  46.1294880  31.9732197  32.5466552  46.1915436
  32.7587040  31.3454863  46.6723767  46.7406988  50.7901716  58.5012341
  46.1017799  51.5027046  58.5187864  47.4192572  51.0917568  57.8972149
  19.4168988  51.6240794  48.5644531  20.1110258  52.2256643  48.2951736
  18.6079350  52.1199925  48.4384441  49.9007988  15.6388485  42.3542833
  50.5967522  16.2887633  42.2568369  50.2892542  14.8228359  42.0389175
  85.2204332  29.7260621  27.3528042  85.4402790  28.7959232  27.3004570
  85.2664623  30.0343564  26.4477768   3.1029709  23.6689916  13.2098236
   3.5694226  22.9742827  13.6746159   3.1572302  23.4184184  12.2876015
  17.1410048  51.4945412  68.5654640  16.9771266  51.0894299  67.7138424
  16.4667845  51.1290741  69.1382551  21.2636891  70.3837998  63.3195829
  21.5569582  71.2948532  63.3051968  20.5720129  70.3652496  63.9810038
  84.9005613  49.3339344  19.7746315  85.0567016  48.6065205  19.1723671
  85.7351932  49.8014488  19.8070183  68.4146103  47.0992156   6.7757073
  67.7089700  47.6712414   6.4738932  68.0056176  46.2377998   6.8589010
  22.2730034   6.2169285   1.4301958  21.9674128   6.6275807   2.2390309
  21.9550818   5.3156872   1.4842024  22.9631575  71.4011624   5.1999655
  22.0516356  71.6815379   5.1178303  22.9097422  70.5137398   5.5547323
   7.9885572   9.2969389  29.5048943   7.1020334   8.9451285  29.5857659
   7.8643005  10.2422543  29.4202557  55.4067850   9.3385214  45.8565855
  55.9961128   9.9571145  45.4249954  55.7509279   8.4765959  45.6223154
  57.4066401  44.0161085  68.4504271  57.2454071  44.8635054  68.0355120
  56.6243935  43.5005856  68.2540751  43.5362291  21.6423607  40.0140476
  44.3125916  22.1622062  40.2220249  43.4133339  21.7616510  39.0722966
  37.7445793  16.0435772  60.1493931  37.0354700  15.8087802  60.7479477
  37.3915291  15.8645439  59.2778826   1.4062994   3.1155749   7.7227774
   1.4445322   3.6160393   8.5378256   1.3430255   2.2030516   8.0047837
  25.6783836   0.4753514  13.9705315  26.4882773   0.9744997  13.8649121
  25.8125561  -0.0322990  14.7708550  70.0649118  54.1237545  63.6628437
  70.8441925  54.0918970  63.1079197  69.6564627  54.9639034  63.4541702
  84.5649776  26.7221620   4.0942993  83.8325510  27.1391585   4.5480528
  84.2629585  26.6245415   3.1912556  60.8001059   6.5260954  30.2691784
  60.3508108   5.8103485  30.7187023  61.0976332   6.1417456  29.4445648
  40.1932152  70.5156805  16.1908570  40.6268700  70.7848027  17.0006409
  39.2912110  70.8204772  16.2894860   9.0495165  76.9486024  17.6925507
   8.9357575  76.7231538  18.6158409   9.8806485  76.5419939  17.4473610
  15.3032206  53.6782837  64.9473906  15.3471278  54.1974401  65.7503700
  15.5385875  54.2924309  64.2519379  26.0376748  76.3900330  27.0176354
  25.1289280  76.0911467  27.0503750  26.4278229  75.8921554  26.2992134
  84.6510563  62.2269037   5.8761969  83.6977920  62.3085859   5.8470860
  84.8587141  61.5974858   5.1855889   3.4242304  64.6802976  20.6424370
   3.4191426  64.8044469  19.6933308   4.0439232  63.9652636  20.7871380
  80.5942249  30.5836987  68.2705355  81.2230301  29.9579310  68.6300611
  80.6705379  30.4816985  67.3218536   6.3743742  80.7466438   5.5788365
   6.6873368  80.3857067   4.7493735   5.5195912  80.3366592   5.7111159
  39.5549553   4.4243927   7.6915970  40.4107063   4.0178700   7.5549927
  39.0307777   3.7433167   8.1130305   6.2076815  66.3693311   9.6723452
   5.5528315  66.7175629  10.2774372   6.3493069  67.0745947   9.0408554
  62.2115629  53.5850926  10.9003487  61.4633864  54.1781922  10.8318844
  62.1166437  53.1782265  11.7615643  25.6760710  19.0132733  38.5214367
  25.6370705  18.5809489  39.3745556  26.0999601  18.3744355  37.9483452
  17.3564824  60.9481695  33.3706131  16.7324503  61.0866191  34.0831127
  17.8798445  61.7493918  33.3515396  29.9818905  20.5174296  67.1108627
  30.4170903  20.2450316  67.9187202  30.5313023  21.2227290  66.7689180
  40.1787671  48.7871798   4.2585221  40.1631173  47.8301939   4.2456856
  40.9857377  49.0073081   4.7239056  13.2147273  59.6361258  13.5199108
  13.1222685  59.7183278  12.5707474  14.1330775  59.8456302  13.6901417
  66.4557409  33.7003255  52.2548676  65.5687046  33.8614774  51.9332647
  66.3504791  33.0147719  52.9145384  16.1752661  65.2085545  12.9334011
  16.8509158  64.5576766  12.7434292  16.5816887  65.7969596  13.5696736
  79.7843895  61.7180755  25.4236737  80.1729307  62.5862124  25.5314198
  80.1701984  61.3817122  24.6148243  54.6362799  25.3255720  11.5570297
  54.2064684  26.1477871  11.7925110  53.9229887  24.7569008  11.2671128
  44.3077915  21.5570469   9.8720446  44.5975321  21.0665627  10.6412735
  44.8988598  22.3088188   9.8307266  77.5506639  20.0222063  68.2127953
  77.6288414  20.9635592  68.3676338  77.8894615  19.6190488  69.0121126
  28.2206353  71.4724114   3.7755814  28.6386116  72.1770027   3.2805290
  27.3684128  71.3572481   3.3552399  26.3169861  19.3302929  52.4251699
  25.6920671  19.0705812  51.7482233  25.9044552  20.0778389  52.8578663
  53.0007935  70.7000780  61.9353437  53.6473179  70.9962749  62.5760508
  53.4834576  70.6582546  61.1098051  29.2127770   9.4497175   1.5671911
  30.0519817   9.4173022   2.0264473  29.2336433   8.6966486   0.9767046
   5.3339290  18.8605547  36.5973687   5.8694838  19.3107414  37.2506309
   4.8497199  18.2028842  37.0966077  42.7487057  28.2256766  42.5198021
  41.8053358  28.3861370  42.5428810  43.1205242  28.9013405  43.0867710
  15.2007302  71.9587185  26.4937439  15.6443604  71.1153200  26.5837422
  14.6312531  72.0128920  27.2612133  70.8520334   5.6550236  27.5335636
  71.0418814   6.4308472  28.0610886  70.1267832   5.2273674  27.9889145
  71.5207624  64.1728687  66.4897776  72.2727585  63.5806465  66.4875889
  70.9091663  63.7810898  67.1132183   5.5569085  58.9277103  32.8439942
   4.6492394  58.7649515  32.5873223   5.6762846  59.8690596  32.7181282
   0.3140791  77.3167493  23.2460633   1.1774453  77.1279671  23.6137428
   0.4795178  77.4789073  22.3173180  34.5544975  32.8354521   0.2406969
  34.4517105  33.7767191   0.1004019  35.3085726  32.5940581  -0.2971992
  21.4662712  10.1222487  32.2809162  21.4494007  10.8355923  31.6428795
  21.6206282  10.5554028  33.1204262  69.1500387  76.8914201  12.6228180
  69.1909322  77.0425179  11.6785088  70.0644168  76.7989852  12.8904095
  13.2324084  74.1294696  18.5431614  12.4397953  73.6556199  18.7950840
  13.5475501  73.6717989  17.7637711  10.8306750  57.4637260  11.7490998
  11.3899621  56.8400385  12.2121754  11.4214285  58.1730142  11.4958134
  11.9655522  61.9427612  15.2100792  12.4208888  61.6661551  16.0053005
  12.2549304  61.3229539  14.5404949  45.0686091   9.4156237  58.7716427
  44.6797197   8.8750572  59.4592324  45.2345579   8.8058539  58.0526962
  62.8140926  22.7497339  48.4967852  62.0840740  22.3827529  48.9954185
  63.1022120  23.5026073  49.0129232  23.7936123  46.9736006  16.6457596
  23.3825119  47.0489278  15.7846298  24.7218522  47.1418282  16.4835777
  80.5021724  75.6729271  15.4739704  80.0627908  76.4484813  15.8228054
  79.9522838  75.3953245  14.7413101  27.2160929  13.8306685  16.0281887
  28.1000202  14.1979285  16.0326519  26.7779844  14.2518778  16.7677059
  39.4012516  14.7015066  12.5178757  38.7603920  15.2698298  12.9451313
  40.2473467  15.0045271  12.8473129  28.1753643  74.3507769   8.2938900
  27.8702363  73.4440567   8.2625189  29.1286667  74.2810562   8.3448734
  34.2681044   8.3803292  17.1474018  34.9223631   8.2617874  16.4588394
  34.7734564   8.6510868  17.9139176  17.2654541  68.5990765  11.3379421
  18.0389555  69.1432002  11.4857712  16.7726763  68.6558416  12.1565857
  22.9058226  63.8965323  13.6209431  23.6940583  64.2735388  14.0118256
  22.4975928  64.6257784  13.1542816  26.3597678  26.3619518  68.7884855
  26.0390948  26.3874722  69.6900129  26.0953139  25.5009556  68.4644842
  58.9631003  24.1636677  17.7957192  59.3577879  23.5985585  17.1315613
  59.5737951  24.1304941  18.5320511  72.1774301  72.0897748   2.7885714
  71.8665466  72.4412825   3.6228504  71.4892969  71.4844348   2.5123968
  81.5595913  25.3522205  63.4656715  81.7440701  25.5609608  64.3814373
  82.4190617  25.3424692  63.0444098  81.1550045   9.6792793  57.9423475
  80.2853584  10.0221562  57.7364540  81.4969349   9.3734211  57.1022511
  -0.1384107  74.4944622  22.1316281   0.4119690  73.7967660  21.7759075
   0.2771576  74.7276165  22.9617920  74.6884632   8.2947415  55.3193617
  74.4314671   8.7336838  54.5084858  74.9649429   9.0047091  55.8987904
  71.8004379  66.6206601  10.5271282  71.1152801  67.1958568  10.8676281
  72.6046095  66.9356992  10.9397927   7.9423293  53.3193901   2.1512928
   7.2765120  53.7927237   2.6501694   8.5463723  53.9992979   1.8528118
   4.5696600  76.7619278  50.6941834   5.1133641  77.5220945  50.4873886
   4.9973448  76.3601592  51.4504185  43.3904093   3.2435198   3.9669171
  42.7483814   3.5660858   3.3344736  43.5754698   3.9978857   4.5263043
  66.7757750  60.8513403  62.8602219  66.0490131  60.3798485  62.4530983
  66.3574743  61.5593481  63.3501005  37.1053904  13.3982868  23.0218830
  37.8084486  12.9379912  23.4802189  37.2586077  13.2086869  22.0962372
  28.4419697  21.2817879  23.7402954  29.2450731  20.8021422  23.5373345
  28.3181255  21.1544009  24.6808663  12.5765236  55.9705570  13.5609093
  13.0758341  56.3198807  14.2990723  12.0229395  55.2913477  13.9462033
  84.2605036   2.8398819  12.2185459  83.8225859   3.0199785  11.3866654
  83.6704271   3.1972332  12.8821316  19.0642756  11.2642784  15.0821247
  18.7852400  10.7369824  15.8306732  19.6684044  11.9070168  15.4538002
  44.5814999  77.1031811   1.8603649  45.2969082  77.1660950   1.2275400
  44.5081814  76.1671593   2.0466986  35.8613175  12.3473807   9.5752230
  36.4745253  13.0371495   9.8290482  36.0792177  12.1570559   8.6627951
  82.7635393  42.0294053  34.9532261  83.1145057  41.2864996  34.4621601
  83.4187708  42.7188119  34.8454228  32.0212048   4.4971152   6.9935122
  32.6688307   3.8374014   6.7453327  31.9909876   4.4553967   7.9493227
   2.0898974  74.0328693  43.8304615   2.0033802  74.7477961  44.4610357
   1.2591398  73.5608959  43.8880157  58.6478662  11.6940665  64.0167856
  59.3658686  11.2559903  63.5598421  58.0689573  10.9827328  64.2908287
  48.7349718  34.5541353  10.2967491  47.8756779  34.4101353   9.9003782
  49.3560474  34.3988009   9.5851603   9.0137013  61.2617495  41.8038025
   8.2204731  61.7650917  41.9872990   8.8649043  60.4169443  42.2285309
  22.7794932  34.7073793  64.6671247  22.6089572  33.9593148  64.0948057
  22.5755595  34.3878818  65.5460835  78.3309603  64.6548176  60.6125689
  79.1653156  64.1937113  60.6989622  77.9779720  64.6799278  61.5019512
  10.6541634  45.9492350  40.5370569  10.3246832  46.5150881  39.8388577
  11.5481901  46.2545967  40.6910086  38.0922001   2.1648760  22.7989331
  37.9782265   1.4133473  23.3806935  37.4447220   2.8019066  23.1009140
  60.2147851  60.1275089   5.5608883  60.0961289  61.0288646   5.2613726
  59.3260297  59.8077240   5.7160654  73.8744562  29.0317126  21.4806881
  73.9033049  29.6800061  20.7770386  73.1045454  29.2718811  21.9962158
  80.5932102  58.1408694  11.0841789  81.5310058  58.3209672  11.0183182
  80.2478132  58.8599148  11.6132393  66.5264616  76.9661357  25.2213326
  67.2154269  77.5850823  25.4631176  66.9509277  76.1089756  25.2578583
  22.1214056  57.2506857  62.5037813  21.1981630  57.5032854  62.5108004
  22.1107721  56.3089657  62.3326635   3.6608123  47.3915195  52.4474192
   2.8410815  47.8223801  52.2052908   4.2396735  48.1076288  52.7088404
  46.3639134  15.8241244  36.7735138  46.3347500  16.4194317  36.0245266
  46.5957516  14.9755593  36.3961354  77.8456783  61.3119698  54.9366903
  77.5737143  62.0981073  54.4631290  77.8846836  60.6299448  54.2662048
  23.5260209  60.0615921  11.1780491  23.3287724  60.5322912  10.3682556
  23.9364060  60.7170179  11.7421665  73.0980158  31.8171239  69.0294600
  72.1641111  31.6245484  68.9459753  73.1406879  32.5192475  69.6786404
  79.8809671  37.1390533  38.8813615  80.5064487  37.6431870  38.3609271
  79.0381193  37.2874093  38.4526086  71.3801193  62.8815079  49.8318481
  71.8071032  63.1372690  50.6494665  70.4455757  62.8834581  50.0388813
  57.2561502  35.9200764  69.6818304  58.1734180  35.6610227  69.5938587
  57.2321463  36.8253613  69.3718100  25.8090513  25.6474180  32.5860920
  26.6140144  25.7968540  33.0820122  25.7556170  24.6958466  32.4972763
  67.0483861  51.3204100   1.6342964  66.6454324  50.5856671   2.0969095
  67.5848016  51.7555108   2.2970000  34.1717880   2.9551525   6.1847820
  34.1221731   3.0864115   5.2379265  34.4957893   2.0601435   6.2858620
  26.3676079  60.3177407  34.7174683  25.5450924  60.0052049  35.0943318
  26.5569409  59.7006776  34.0106335  48.2146996  26.3513489  37.8841534
  49.1290491  26.4321251  37.6127186  48.0254858  27.1736498  38.3361092
  41.0496434  66.2086918  39.9535408  40.4570778  66.7570856  40.4677143
  41.9093045  66.3466456  40.3512516  17.1564692  31.6048880   7.5706187
  16.8633907  30.7174225   7.3638764  16.4574593  32.1705122   7.2424689
  37.2797316  19.0447445  12.9491940  38.1518190  19.3479796  12.6967373
  36.7758816  19.8477955  13.0813923  13.4748285  20.0880451  34.4290199
  12.9774922  20.9058256  34.4178524  13.5624283  19.8483725  33.5064640
  40.6976479  12.1731873  39.0344467  41.4134663  12.4649592  39.5989838
  39.9327677  12.1512766  39.6095219  69.3423111  30.5713530  31.6046944
  69.3013317  29.6893711  31.9743672  70.2779013  30.7429667  31.4976731
  54.1045015  22.4512930  13.1097737  53.1912153  22.5584097  13.3755913
  54.5334356  22.0686980  13.8751927  79.0589571  19.9049878  66.1475801
  79.7551012  19.3343151  66.4730787  78.4703827  20.0147223  66.8944216
  16.3993462  66.4445999   7.1470156  15.4656657  66.2713077   7.2671881
  16.8270358  65.6177642   7.3698511  53.1349962  41.5837307   8.4878531
  52.5794428  41.0982914   7.8779879  53.5330599  42.2712536   7.9539051
  71.4389467  78.8435793  45.8768606  71.6586685  79.0427732  46.7869568
  72.2638273  78.9487314  45.4027891  53.2581806  58.1386805  69.3890619
  52.3949766  58.3681583  69.7332239  53.4738064  57.3097706  69.8164272
   9.6798610  48.6840105  67.0397854  10.2072905  49.2758989  66.5034008
   9.1857718  49.2629671  67.6202393  82.9785213  74.0609720   4.6230307
  83.6292419  73.5734441   4.1179457  82.1669206  73.5665801   4.5085230
  81.5811920  56.6477108  49.4408703  81.1553669  55.8486891  49.1302681
  81.1534023  57.3519659  48.9537764  82.4204159  59.3552113  68.4071875
  82.1278572  59.7882318  69.2091417  82.7553463  60.0655508  67.8599453
  20.1452883  63.5682085   1.7216721  20.9515484  63.2663205   1.3032952
  20.4007681  64.3644764   2.1874180  18.0638131  49.8836532  36.2804451
  18.5640772  50.6959417  36.2020054  17.5371321  49.8486629  35.4819432
  33.7756737  77.5307991   5.7445278  34.0962609  78.3839443   5.4519501
  33.7279137  77.0059874   4.9454489  62.7531991  56.9389214  15.4890957
  62.5735483  56.2250140  16.1008873  63.4132371  56.5837636  14.8937454
  53.5634089   2.0521802  64.7142076  54.1427708   1.3968293  65.1029062
  52.9301310   1.5424418  64.2088795  18.8177832  53.5074701   6.9770184
  19.0894755  52.5922432   7.0461169  18.5064515  53.5975423   6.0763540
  62.5112295  58.0970573  53.5762119  63.3006763  58.6195612  53.7176323
  61.8232965  58.7420893  53.4121513   8.1968688  30.7334709  59.3676615
   7.3655509  31.1793089  59.2052460   7.9537104  29.8194218  59.5146990
  12.9222228  42.1429203   3.9786129  12.0658709  41.9855020   3.5809880
  13.3781268  41.3044689   3.9052468  26.5115174  49.4933459  31.1413899
  25.6393441  49.3049850  31.4879170  26.8329438  50.2154371  31.6813030
  63.1620693  32.3347235  61.8526936  64.0940094  32.5444412  61.7915440
  62.7594042  32.8211379  61.1333179  50.4630917   6.8700381  31.6763249
  51.3793057   6.5938540  31.6537609  50.0589340   6.3055487  32.3352852
  59.7310179  35.9618254   5.6613102  60.4159563  35.3096648   5.5137291
  60.0880545  36.7711230   5.2955332  26.2452906   4.0575476  21.8190136
  25.8950680   3.7916537  20.9687939  26.0349911   4.9891014  21.8839588
  14.3305500  79.3760874   9.8818341  14.9819191  79.5656135  10.5571404
  14.4724520  78.4548619   9.6640196  12.2244280  29.5568629  48.6365643
  11.7503708  30.3884049  48.6430397  13.0773323  29.7703429  48.2581368
  76.1693781  11.5981646  21.8915787  76.3263720  11.5196486  20.9506073
  76.7762392  10.9734078  22.2886029  17.6388424  18.4174032  19.5189991
  17.4885624  17.6944561  18.9099064  18.5572594  18.6534806  19.3885937
  64.5569151  23.5649557  11.1125031  63.7722509  23.6960812  11.6448059
  65.0505751  24.3793507  11.2089005   3.8599404  79.1176488   5.9629240
   4.4585904  78.4895518   6.3670912   3.3212956  78.5899022   5.3733673
   7.5065516  34.3451333  66.9045830   6.6176509  34.1642833  67.2101641
   7.6814269  33.6611271  66.2582207  61.7247313   1.9524403   3.8229695
  61.8549650   2.3242922   2.9506150  60.9262770   2.3708363   4.1449204
  18.9960869  45.4062381   0.5474367  19.1054495  46.2845113   0.1828709
  18.4309872  44.9551954  -0.0798235  34.0494793  18.1379338  10.1851740
  34.0913933  18.2822438  11.1305084  34.7580116  18.6742325   9.8293724
  71.6432493  71.0466118  33.4265366  72.2829264  70.3714676  33.6528721
  71.7428892  71.1638565  32.4817791  39.8883455  21.6029473   7.6440134
  40.1183336  22.4402924   8.0467453  39.8826521  21.7828818   6.7038956
  47.8146570  21.8962260  17.0571556  47.9740732  21.5835400  17.9476872
  48.5396116  21.5387650  16.5444222  83.4166622  22.7029753  60.1370239
  82.8010464  22.2989583  60.7485962  83.9786434  21.9824886  59.8518801
  68.6396330  18.9276190  44.5243206  69.0962332  18.3433838  45.1296463
  68.7424391  19.7983284  44.9084130  23.4984978  31.5806212   9.3254652
  22.6124485  31.6762950   8.9761820  23.3957776  31.6859993  10.2712860
  10.4852208  62.0893075  20.4247036  10.6384476  62.4478390  19.5505181
  10.3859051  62.8588822  20.9851780  28.3718269  23.8200970   9.1868534
  28.6118000  24.7429915   9.2699614  27.7228468  23.8037701   8.4834376
  74.4334030  40.3901243  46.1691284  75.0926113  39.8851323  45.6930447
  74.2614031  39.8759222  46.9579506  35.4872578  28.7484188  40.1455441
  34.9636858  28.6385174  40.9392872  36.0267799  29.5197315  40.3193894
  64.6687555  60.2111006  52.3715258  63.9974546  60.7512045  52.7885103
  65.4459238  60.7694626  52.3496628   9.3333777  67.9585435  25.3867283
   8.8677987  67.2219613  25.7828560  10.0162228  68.1788995  26.0202828
   5.3412627  39.5213842  67.9540062   5.3658294  40.3241348  67.4332190
   5.1885795  38.8256359  67.3145866  54.9897497  62.4438019   3.2305279
  55.4855269  62.0065995   3.9228287  55.1932734  63.3726616   3.3402100
  34.5514115  73.8339689  20.9491673  35.1205262  74.4610813  21.3953247
  33.8387021  74.3664553  20.5959931  77.3642311  58.4530368  28.2954159
  78.1081352  58.0942836  27.8115406  76.9718990  57.6947691  28.7282410
  84.5284423  72.2562149   3.3847132  84.8973283  72.3126032   2.5032511
  84.9296198  71.4736083   3.7626305  24.2720231  43.6514428   3.2458725
  24.1118439  42.7098584   3.3090725  24.5112046  43.7927573   2.3298731
  69.9242306  56.4570141  44.3165445  69.8647213  56.3860464  43.3638382
  70.1375771  57.3765182  44.4753647   3.8811683  72.7775621  58.4154415
   4.2547034  73.6451197  58.5704994   4.3076037  72.2142649  59.0612602
  56.5192907  14.7131844  28.3868447  55.9962957  13.9837809  28.7195339
  56.9850176  15.0439043  29.1549244  58.3411703  79.8540332  67.8718128
  58.1492123  78.9926627  67.5011006  58.3136305  79.7186902  68.8189926
   4.9072837  50.3214788  53.5082722   5.6469153  49.8467779  53.8875294
   5.2806090  51.1533260  53.2169056  62.3089235  29.9272604  16.5957775
  62.2779005  30.7084389  17.1480694  62.9349058  30.1465626  15.9056416
  53.0359285   3.2561178   0.4325619  52.6895540   2.4460383   0.0583592
  52.3495119   3.5577555   1.0276070  48.1063851  78.7329104  12.5604382
  48.6643799  77.9636624  12.6750508  47.8367146  78.6985877  11.6426506
  40.1916330  12.9195948  33.8590660  39.4957798  13.3184262  34.3815079
  39.8570173  12.0504399  33.6380806   8.2376765  73.7255049  69.7066975
   7.4395369  73.2345819  69.5112610   8.9424037  73.0848503  69.6110106
  61.7604845  28.5530205  13.9366665  62.0348089  27.9339905  14.6132603
  61.8451326  28.0653878  13.1173458  50.2502220  14.3734188   7.1811810
  49.5405882  13.7445088   7.3120632  50.5648916  14.5666762   8.0642786
  54.1824278  72.5173476  19.1626778  54.8799929  71.8700244  19.2656651
  53.7803063  72.5760725  20.0293293   6.9513987   1.5920296  56.8318033
   7.2737693   1.5359341  57.7313375   6.0299395   1.8348160  56.9223022
  40.4556790  66.9138534  61.0794401  41.1584559  66.2643249  61.0583639
  39.7196141  66.4571924  61.4867496  30.6786164  68.7387969  10.6746140
  30.6364640  69.2005923  11.5119972  31.0591515  67.8872111  10.8896198
  81.9365558  55.4230013  11.9417420  81.3837204  55.8728113  12.5807038
  82.4662122  54.8212590  12.4648133  48.0153704  24.3394113  54.8260069
  47.1669626  24.0543222  55.1653576  47.8156900  25.1165581  54.3040800
   4.4876256  72.2584141  29.3026781   4.3205920  72.7322728  28.4879446
   5.3595868  72.5464101  29.5728087  83.1900415  51.6794040   7.1877661
  83.6086473  50.9544256   7.6518860  82.6381406  51.2560108   6.5302172
  24.7495746  15.6464112  30.2904415  25.5827330  15.1865804  30.1873016
  24.9646663  16.5675604  30.1439762  25.2972737  71.1064250  53.8328457
  25.4268685  71.9078327  54.3399763  26.1297217  70.6395830  53.9057779
  13.1614875  30.3823113  45.2812672  13.7870501  30.7036614  45.9306097
  12.4197482  30.9839725  45.3450155  83.5568468  71.4220334  64.8422480
  83.7113754  72.1407790  64.2292595  84.4172040  71.2407798  65.2206182
  69.7638235  33.4512004   5.1410952  70.2415523  33.9683386   5.7896128
  69.8872861  33.9251622   4.3186894  51.0186472  67.1413941  68.1859207
  50.7879200  66.3680799  67.6711559  50.1769629  67.5186617  68.4417868
  52.9152107  18.0076790  45.9219360  52.2961140  18.2320476  46.6166401
  52.5889158  17.1801639  45.5684090  59.0960169  11.1523998  48.5290718
  59.2174721  11.7844570  47.8205681  59.5636892  11.5330911  49.2724371
  55.9191799  11.6345406  34.9922204  55.4516983  12.3355031  35.4464698
  56.0307741  11.9606018  34.0992141  19.5289207  17.2924042  66.0921717
  20.3106070  17.7794063  66.3529873  18.8669395  17.9664922  65.9384918
  16.0472401  63.9307597  33.8132038  16.3363417  63.7804749  34.7132435
  15.7255515  64.8322847  33.8123455  49.2895516  41.7463387   0.4757443
  49.5354279  41.0514744  -0.1349411  49.5758542  42.5534221   0.0481024
  82.5602818  12.6971972  42.3683167  81.7498684  12.9330301  42.8198051
  82.5160885  13.1672704  41.5356636  62.7447090  40.3347964  20.0290814
  63.4255180  40.2568953  20.6974068  62.9898724  41.1119248  19.5268860
  11.1544140  28.3446505  11.3395252  10.2975377  28.4999754  10.9422055
  11.2014397  27.3942878  11.4435997  67.0497236  53.4618607  24.1336098
  66.1436567  53.4605696  24.4422760  67.5645432  53.7049093  24.9031010
  43.7959194  23.3646369  64.3040895  44.3157959  22.5637007  64.3708849
  44.3321323  24.0343285  64.7286177  32.6723328  77.4305732  54.9355507
  33.5818949  77.6647110  54.7508574  32.7329340  76.7169232  55.5705833
  54.5230755  50.6774631  11.0587063  53.9677558  49.9574020  10.7597676
  54.2375908  50.8430030  11.9572201  74.4686604   2.1993856  40.3997326
  74.8815823   1.3359025  40.3885365  74.1965055   2.3229557  41.3090706
  53.1219912   4.7504374  65.5564547  53.3446217   3.8677084  65.2607250
  53.9675331   5.1796252  65.6871510  44.9648952  28.3667970  68.4328413
  44.6126795  28.1909990  67.5603342  45.7802200  27.8665018  68.4672689
  64.2488003   9.6831065  68.8374996  63.9530087   8.8968897  69.2964172
  64.7474241   9.3512881  68.0908394  26.9763041  15.6808424  52.2222328
  27.7405643  15.1990390  51.9060040  26.4679742  15.0314283  52.7081299
  76.4296198  25.4382682  52.2984695  75.4951477  25.5727196  52.4563169
  76.8093634  25.3465056  53.1723166  81.4567003  73.1717660   9.8562565
  82.0853386  73.5856464   9.2648592  81.1470136  73.8853099  10.4140892
  81.6187915  59.2334797   6.8719616  81.2447080  59.9645665   7.3636952
  80.8622131  58.7933519   6.4845267  40.3542241  65.0703886  46.6795483
  40.4929932  65.8121421  47.2684231  41.2218579  64.6788218  46.5789833
  18.2599276  12.0358916   5.0361958  19.1466683  12.0204087   5.3963080
  17.8091257  12.7144261   5.5387917  43.4704485  78.1008517  49.2803907
  44.2441121  78.6380845  49.1099310  43.2119599  77.7730537  48.4190178
  10.8191966   6.6543543  44.1008568  10.9817218   5.7244098  44.2590332
  10.0259112   6.6711760  43.5654640  14.0955638  13.8213575  40.6555462
  14.2858600  14.6853852  41.0208941  13.1398009  13.7800729  40.6234837
  70.5787294   7.7503844   1.5385046  70.5907076   7.8693171   2.4882117
  71.0215586   6.9137736   1.3962879  72.8747511   7.1739256  64.0717840
  71.9956398   7.4166775  64.3624163  72.8928137   6.2189990  64.1351938
  36.3722037  33.6680412  65.9824896  36.0087584  33.9383745  66.8257332
  35.7542228  34.0078664  65.3353119  58.4398079   3.5402954  41.5392637
  57.9897881   4.2156550  41.0317183  59.2083454   3.9832512  41.8989515
  61.2099075  19.5070553  62.7198076  61.5469408  18.9342546  63.4086752
  61.8340349  19.4096410  62.0006371  83.8316727  34.7834063  55.5965805
  83.3503628  35.2875471  54.9405241  84.4978333  34.3127489  55.0956392
  55.7202538  60.6791880  22.8102627  55.1304730  60.6333973  22.0577374
  55.9663304  59.7693875  22.9774227  39.2653027  43.7770135  63.3175850
  39.2176619  43.5264189  62.3950005  40.1957121  43.7170751  63.5343218
  45.0266790  46.8237638  60.4716873  45.5732012  46.3033247  61.0604906
  44.9790907  47.6846552  60.8874226  39.3078127  59.9275858  60.6171989
  38.6231699  60.0034673  61.2818336  38.8670340  60.1385052  59.7941208
  66.9001379  70.2393622  43.8523912  66.2393942  70.7638908  43.4001637
  67.1049681  69.5325525  43.2402658  34.1492215  58.2527907  61.6239214
  33.9855709  57.6183207  62.3217058  35.0248471  58.0360849  61.3036823
  17.3777493  37.6877024  25.1733246  18.1905898  37.2756746  25.4661598
  16.7777832  36.9563960  25.0268212  38.7760868  51.8612153  50.4006433
  38.1678810  51.9858486  49.6720934  39.6433106  51.9660742  50.0092888
  58.9587641  17.6184785  62.8900766  58.2229996  18.1856251  62.6593781
  59.6963787  18.2177007  63.0045033  66.6263566  35.7302465   1.0473576
  66.6012988  35.6081744   1.9964113  65.9848461  35.1058289   0.7085362
   6.8956946  13.3055711  55.4681683   6.7563819  12.4022782  55.7525730
   7.6200580  13.6183012  56.0101414  16.8621787  48.4868779   8.4218779
  17.4691590  47.9632809   7.8987541  17.2683295  49.3525716   8.4649029
  14.3213280  59.0074863   8.1881705  13.9407977  59.1875198   7.3285094
  15.2230605  58.7465265   8.0010548  59.1351366  14.3852210  52.8523302
  58.1847572  14.4607270  52.7668238  59.2625093  13.7656558  53.5707617
  65.5023766  13.9654076  65.0963163  65.7628393  13.0448401  65.0655460
  65.1238251  14.0781999  65.9682131  30.6150731  46.5518602   3.4448757
  30.7100876  46.3569930   4.3772021  29.8872002  47.1720662   3.4027853
  22.1836852  26.3182735  64.9949551  22.0385741  25.9806585  64.1111040
  22.9504203  25.8403134  65.3110313  43.5011166  27.7006693   8.0980625
  43.8346689  27.7508421   7.2022619  42.5490397  27.7161284   8.0003443
  46.9824600  10.5177557  60.2821159  46.4856100   9.8833376  59.7655058
  46.9687414  10.1652765  61.1719465  44.1604176  71.2358839  61.9415665
  45.0751248  70.9542371  61.9270039  43.6659613  70.4350216  62.1158218
  82.0448971  74.0674591  46.7032576  82.2665501  74.5601320  47.4934292
  81.1322117  74.2957306  46.5268135  82.8307438  23.5032153  69.3846750
  82.9356194  22.6074696  69.7054100  83.6612988  23.9310026  69.5930290
  17.6861733   1.8851157  20.6787720  18.4163874   1.4635010  21.1318341
  17.7423828   1.5604849  19.7800579  57.1687603   4.9571759  56.5397930
  56.9108868   4.1440427  56.1055756  57.4664116   4.6817207  57.4068356
   7.8782519  64.8156455  16.6932717   8.2326373  65.1467087  17.5185242
   8.3490952  63.9960911  16.5420475   7.4479388   5.9075904  37.7359438
   7.7228831   5.2461725  37.1009922   7.0413684   5.4065001  38.4429383
  22.0721244   2.1442631  28.2839036  21.8549155   1.7139298  29.1108632
  22.8627204   1.6972122  27.9816937  61.7937746  79.5652898  67.8229666
  62.6251402  79.1004663  67.9178905  61.9271937  80.1437986  67.0721292
  51.5762988  47.3606999  54.5284843  50.7249298  47.1447928  54.1479683
  52.1008864  46.5694434  54.4062328  24.3211564  54.0414503   1.0050717
  24.0338143  53.5810842   1.7935696  25.2686127  53.9073410   0.9812823
  30.5049895   9.8547494  46.0272455  30.0835227   9.7952378  45.1698923
  30.1237201   9.1363251  46.5319490  12.8097256  24.9297824   7.8876581
  12.5808819  24.0711060   7.5319376  12.3075446  25.5497148   7.3587599
  28.1828125  45.2225369   7.5002279  28.1979569  44.5561450   8.1871977
  27.3823842  45.7202729   7.6669731  71.4057684   6.7008096  30.7965899
  71.2296820   7.2617918  30.0412583  71.1023378   7.2094047  31.5485811
  32.7591237  62.1246197   2.8661671  33.5345086  62.6608016   3.0320492
  32.0380696  62.7527549   2.8242007  66.2636280  16.4641845  56.1408710
  65.5536556  16.5628839  56.7752457  66.3538504  17.3312545  55.7455444
  29.8233881  65.7627697  62.2982502  29.4725695  65.8587224  63.1836605
  29.0698758  65.9049971  61.7253447  73.6929274  11.4848948  62.6600981
  73.8336134  11.0193682  63.4845495  73.1356812  12.2265840  62.8959084
  13.0483206  34.0959194   4.1794005  13.6827048  34.7884198   3.9943781
  12.1998270  34.5387866   4.1668358  30.8118438   3.9292786  53.9323521
  30.4868506   4.8263204  53.8553905  30.4297541   3.4710553  53.1838417
   8.4084525  76.5377952  20.1754069   7.5510946  76.9522149  20.2724910
   8.8176384  76.6295467  21.0358620  52.9705151  54.2795768   9.4374314
  52.9197129  54.0807118  10.3723660  52.5024231  53.5601165   9.0137568
  27.1909617  14.0161049  30.3686619  26.9126510  13.1718671  30.7236791
  27.7907180  14.3668306  31.0270882  75.4707623  47.3295355  67.8379393
  76.2803030  47.3923588  68.3448219  75.4777050  48.1060696  67.2783136
  58.9869833   8.5637635  44.2404413  59.2982578   8.8114172  45.1110744
  58.3813047   7.8398430  44.3995810  37.7558651  79.1671031  64.9034405
  38.7028685  79.0277582  64.9038506  37.5723400  79.5676141  65.7532263
   0.0947093  32.4424958  35.2104115   1.0304831  32.6391864  35.1670694
  -0.3249265  33.1733561  34.7565627  17.3272513  30.8117604  48.7389517
  17.6469230  31.5530229  49.2533207  17.9589843  30.1127744  48.9079428
  31.4727965  73.1383021  52.6299238  30.7080832  73.1973834  52.0572567
  32.0294228  73.8696302  52.3624182  50.2543926   5.4635203  38.6471796
  50.9765577   6.0916394  38.6604285  49.5864153   5.8546412  39.2102623
  58.9443674  75.3694470  65.9626436  58.8509837  75.0726903  66.8678761
  59.1757861  76.2952886  66.0367680  69.9917326  72.9302957  27.2854843
  70.9181079  72.9304650  27.0445290  69.8275814  73.8170006  27.6064816
  63.9830962  74.9949575  57.6299000  64.1880122  74.3414421  56.9611979
  63.3680716  74.5535416  58.2156754  71.2527037  44.2850161  51.3526869
  71.4496994  44.7439289  52.1692801  70.7353258  44.9103975  50.8452940
  52.7032002  54.5010509   5.8135357  52.5749691  53.8999464   6.5473356
  52.7443799  53.9337959   5.0436297  81.1604404  12.8904569  54.8979568
  82.0750332  12.7784455  54.6387434  80.9212494  12.0550883  55.2994299
  30.2895335  12.2636774  11.0605850  30.3946606  13.2141569  11.1026039
  30.3394348  12.0582249  10.1270285  27.2962474   3.9280954  69.0263510
  27.1955870   4.6275875  68.3807421  27.0812034   4.3412265  69.8625994
  39.4876307  10.7496329   1.7426148  39.3630808  10.5526705   0.8142176
  38.9366787  11.5162154   1.9008389  16.9806250  21.8419244   8.3148184
  17.1976622  22.7313104   8.0353203  17.4432286  21.2768092   7.6960459
  60.7964316  80.4862764  53.8004827  60.4222384  79.9115967  53.1326866
  60.0371733  80.8552743  54.2516994  73.8718710  33.3350035  16.6058102
  74.4931373  32.9613813  15.9807816  73.0298624  33.3088299  16.1513176
   6.5983637  47.5932934   0.1365938   5.6536969  47.4656340   0.2234211
   6.9756850  47.0856967   0.8550682  69.2521477  41.5192795  28.0956268
  68.4510565  41.1275578  28.4435415  69.3944740  41.0723782  27.2612095
  16.6441916  48.8768673  59.9147892  15.7590007  49.0813208  60.2162457
  17.2012805  49.5192051  60.3544331  49.5019665  70.3124458  44.0993214
  50.0820961  69.7009749  44.5529509  48.7079945  70.3305084  44.6336603
   3.5399531  15.0191903  68.1393528   3.5155200  15.9126604  68.4819126
   3.6508178  15.1277661  67.1948147  16.6750811  12.2829270  52.2881699
  17.4219416  12.2865796  52.8868532  16.7876147  13.0732632  51.7600250
  70.6392393  55.2032807  15.9512367  70.0334987  55.4986849  16.6309777
  71.4756069  55.6064000  16.1840763   1.4670180  12.6322031  62.2689152
   0.7033538  13.1054997  61.9387007   1.1356830  11.7587328  62.4774885
  64.2248878  53.1227889  22.3237553  63.2732305  53.1373110  22.2219410
  64.3732986  53.3999112  23.2278671  63.6136255  72.3903420   0.5878105
  63.2479176  72.1715834   1.4449206  64.4399080  72.8312948   0.7854309
  62.1339703   3.2801273  60.5685139  62.3038816   3.9850813  59.9436951
  63.0002642   3.0326733  60.8918285  39.7996879  47.9027510  60.7979107
  40.4125118  47.2241879  61.0811615  40.0522041  48.0913925  59.8940945
  22.3116818  73.6687494  52.6246262  22.8544941  73.3640386  53.3517694
  21.5481987  73.0915458  52.6373959  25.3097447  62.8134205  34.6195450
  25.4037865  63.3278372  35.4212704  25.8424386  62.0328786  34.7719231
  69.6877250  48.6277297  12.9605904  69.7228298  49.4764718  13.4017697
  68.7677393  48.3685955  13.0126705  12.8107928  18.8829756  62.0495272
  12.9397010  19.7927082  62.3178530  12.0156382  18.9007294  61.5169430
  70.1871157   7.7360046  64.9602318  69.6293592   7.0373517  64.6181440
  69.5741034   8.3793366  65.3160048   4.8294559  67.1086068  61.4586830
   4.2740288  67.8836388  61.3746834   4.5150891  66.5137167  60.7778692
  47.9902180  53.9977457  16.2166157  47.4687680  53.5877039  16.9066754
  47.4449070  53.9311686  15.4327526  46.2587014  63.0291254  63.3805132
  46.8284979  63.2560022  64.1154194  45.4016056  63.3778901  63.6254168
  50.2427340  32.3627543  68.8020229  49.5519972  32.0421815  69.3819761
  49.9477911  33.2339621  68.5370016  16.2042244  77.7918174   2.3853007
  16.1867484  77.2881057   1.5715447  16.9372948  78.3975913   2.2763195
  84.4712505  29.2258873  21.0283795  83.8100919  28.8279417  21.5947190
  83.9693126  29.7610238  20.4136219  64.2570305  39.6128082  69.2362499
  64.2884493  38.6564994  69.2094994  64.8089314  39.8498273  69.9815416
   3.4660624  22.5002766  46.8037605   3.1610965  21.9762135  47.5444269
   4.3500708  22.7720690  47.0505238  33.9261063  64.7950366   9.3638649
  32.9783448  64.9288323   9.3541708  34.0487107  63.9228609   8.9890232
   8.0961703  28.7005758  49.7253084   8.8736438  28.1736803  49.5405293
   8.2487487  29.5236349  49.2610598  85.7385311  50.0501063   1.7553416
  85.4833040  50.8583739   1.3106051  84.9261627  49.7221395   2.1409884
  64.5199871  44.4934130  65.7846355  64.0020323  45.2809811  65.9510279
  65.0158834  44.6960402  64.9913788  63.9809465  15.7202065  57.9055834
  63.0543184  15.5197775  57.7736139  64.4047737  14.8641539  57.9670238
  76.4890051   5.8855468  48.1255293  75.5338001   5.9291619  48.1692553
  76.7820644   6.1842668  48.9864111  49.1232347  12.4708140  68.7760782
  48.1970596  12.2542500  68.8834763  49.5887852  11.7410183  69.1846037
  26.6871079  72.7510002   1.2771645  26.2391385  73.0369236   2.0732823
  27.5879200  73.0556037   1.3866749  11.9605216  71.0350182  11.6232815
  12.2007998  70.1544025  11.9114056  11.0288199  70.9723308  11.4129582
  77.5978717  62.2380402  27.4347630  77.5847540  62.9190900  26.7622795
  78.4257946  61.7786458  27.2942867  75.4307413  12.6517522  46.9587517
  75.3670788  11.7091870  46.8046474  76.3430166  12.7918923  47.2124290
  72.3637924  56.2509921  13.3896008  73.2901249  56.3757052  13.5959568
  72.1839532  55.3432884  13.6344662   3.9491280  47.4537047   0.4824486
   3.1251582  47.2466245   0.0415220   3.7841185  48.2899322   0.9180250
  14.0623083  75.2114392  33.7069798  14.0032807  75.1934821  34.6621895
  13.2358971  75.6022916  33.4232450   0.5801581  29.8422623  57.3519564
   0.1142882  30.1556396  58.1271935   0.8506965  30.6395197  56.8965244
  59.5896530  20.9904122  36.4618540  60.0472116  20.1536894  36.3795853
  59.6768093  21.2211347  37.3867345  53.3987131  80.4362226  40.8241224
  52.8600016  81.0321657  40.3036642  53.4457102  79.6364860  40.3002453
  83.9848900   4.5401010  45.8167124  83.6307526   5.4202604  45.9437656
  83.4861946   3.9915678  46.4222240  69.0999040  15.5415895  24.9515763
  68.6413059  16.3683345  24.8018685  68.9048013  15.3209856  25.8623448
  67.0141116  61.5515072  51.7225933  67.6229849  62.2647817  51.5309286
  67.4182024  60.7789643  51.3274765  65.1049519  10.4047370  62.4181175
  65.0754404   9.4744885  62.1945143  65.8741856  10.4914498  62.9811430
  76.5758190  58.8631835   3.7903633  75.7582626  59.1131117   4.2209044
  76.6298828  59.4379737   3.0268707  74.2601213  49.2117485   0.5496826
  74.5378074  49.0289762   1.4473000  73.6758480  49.9658247   0.6285658
   7.2050007  80.3864219  37.7541199   7.6129397  81.2468841  37.8511944
   7.5833758  80.0313404  36.9497719  55.8684158  26.0608172  39.8152351
  56.1171913  25.2421427  39.3861485  56.6053772  26.2626266  40.3917742
  61.6731366  65.2837064  21.8283978  62.1006402  65.2293828  20.9736958
  61.9385346  64.4827130  22.2802963  20.2812472  77.5872243  67.4275827
  20.5389109  77.0269562  68.1596661  19.3298808  77.6594106  67.5045109
  63.5082769   7.3135287  49.1175508  62.9458237   7.9479253  48.6732292
  63.0743647   6.4714158  48.9804506  31.7404088  68.5554626  28.9944306
  31.3218888  67.8355243  29.4664040  31.5668686  68.3697941  28.0715790
  10.1429757  49.9878337   4.1965857  10.8323058  49.3290272   4.1127672
  10.3917035  50.4980221   4.9673453  26.2715157  27.8001573  24.3527451
  26.2961586  28.7472680  24.2163410  27.0058926  27.6236799  24.9407711
  77.1331462  56.2820091  18.9140740  77.4062547  57.0671179  19.3886795
  77.9220018  55.9928133  18.4554806  45.7979076  12.1505327  17.3015156
  46.5814274  12.2076149  17.8483906  45.1113384  11.8506451  17.8972664
  65.8752522  64.1273262  35.0745335  66.4791402  64.8652842  35.1580277
  66.1175570  63.7120106  34.2468682  71.2407970  15.0625098  43.5265160
  71.6637230  14.4071448  42.9716635  70.8112049  15.6563461  42.9108524
  80.6498718  46.0740805  66.3561249  81.5409279  46.4229918  66.3336897
  80.1558113  46.6406298  65.7635403  13.0106505  49.2746081   7.7981177
  13.4007557  49.5812454   6.9795695  13.1821450  48.3329388   7.8071728
  34.2939566  48.0459976  69.0899277  34.3799209  47.2529650  69.6190214
  34.4755839  47.7579355  68.1953526  33.5866936  35.0826200  13.9406529
  32.7686604  35.4327991  14.2933789  33.3313187  34.2686733  13.5064831
  68.1195259   4.4769344  67.3041487  67.6873159   5.2710509  67.6184797
  67.7378082   4.3225148  66.4400434  27.0132359  52.3806610  12.4418106
  26.8899353  51.5948048  11.9094029  26.9890412  52.0643475  13.3449116
  19.6011122  59.3063822  21.6920891  20.4565915  59.6059623  21.9997158
  19.6438035  58.3523526  21.7571869  45.4830741  23.3216166  40.9466696
  45.2839373  23.1735969  41.8711472  45.9735488  24.1435337  40.9359312
   1.8288707   1.6964960  57.9079676   1.0450553   1.3099493  57.5175285
   1.7969798   1.4270836  58.8259172  32.3009127  16.3089199   8.2118168
  31.6376083  15.6732483   8.4804859  33.0095642  16.1980171   8.8456526
  83.8916502  51.7610528  27.3393383  83.7048111  51.3318171  26.5044251
  84.0087089  52.6837959  27.1133461   0.7666587  12.3368204  16.2738550
   1.0251616  12.4272239  17.1910417  -0.0150872  12.8828418  16.1904109
  81.0942173  27.0963812  46.2245655  80.7017326  27.8751540  45.8299685
  80.3579998  26.6337466  46.6247892  58.3823698   9.9932070   5.6708422
  57.6668280  10.5585022   5.9618273  59.1697519  10.3957005   6.0372534
   6.2523364  54.9665070  52.8735256   5.9132480  55.6254482  52.2676802
   6.6141318  55.4732132  53.6005640  22.3662623   8.6965220  58.4674644
  22.5321587   8.8839763  59.3913507  21.6959294   9.3299239  58.2111645
  78.1466770  31.4605045  69.1513157  79.0291929  31.2916350  68.8213444
  78.0564308  30.8759570  69.9039030  75.6045866  22.8302383  60.4078531
  76.0172892  23.4581351  59.8148537  75.8018923  21.9749117  60.0261211
  18.1430720  44.7854662  55.5089331  18.1600188  43.8928175  55.8540773
  18.8440799  45.2372551  55.9787321   6.0903548  44.9791527  59.8570347
   5.3579520  44.5101976  60.2569103   6.7931746  44.3309689  59.8107958
  33.7441643  52.4893787   9.2595711  34.5101174  52.0275786   9.6005669
  33.0043705  51.9254937   9.4853392  39.1028517   8.4408827  29.0135517
  40.0467270   8.4330006  28.8545933  38.9253157   9.3160410  29.3582478
  79.5385456  71.6713905  51.5646029  79.3509436  72.1237659  50.7421684
  79.3072844  72.3044300  52.2443151  44.0705490  18.5980427  51.0820055
  43.6448288  18.2824576  51.8791246  43.4061193  19.1372359  50.6530094
  28.6099156  56.9617667   7.3819962  28.0102356  56.7546740   8.0987444
  28.0421456  57.0743170   6.6196242  11.2524279  50.6930461  25.0604668
  10.3906449  50.3065612  25.2160111  11.1842545  51.5802362  25.4132786
   3.8254746  40.7683092  18.3732262   3.0295285  40.3268581  18.0768719
   3.5161122  41.4305125  18.9912930  68.6952123  74.6043828   9.5065823
  68.7449274  75.5021765   9.8347988  68.3455000  74.6925333   8.6199227
  83.8189411  20.7929134  53.3000374  83.8584137  20.0748277  52.6683521
  83.2011223  21.4154601  52.9166651  79.4942817  79.0450933  11.0597744
  80.3631649  79.2331531  10.7049408  79.0444574  79.8899772  11.0521832
   0.3577327  25.3093195  64.8585606   1.2172889  25.4622531  65.2510023
  -0.1604749  24.9180698  65.5618525   2.3177680  77.0610478   4.6687069
   1.6794308  77.0249393   3.9563503   2.6370867  76.1623456   4.7499552
  67.2397518  23.5881948  52.8686094  66.3324022  23.3891392  52.6376867
  67.7278423  23.4583569  52.0555067  31.0635089  19.2022884  13.5207343
  30.7734012  19.3471432  14.4213378  30.2533053  19.1476977  13.0139637
  40.3572949  39.5403592  16.7520752  40.3171738  39.5721274  15.7962456
  40.9142598  38.7857806  16.9434777  75.2542543  15.8537734  67.9950619
  74.3595362  15.6537735  67.7199030  75.3311443  16.8019712  67.8890419
  80.4451942  18.3668900  63.6987305  80.7337761  17.4847341  63.9327145
  79.5072174  18.2754827  63.5311699  67.6409166   9.4228382   1.4250317
  68.4342592   9.6357842   0.9336081  67.8768843   9.5778342   2.3396483
   4.2663201  66.3443377   6.8740835   3.4628018  65.8624771   6.6781082
   3.9786967  67.0796683   7.4151840  81.1425304  13.9235258  68.0140495
  81.0909843  13.8597929  68.9677334  80.4029560  13.4039271  67.6989555
  72.9788733  35.5773830  40.3412151  72.5314999  34.7871709  40.6439495
  72.7485466  36.2453175  40.9870052  17.3454093  40.3269291  61.5066051
  17.7849769  39.5630980  61.1330080  17.6740836  40.3771925  62.4042034
   0.8865069  50.0143433  57.8637886   0.1061152  50.0419474  58.4173632
   0.5787562  49.6497869  57.0339584  69.8852348  26.5890789  54.4303083
  69.9815321  27.2519135  55.1141310  69.1452980  26.8930244  53.9046240
  68.4446621  35.0620079  51.1919212  68.3912897  34.7691655  50.2821827
  67.9226780  34.4249058  51.6796303  14.3758201  25.6965756  46.4176369
  13.7156867  25.9640312  47.0570993  14.6145629  24.8068571  46.6777039
   9.7034835  42.5288057  45.5026150   9.6370314  42.0039558  44.7048998
   9.6128749  41.8952560  46.2143993  50.2939137  64.5961502  11.9149056
  51.0076531  64.6580698  11.2801018  49.5095261  64.8254302  11.4164963
  60.8023175  34.2631551  12.2755757  60.6139668  34.0067246  13.1783428
  60.0652798  33.9199808  11.7703667   0.6274699  25.5129933  21.9789815
   0.6847285  24.5691872  21.8300390  -0.2513600  25.6465626  22.3339915
   3.7273597  36.6433764  30.6990862   3.3687209  36.6361928  31.5865302
   3.1267070  37.1991253  30.2025056  19.5285424  41.8117026  12.0554009
  18.9919957  41.3262241  12.6820221  20.0372609  42.4174302  12.5944081
   8.9062890  73.2654884  21.8089905   8.6731442  72.6017001  22.4580326
   9.7883948  73.0244496  21.5261021  49.9929541  18.2678433   4.3481865
  50.1209848  17.3693152   4.6523133  50.0202482  18.2037611   3.3935251
  72.3460913  40.1219940  44.5231962  72.2623396  40.7702398  43.8239145
  73.0927515  40.4232311  45.0408745  74.4129961  17.5847121  16.8893662
  74.2642134  18.4105654  16.4288655  73.5352724  17.2368355  17.0469132
  20.4112147   8.2771730  62.9068565  19.7745990   7.8306133  63.4650135
  20.9933280   8.7265450  63.5195780  56.0976427  17.2884865   2.5914564
  55.8694857  18.2171746   2.5500288  55.4343050  16.8547125   2.0547524
  61.7813986  12.3747511  50.2908650  61.0190313  12.9121752  50.0758877
  62.0025747  12.6211567  51.1889687   6.5549763  69.1144373  10.4374352
   7.2901448  69.0584495   9.8270025   6.4678009  68.2285264  10.7892742
   8.6780738  43.6637545  66.0809660   9.3927573  44.2821980  66.2325621
   8.1223391  43.7452698  66.8560457  49.3914612  22.7803423  33.0693665
  49.1922959  22.1397879  32.3865452  49.9364956  23.4346786  32.6323166
  78.0648470  16.7162502  63.8711834  78.4762383  16.1594081  64.5321798
  77.1679783  16.8360400  64.1834497  24.3231019  74.6351459   2.8989306
  23.9495667  74.3318846   3.7264147  23.5707863  74.7193983   2.3131409
  46.6886776   2.5991364   1.0915032  46.7244785   1.8417998   0.5072155
  47.5281494   2.5868435   1.5512505  47.7356482  36.1587858  65.8762646
  48.4691381  35.5545020  65.7619429  47.3613596  35.9232569  66.7251825
  24.5808228  77.2793581   2.3949280  24.2501744  77.1200802   1.5108814
  24.6324643  76.4097621   2.7916184  17.6054247  55.6880417   5.4134503
  18.4151419  56.1967137   5.3704825  16.9159564  56.3168397   5.2002039
  72.0226145  35.2602887  66.3052654  71.5729427  36.0373497  66.6372395
  71.6072607  35.0856996  65.4607344  61.8497929  76.4816358   7.2598782
  62.8047714  76.4188554   7.2773495  61.5483007  75.5815270   7.3829117
  80.2857217  79.3699386  22.9542866  79.9023208  80.2165415  23.1834164
  80.9445295  79.5768931  22.2914353  46.6877087  72.1951916  19.6370068
  46.9627102  72.5542524  20.4806175  46.8653019  71.2571886  19.7065869
  55.1254290  21.4436980  15.4354229  54.9493235  21.0072203  16.2689152
  55.7330912  22.1489640  15.6580868  83.6889458  21.0418034  66.3856459
  82.9466152  21.0716558  65.7820940  84.4576836  20.9915757  65.8175230
  25.1169984  11.0407992   2.3059597  25.9643189  10.8071537   1.9269028
  24.9404160  10.3483887   2.9428473  32.9476078  60.6802442  17.6580467
  32.2309311  60.1268043  17.3477211  32.5273522  61.3107636  18.2429066
  75.9585667  60.9443426  40.3679132  75.8681870  61.5527868  39.6345234
  76.5416861  60.2595043  40.0404930  71.9096136  13.4543169  50.6541538
  72.6384354  12.8532243  50.5000877  72.1573210  13.9333725  51.4449596
  10.3598040   0.5761643  10.1282444  11.1864870   0.1084156  10.2467194
   9.8436635   0.3500910  10.9020176   8.8318919  35.5645728  68.9466810
   9.0543269  34.9607730  69.6553230   8.2217215  35.0735927  68.3963442
  57.7381533   5.6120892   5.0191155  57.2116297   6.4113779   5.0070181
  57.6161402   5.2582236   5.9000912  43.6326759   3.2765360  25.8698406
  44.1422003   3.5320111  26.6388359  43.2718199   2.4191923  26.0956326
  73.8705158  20.8298540  67.3188400  73.8441992  21.7177653  66.9622564
  72.9573393  20.6254840  67.5202751  56.6033667  20.6341715  28.4466114
  56.2955492  21.5397043  28.4078732  56.4720362  20.2984257  27.5598946
  64.4344720  51.3546743  18.1510868  64.7308120  51.8736711  17.4033871
  63.8470349  51.9389429  18.6304417  84.2199421  77.8519726  42.6041651
  83.7055397  77.5643921  43.3584309  83.7165070  78.5766459  42.2331762
  26.3178452  68.7993577  27.0074597  26.5191849  68.8507702  27.9418316
  25.3719433  68.6566379  26.9737759  52.6480246  27.0641541   8.8226551
  52.1882486  26.2814116   9.1262239  52.9798746  27.4722719   9.6223700
   1.1717223  15.5511940  48.2951117   1.3901233  14.9684393  47.5678396
   2.0112990  15.7315147  48.7179899   8.4592112  48.9147946  20.1205960
   8.5569199  48.3638802  19.3439522   8.9453371  48.4535780  20.8041134
  26.0100308  80.2672124  65.6533098  25.3178635  80.0453087  66.2761211
  26.4844551  79.4466009  65.5200815  20.9528540  40.8826447  62.4163628
  21.8946551  40.7529020  62.5277376  20.8381175  41.0081625  61.4743900
  58.9881628   2.2743626   6.2485256  59.0393179   1.3187619   6.2275496
  58.6277884   2.5137205   5.3946629  35.9409817  59.6061888   0.3688040
  35.5364617  59.2692163  -0.4305992  35.4599102  60.4114225   0.5595961
  35.8238514  49.9265226   0.1507321  35.1045330  49.7645488  -0.4596624
  35.4163369  50.3868308   0.8844080  42.3311423  14.0861106  45.9434986
  41.4710330  13.7512577  45.6898928  42.3951053  14.9361885  45.5081749
  69.9322319  20.1465130  65.2885056  70.8146286  19.8111331  65.1300144
  69.3821526  19.6803176  64.6589756  70.7072371  14.9739762  55.3176537
  70.2439612  15.0499268  56.1518231  70.0202101  15.0442477  54.6548691
  48.3064165  64.7696323  68.6681700  48.5466710  65.6960709  68.6830044
  47.8449860  64.6551342  67.8373861   8.3676203  76.4181020   7.5208988
   9.0792044  76.5149095   6.8880453   8.5684069  77.0552947   8.2063952
  14.2816790  59.3289080   1.6309681  15.1057061  58.8458421   1.6930905
  14.5029314  60.2169754   1.9113531  62.5519514  23.6397672  40.0839758
  62.8816938  24.5134664  39.8738432  63.3393335  23.1069684  40.1952696
  41.9226282   3.3379860  21.7739620  41.2625616   3.9202280  21.3977471
  41.8851107   2.5507231  21.2307873  44.3117350  15.4824991   1.9730416
  44.8434322  14.7377510   2.2538891  44.0127390  15.8844538   2.7886811
  67.3679829  35.5210543  66.7788029  66.6074514  35.9856653  66.4295769
  67.6342201  36.0359716  67.5405216  74.8683500  14.9786901  36.6575623
  75.7091475  15.4174447  36.7871237  74.9798107  14.1212893  37.0682573
  80.8342180  79.8052051   0.6727925  81.1630020  78.9607623   0.3644886
  81.5414438  80.1539519   1.2154141  78.2696342  15.7008004  67.1112442
  78.6060619  14.8316717  67.3295641  77.3663282  15.6944489  67.4278259
  70.8793449  40.2056408  31.6522622  71.2475634  39.4292808  32.0740557
  71.4482450  40.3611660  30.8983421  56.3318816  68.7326057  67.1830654
  56.7988482  69.2834634  67.8113461  56.2593356  67.8826554  67.6172924
  80.6403065  19.9930930  58.5082674  81.0861778  19.7569072  59.3216848
  81.3010502  19.8662794  57.8274107  12.5490188  25.7116508  63.6659861
  12.8789424  24.8399472  63.4480047  13.3332061  26.2578225  63.7205076
   2.1528815  34.1944718  24.3841529   1.5547942  34.9085903  24.6045136
   2.3857497  34.3508649  23.4689784   1.5824031  36.2335491  61.9879293
   1.4373778  35.3170848  61.7527819   1.5226268  36.7061877  61.1577082
  76.1788034  17.7365208  53.2935953  76.7377090  18.0658078  53.9974642
  76.7525673  17.1707046  52.7769899  77.2495088  59.9644318   9.1785231
  78.0073318  60.5487015   9.1548720  77.6095829  59.1153791   9.4348135
  47.0359810  80.2616956  39.5973530  47.5446232  80.9348466  39.1452732
  47.6235970  79.5074394  39.6425190  82.5007686  40.5443578  24.8277416
  83.1791267  40.0845245  24.3331566  82.9633150  41.2647211  25.2559509
  20.0984534  63.2923248  54.0382805  20.1633414  64.2037489  53.7531033
  19.2455920  63.2363465  54.4692459  84.3254948  40.0834036  33.8203883
  84.6837234  39.3473816  34.3165541  85.0514889  40.7037258  33.7543631
  68.8194609  51.5097475  66.6569757  68.8792562  51.2372875  65.7413197
  69.7200489  51.4680147  66.9785833  46.6080761  14.0057528  68.6250067
  46.5534544  14.2602408  67.7038765  45.6983471  13.8716328  68.8907862
  72.4629498  32.4273658  54.5481586  73.1483746  32.6899195  55.1625633
  72.0475006  31.6707182  54.9618244   3.2513522  44.9715805  58.2953167
   3.2589339  44.5719767  59.1650820   4.1732787  45.1411057  58.1015730
  19.8417147  76.1894181  47.0983639  20.4441317  76.7481878  47.5893917
  19.5949801  75.5017092  47.7167645   0.3041171  29.4082999  63.0868578
   1.2320041  29.1844368  63.1586027   0.0164222  29.5299435  63.9916611
  77.7054041   6.2599964  33.0624142  77.3684519   5.4186268  33.3703079
  77.1164148   6.5075226  32.3496285  10.2512988  69.0229299  29.5995655
  10.4992064  69.5294621  30.3729954   9.7561129  68.2813528  29.9475422
  55.5474234   2.8270930  59.1700220  55.5762005   3.1010595  58.2533169
  54.8029947   2.2272560  59.2174768  84.1834164  65.0438023  58.1560278
  85.0222874  65.4569578  57.9515076  84.0675354  65.1890039  59.0950251
  15.0914000  10.9566033  50.3454781  15.6595515  11.1564505  51.0894537
  15.3550052  11.5799403  49.6685743  55.1269358   5.0186510  13.6757031
  55.5983942   4.5671339  12.9756394  55.8105009   5.4642077  14.1761627
  73.0169859  60.7224626  64.3040657  73.2117072  61.1022587  65.1608419
  72.0961180  60.4670698  64.3589783  37.5571337  72.0158393  55.6323624
  37.4506083  72.0471091  54.6816254  36.7775526  71.5572984  55.9457684
  72.9502353  42.9997432  20.2841416  72.2131691  42.8472640  19.6927681
  73.5739908  43.5061263  19.7638169  19.6290883  57.5930622   4.8402157
  19.8294552  56.8470039   4.2749872  20.4840477  57.9620459   5.0618687
  43.1678360   9.5960589   0.5056086  42.6605480   9.4835921  -0.2982816
  44.0293234   9.2342968   0.2977743  27.4752911  77.4743321  49.2785397
  27.3255833  76.9941642  50.0929394  26.6694935  77.3517492  48.7766400
  75.0535965  25.9606051  10.7506311  74.8080349  25.2885723  10.1147830
  74.6866560  26.7707300  10.3966737  48.1226748   3.0157585  34.3053665
  47.3279732   2.4920340  34.4073620  48.2809799   3.0294867  33.3614483
  67.4712086  57.4383831  60.1853180  68.0932999  57.5053978  59.4609308
  68.0178022  57.4372292  60.9711075  62.7832907  33.7617989  19.4520989
  61.9754332  33.2681341  19.3110409  62.5483149  34.4254084  20.1006737
  25.6319254  19.7070618   8.7107792  25.3583782  20.4348870   9.2690554
  26.5581720  19.5818301   8.9172306  55.5577581  52.9668255   2.1460238
  56.1105650  52.2171040   2.3663798  55.7735174  53.1637974   1.2344971
   3.9316081  52.3105145  65.9335566   3.6065291  53.1500053  66.2588453
   3.1442069  51.7805672  65.8095407  75.7446480  34.3992281  54.9249506
  75.2454901  34.2608309  55.7298851  75.6859970  35.3412700  54.7657347
  13.4523591  67.8728893  21.5878239  14.3651160  68.1030991  21.7613449
  13.4062203  66.9319918  21.7575684  64.7949219  34.8151898  36.0177159
  65.6187153  34.4112754  35.7448673  65.0568485  35.6380463  36.4306712
   3.8317584  31.9218826  47.0797253   4.6450232  31.4191794  47.0336580
   3.4893226  31.9058347  46.1860180  77.9362917  40.9010172  62.0446396
  78.0203152  40.4080248  61.2284708  77.5898838  40.2671909  62.6727295
  60.5239027  12.5774069  37.7247181  60.6865900  11.6415949  37.6063099
  59.6492785  12.7163096  37.3614350  82.0131683  57.6825523  22.9506826
  82.1960068  56.9201708  23.4998417  82.0514107  57.3472309  22.0549536
  23.3206471  55.5433705   7.4804774  23.5236748  54.8046126   8.0542793
  22.3988207  55.4231956   7.2523728  79.8888510  12.1865244  23.2776585
  79.6236818  12.6058741  24.0962353  79.1204470  11.6846485  23.0057850
  67.7324152  66.3996887  63.9257669  68.5948181  66.5282965  64.3206739
  67.3946953  67.2856236  63.7942219   6.0977047  10.2136297   8.3582487
   6.2028139  11.1263199   8.6269131   5.6082957  10.2605553   7.5369635
  70.5332869  24.7388048  10.1385584  69.8384970  25.1729174   9.6435347
  70.3675478  23.8042326  10.0147381  37.9846685  12.9956503   1.8426695
  37.5760573  13.5244341   2.5279846  37.2503632  12.5778981   1.3926497
   4.0722846  65.1741648  59.3778276   4.0619658  64.8961020  58.4619665
   3.8948058  64.3744278  59.8729563  50.4088944  25.3274079  27.7885761
  51.2740152  24.9895783  27.5569096  49.9663370  25.4487677  26.9485512
  40.6106194  71.3959672  28.7985363  40.4874524  71.3346508  29.7457924
  39.7230919  71.3829234  28.4402695   7.5863989  20.3307965  15.1269951
   7.2566708  20.0182273  15.9694996   7.2336253  21.2168827  15.0455513
  18.6736297  46.8370867  63.3831882  19.5695018  46.9285393  63.0587244
  18.2536982  47.6690722  63.1648111  21.5573843  78.4799244   3.2901850
  20.7592019  78.0199697   3.5501471  22.0877894  78.5080006   4.0864935
   5.5894335  74.9296453  52.5031319   4.9218806  75.3994968  53.0029812
   5.3013190  74.0169504  52.5176182  42.8947066  73.8594198  68.0807304
  42.0406245  73.6437368  67.7062130  42.9865836  73.2652378  68.8255358
   4.1552504  63.1812074  40.6414261   4.1863736  64.1041615  40.3895893
   4.0413912  63.1959369  41.5917149  51.1669129  39.9093743  28.6907139
  50.8312004  39.8147888  29.5821038  51.6077536  39.0788622  28.5114231
  83.6431980  26.3767982  68.1552649  84.2207909  25.9020257  68.7529325
  83.1956005  25.6911182  67.6595497   2.4212550  23.2963729  52.0933723
   3.0178450  24.0333295  52.2245598   1.8526362  23.3085465  52.8632784
  76.8747387  70.3270295   1.5685454  76.5706739  69.8725083   2.3541584
  77.7620945  70.6129291   1.7855730   6.6163157  45.4657602  37.3487163
   6.2334632  46.1805058  37.8574276   6.6328143  45.7937622  36.4496183
   6.5770053  19.8858452  38.9530659   6.7050170  19.1510081  39.5529485
   7.4550437  20.0859642  38.6286592  47.9050532  79.3922743  44.4857645
  48.7009039  79.2957733  43.9627504  47.9213181  80.3026999  44.7808790
  49.7722807  56.2131459  41.9479847  49.1225424  55.5520398  42.1867418
  50.6147900  55.7741077  42.0648432  62.3511210  72.8401757  66.1801863
  61.5732184  72.4534024  65.7783127  62.1609583  73.7775893  66.2165785
  16.9441508  28.5430169  52.9666328  17.6465987  27.9110670  53.1197119
  16.4114856  28.1466866  52.2771215  45.8668335  32.2354361  10.9238091
  46.6301831  31.9984659  11.4504757  45.4285534  32.9186263  11.4311447
  21.6230201  27.3601532  69.1466379  21.9599341  26.7787433  69.8283148
  21.5047835  26.7927790  68.3848381  79.4660941  59.4060499  60.0337744
  78.6638632  58.9544804  60.2959633  79.2381754  59.8418410  59.2125702
  82.1193790  10.9623861  69.1548777  81.8229294  11.7798841  69.5549345
  83.0743313  11.0280478  69.1552734  10.5856141  42.3495988  19.6531906
   9.7689255  42.7788069  19.9082031  10.5746659  42.3632399  18.6961498
  69.0248862  79.6054644  63.6673212  69.1876974  79.3533432  64.5762539
  69.8684874  79.9322405  63.3546257  45.7756653  79.3330912  48.8939571
  46.0444155  79.7454025  49.7149324  45.8078709  80.0398451  48.2492113
  66.6487789  26.2127662  45.8820295  66.4975166  25.4124999  45.3791094
  65.9094858  26.2579441  46.4883566  79.7381869  71.4407719  68.3019638
  80.6950083  71.4606387  68.3200312  79.5225039  71.0648138  67.4485207
  76.6350079  31.0947657  51.6278124  77.0234632  31.8469810  51.1811543
  76.3456249  31.4407420  52.4720812  64.2192984  31.6119266  26.8933249
  63.7542057  31.8026876  26.0787511  65.1427650  31.7428851  26.6781759
  74.1902781  20.6963778  48.1581497  75.0829172  20.3815246  48.0156851
  73.6933231  20.3512287  47.4164343  79.3176565   7.5479844   2.6299610
  80.0785932   8.1054285   2.4673023  78.6580429   7.8557279   2.0083180
  31.1630448  49.5825651   4.0325203  32.0287713  49.7330930   4.4121256
  30.6960305  49.0738656   4.6953573  48.6770058  14.8644340  64.7082663
  48.0249596  14.1638243  64.6937370  49.0685511  14.8091805  65.5799723
   6.3762187   2.8251827  53.7273216   6.6023063   2.0031196  54.1624451
   6.3764094   2.6103878  52.7945328  53.6871004   4.5795637  28.8287258
  54.3771410   3.9755887  28.5543394  53.6247444   5.2127802  28.1136179
  28.3213559  48.6293394  58.3306551  27.7525845  48.3593685  57.6096487
  28.6553135  49.4859750  58.0644274   8.5205077  19.9119246  25.8446193
   8.9256762  20.5009007  26.4811563   7.7512263  20.3886867  25.5329680
  24.2863360  70.0418312  10.9008586  24.1793003  69.2152698  11.3715732
  25.1195994  70.3912241  11.2168097  58.9567080  74.2866350  63.0830050
  58.8373366  74.7688831  63.9011812  58.7722388  74.9286796  62.3974514
  10.1521014  16.5751421  47.2190809  10.3102969  17.4992549  47.0261526
   9.2033385  16.5124846  47.3293447  44.6322289  65.3254373  34.9543071
  44.3401995  66.1716432  34.6153569  44.8593941  65.4988284  35.8678532
  83.5257635  62.5921681  16.2845078  82.8923139  62.3289325  16.9521084
  84.3700132  62.2973707  16.6259232  58.2111063  43.5484035  64.7375917
  58.1453982  43.2424981  65.6422091  58.1769076  44.5026595  64.8043633
  12.8699778  23.9448285  49.9565172  13.7683867  23.7180591  50.1966667
  12.4333571  24.1108108  50.7920074  76.0198679  72.8195221  55.1684332
  76.5550700  72.0365960  55.0387526  76.0006132  73.2414592  54.3094635
  59.0885361  55.6851103   6.7444220  58.7508305  56.4825251   6.3366118
  58.4343728  55.0165679   6.5410843  21.8004035  12.2370458  53.0263710
  22.1849440  12.3301101  53.8979816  22.5386332  12.0068204  52.4622297
  42.0252409  79.5509663  33.3408713  41.1399403  79.5381718  32.9771304
  42.0297757  78.8429579  33.9850259  82.5931644  38.6163545   4.2977053
  83.0227566  38.3801198   5.1198214  82.8608513  39.5215678   4.1390708
  69.7017717  20.5545163  46.7736435  69.9411631  21.0761070  47.5397110
  70.0234270  19.6751976  46.9725561  21.6795578  67.6121540  59.7460270
  21.0934725  68.2041712  60.2174616  21.9923964  67.0024354  60.4143095
  40.3785267  79.8034205  64.0025473  40.4204502  78.9481468  63.5747862
  40.6829062  80.4196176  63.3363008  67.5939178   8.5183489  59.4947672
  67.6467276   9.4453162  59.2620134  68.4540939   8.3141583  59.8617029
  20.7037925  16.4562869  54.2689896  19.8238372  16.0820413  54.2259884
  20.6111239  17.3303342  53.8899279  62.7040213   3.8123913  35.8191338
  62.0265501   3.9462109  35.1563015  63.1045549   4.6747036  35.9297409
   9.5153331  38.8934064  68.5334682  10.1483439  39.6111917  68.5158539
  10.0088309  38.1471372  68.8737202  12.5077208  74.6523693   0.6904307
  12.8584250  74.8500612   1.5588513  11.5576609  74.6799424   0.8038273
  75.2515650  41.7448235  59.7193003  75.9985685  42.1851301  60.1247025
  74.6137571  42.4429512  59.5707941  78.1552935  42.9793978  36.2781429
  77.3482513  42.4648380  36.2661862  78.2934904  43.1867170  37.2023463
  81.0140800  23.1773019  47.2683477  80.0942993  23.2517338  47.5226879
  81.1523724  22.2386408  47.1417570   7.1563014  69.7766831   0.5924597
   7.5771531  69.4987776   1.4060202   7.5214203  69.1971638  -0.0761804
  67.2645807  33.2245469  65.2774239  67.3354769  33.9202046  65.9310770
  67.1892452  33.6869645  64.4427204  56.0646637  77.9177859  27.1057167
  55.7352646  78.5166814  27.7758351  55.3218564  77.7855327  26.5166607
   5.1937579   5.0589091  62.8007698   5.9145163   4.7922567  63.3714151
   5.6106948   5.2455485  61.9596052  73.3280096  26.6745677   2.1129456
  72.6790247  26.5072551   1.4295330  74.1712627  26.5959551   1.6668787
  33.7894829  25.9839179  10.8077755  33.5171231  26.2465610  11.6870251
  33.1631287  25.3054144  10.5556908  13.8416289   0.8676672  53.2832384
  14.7055816   1.1906058  53.0272293  13.2302569   1.5153095  52.9325104
  74.8525333  16.7689705  55.5297613  75.0909472  17.5977039  55.9452009
  75.4029465  16.7259669  54.7478247  68.3478945  10.5828400   8.2866707
  67.9077833   9.9991055   7.6687899  67.6478880  11.1355276   8.6341801
   4.1996001  46.5096521  16.9475162   3.5173415  45.9354830  17.2954941
   4.1590499  47.2911739  17.4987054  25.4756459  46.2927916   7.8149977
  24.8610600  46.0809960   8.5176029  25.1360424  45.8265831   7.0510950
  80.1500130  24.2089677  44.5336103  80.9771156  24.3178225  45.0029564
  80.2852821  23.4355211  43.9861488  82.0017529  45.6838083  49.8110819
  82.5396061  45.3227854  49.1063786  82.1312332  45.0815964  50.5437517
  78.7176514  49.1067076  39.9535394  79.0568399  49.2745543  40.8327484
  77.8858995  49.5794773  39.9234056  14.0837001  37.2284937  50.8123446
  14.5389842  38.0170679  50.5172205  14.0266036  36.6783524  50.0311184
  85.0289536  30.7577133  65.9126616  84.4713688  31.4001703  65.4738283
  85.6907463  31.2827158  66.3628149  65.8332682  33.1067634  61.7441893
  66.3622046  33.5670066  61.0925531  65.7944870  33.7072182  62.4886274
  25.1629704   5.1478453  52.3682156  24.3825739   5.6376524  52.1087876
  25.5772226   5.6937571  53.0365029  43.9298541   6.1499996  64.5753422
  44.1456670   7.0692892  64.7320690  44.3591685   5.6781597  65.2889862
  19.3538189  32.8949189  55.0452089  18.8266873  32.6723003  55.8125448
  19.2126977  32.1680403  54.4386101  21.6062233  78.7852552  43.6294785
  21.9756291  79.6680906  43.6101952  21.4380726  78.5758641  42.7107182
   0.5102294  23.5631342  30.2014675   0.4070228  23.4015627  31.1392727
   1.1265295  22.8916092  29.9091282  83.1327862  32.2749682  59.3446675
  83.9322728  31.8094702  59.5903530  82.8178758  31.8156977  58.5661164
  16.7509096  17.0702906  43.3037605  17.4077480  16.5052147  43.7105599
  17.1825951  17.4150820  42.5221005  65.4562539   0.2869482  17.3362103
  66.2559897  -0.1955108  17.5457039  65.6576837   0.7406636  16.5177956
  75.9390719  51.6517639  31.1722255  76.4370693  51.1943769  30.4947090
  76.3460637  52.5164604  31.2260103   4.3976873  11.5547152   3.7972107
   4.3934792  11.0926647   2.9589262   3.7695401  12.2675581   3.6809435
   3.2998329   8.4171045  40.7036591   3.8681167   7.8321993  40.2024889
   2.4146906   8.0949992  40.5333567  28.0626171   8.6809082  20.4417267
  28.9711445   8.4640427  20.2325001  27.7300661   9.1070338  19.6517506
  17.6711235  73.0855277   3.5382548  18.2266507  73.3492424   4.2717924
  17.2097752  72.3087051   3.8543835  10.4503267  17.0453091  29.1687718
   9.7474211  16.6572113  28.6476841  10.3932779  17.9833670  28.9870396
  76.1091289  56.2218645   3.4631577  76.5122900  55.9231141   2.6480284
  75.9930191  57.1641901   3.3416214  79.9386940  76.6766694  23.0923214
  79.9148712  77.6294830  23.0039444  80.8442697  76.4810111  23.3329048
  58.1471020  12.6898594   7.2586956  58.1374513  12.2114058   8.0876866
  57.3585752  13.2318230   7.2857561  77.1584625  48.2625599  13.0137482
  77.1421689  49.0794583  12.5151005  77.4986524  48.5130139  13.8726845
  31.4764547  45.9057856  49.5128345  31.2373281  46.0904074  48.6045599
  30.8153057  45.2818251  49.8124790  66.1914039  19.0799017   3.7259999
  66.6145933  18.9101668   2.8843727  66.4376116  18.3337469   4.2726841
  56.8617592  40.7817192   0.7072630  56.1170085  40.3544731   0.2841416
  57.4747646  40.9568711  -0.0067243   7.0009320   4.7090740   5.8980265
   7.6956146   5.1388998   6.3969221   6.2127607   5.2123137   6.1024037
  16.5407723   2.3488446  33.0476895  16.8166702   1.7670079  33.7559071
  17.3157423   2.8769322  32.8559246  21.9074696  21.2216063  28.3732643
  22.6744955  21.7932816  28.3403053  21.7372196  20.9962578  27.4586811
  12.1647423  13.2661028  15.6501522  12.2899502  13.1595345  16.5931168
  13.0052918  13.5961695  15.3327122  51.0240612  67.1043875  27.7625694
  50.7638368  66.1954334  27.9119530  50.4280481  67.6169970  28.3086720
  19.4055813   4.5356388   9.3420878  19.4117611   3.6204119   9.0618124
  18.4775847   4.7656031   9.3886748  25.8030146   2.1628304  17.4717083
  26.6177528   2.0843191  17.9679718  25.9956139   1.7525358  16.6286221
  74.5114240  66.9402769  10.9206715  74.8725185  67.8077676  11.1031666
  74.4993219  66.5020325  11.7715683  24.9161816  43.6973190  35.8707047
  25.8178616  43.9760256  36.0304785  24.8535514  42.8381395  36.2879777
   0.7546487  79.6420240  54.7900248   1.1473510  80.4658127  55.0787830
  -0.1662999  79.7149181  55.0405645   3.7383932  30.1692390  67.2835159
   3.9683416  30.5780077  66.4490938   3.3790380  29.3158007  67.0411587
  28.7443703  16.1892195   1.6466847  28.3791941  16.4666720   0.8065071
  29.6884411  16.3146944   1.5506592  68.8028592   4.6461602  28.9677086
  68.4113580   5.3040238  29.5423165  69.2803449   4.0648480  29.5595780
  26.5723981  74.2369869  40.2954712  26.3340393  73.3199575  40.1595440
  26.5787935  74.6156337  39.4163647  49.4222793  75.2286794  19.5586052
  49.7984752  74.9361947  20.3887596  49.1154012  76.1180570  19.7348538
  41.8254917  33.5376377  43.9560166  41.5279024  33.0406828  43.1939736
  41.2720793  34.3186016  43.9636841  36.5330315  50.7542181  43.0810690
  36.5580010  50.2172852  43.8731003  37.1907210  51.4332867  43.2312346
  26.8232887  29.5128079  33.8655892  27.0136183  29.3054934  32.9507008
  27.2196692  30.3730603  34.0037003  75.0683612  36.3060923  30.5400219
  75.2851874  36.5524168  31.4392128  74.2890996  35.7565375  30.6235161
  13.6760967  16.7482634  33.0325928  13.8100641  16.1395283  33.7590447
  14.4129246  16.5845509  32.4439373  71.8732097  19.9504540   7.9429512
  72.1633985  19.4156966   7.2039967  70.9398868  19.7556041   8.0276852
   6.0058921  27.5299378  40.1901474   6.4402884  27.1266289  40.9417286
   6.7128795  27.6997109  39.5675888   7.8085201  31.7062111   5.8705654
   7.3963159  32.3981543   5.3533306   8.7470096  31.8803568   5.7988587
  41.2667641  70.4749587   7.0677462  41.0837183  69.7915127   6.4230528
  40.4405615  70.9505990   7.1537056  62.5231618  27.1962137  11.4455452
  62.2597802  27.1205206  10.5284062  62.9372448  26.3567896  11.6458836
  80.1443285  13.7824698  14.7332134  80.6010169  14.4716378  14.2508164
  79.6043104  13.3463164  14.0741387  17.9298561  23.2215185  51.3388577
  17.1799057  22.6288576  51.2882557  17.7668779  23.8728304  50.6566086
  68.3362946  70.3467443  11.1540070  67.8087983  70.2313068  11.9443550
  68.6134681  71.2624862  11.1826649  19.4675367  45.2491970  26.3623276
  18.8649910  44.7163220  25.8434620  18.9081877  45.6874676  27.0036354
  83.3421773   2.5408287  40.4511776  83.8433165   2.6497765  41.2593975
  83.0340094   1.6350718  40.4806938  73.6293012  14.9438353  24.1857853
  73.3382827  14.8211069  25.0893727  74.3481082  14.3208332  24.0789452
  20.0530499   7.4862023  37.4055233  19.4022816   7.9832716  36.9098988
  19.8467129   6.5700598  37.2202149  84.0694913  76.3005545  13.8914242
  84.8549280  75.8194211  13.6309757  84.2259464  76.5376594  14.8054924
  25.9591787   0.7044573   1.5699854  26.1777847   1.2319918   2.3381987
  26.6841047   0.0843878   1.4910689  50.7633162  43.2282066  66.8179560
  51.6067171  43.6239576  67.0377111  50.8468485  42.3162317  67.0964527
  73.5068130  54.0223742  58.7590599  74.3110418  54.4985867  58.9656210
  73.1028414  54.5288277  58.0544043  72.7968747  11.0221405  15.1630726
  72.5834710  11.2350054  16.0715714  72.0304388  10.5470343  14.8420086
  23.4865308  57.9123306  65.3471804  23.3337951  57.6178980  64.4492865
  22.9547811  58.7035465  65.4335165  63.2505655  35.4718709  62.2314787
  62.9165649  35.2492452  61.3625050  63.5774851  36.3668871  62.1403551
  24.0125990  52.2769499  67.4882936  24.6742153  51.6558027  67.1838760
  24.4940758  53.0933714  67.6219797  35.0150132  58.4522104  40.3454733
  34.7670388  57.5331402  40.2452183  34.6856380  58.6961699  41.2104750
   4.6314209  16.3547535  45.5385628   4.6903294  15.4607744  45.2015724
   5.5305713  16.6816683  45.5088082  74.0864474  30.3558512  10.9197464
  74.4618732  29.8694535  11.6537132  74.7136802  30.2354737  10.2067843
   0.6954249  32.5388440  18.4407273   1.1130484  33.4000834  18.4313050
   1.1742838  32.0477494  19.1083756  51.8471679  74.9706700  29.6425858
  50.9555134  75.3092864  29.7233525  51.7490325  74.1506102  29.1587391
  23.8668507   9.2039223  34.6909085  23.8127106  10.1188774  34.9668637
  23.4706991   8.7128134  35.4107037  55.0274668  58.5536118  46.4128914
  55.9040334  58.7823410  46.1037865  54.8292827  57.7239247  45.9786453
  72.0033321  80.5282094   5.2053156  71.4925489  81.2595203   4.8581639
  71.9499216  79.8552706   4.5266857  72.9559952  12.3247929   2.1873369
  72.2226257  12.9170580   2.0211306  72.8618330  11.6363592   1.5289917
  47.5404120  35.7965918  24.5840683  48.2808030  35.9118719  23.9884510
  47.4207992  36.6566868  24.9867573  29.0191221  54.8358250  47.7203798
  29.4859362  55.3716660  48.3616257  29.6942043  54.5638895  47.0986509
  55.0976643  73.2867362  59.0955582  55.2504477  73.8291314  58.3218041
  55.1301202  73.9010575  59.8289051  67.6392469  76.1520913  57.5187149
  67.4343500  76.0144093  58.4435406  66.8738803  76.6084626  57.1691933
  21.2567251  35.6051512  43.6488381  21.6514557  35.1505585  44.3929901
  21.2495106  36.5267010  43.9075508  15.0664251  -0.1248817  14.5886460
  15.0569504   0.7711001  14.2519608  14.3035048  -0.1723222  15.1647797
   1.1969131  35.3544588   9.8573103   1.9248908  34.7500820   9.7123661
   0.4665392  34.9703760   9.3722668  15.1704323  69.2603254  58.5283089
  16.1095846  69.0753412  58.5263348  14.8761964  68.9965630  59.4001389
  51.9700060  49.2589023  15.0380936  51.3982806  48.7462851  14.4666233
  52.5419960  48.6104604  15.4486885  73.8765730  15.4036605  52.0268059
  74.3521489  14.8040175  51.4519262  73.8482560  16.2284434  51.5418673
  38.9033151   8.2785439  40.1882076  38.3121514   8.2360125  39.4365764
  38.7315321   9.1348845  40.5798769  66.2982115  28.7662973  33.3752480
  67.1012339  28.4141376  33.7591400  66.1476621  29.5864274  33.8453045
  23.2604894  68.3719304   5.6256333  24.0854621  68.4861615   5.1538267
  23.0412755  67.4480679   5.5045738  67.7973843  20.5790257  53.6976004
  67.7351761  21.5325308  53.6411142  68.6619663  20.4173613  54.0752172
  81.0409064   1.1007710  22.7858010  81.7005367   1.0547323  23.4779015
  80.6361169   0.2333756  22.7826538   8.5000651  14.8097344  49.9196377
   8.8970106  13.9401646  49.9697819   7.8709500  14.8277922  50.6408253
  70.8293885  14.0024348   1.7270460  70.0722975  13.8459606   2.2914543
  70.6409187  13.5062523   0.9304800  39.5672438  33.7148859  28.5657063
  38.8374827  34.1358294  29.0201225  39.3399284  33.7776222  27.6380100
  43.5950708  24.2475343  58.1629133  44.0951777  24.6698570  58.8613176
  42.7541399  24.0328574  58.5666275  57.7889046  58.3215871   9.8532477
  57.2221646  58.9613881   9.4223252  57.5898728  57.4931409   9.4170180
  23.1684294  75.0374586  59.9510241  23.6060372  75.3263898  59.1502428
  23.1008807  75.8284546  60.4858065  56.5623889  49.6158429   9.6670189
  56.3383565  50.2545490   8.9901915  56.0335312  49.8720660  10.4225865
  23.3016300  10.1326036  67.4143076  23.3944774  10.7404721  66.6807508
  24.1937089   9.8354089  67.5934792  73.8082370  62.2336223  48.7074986
  73.9445886  63.1765964  48.6156311  72.9757652  62.1562769  49.1735878
  51.4231548  56.1905351   3.5507050  52.0864257  56.8557050   3.7346974
  51.7827520  55.3847065   3.9215985  31.5035647  17.9855318  44.0437355
  31.9840592  18.4487458  44.7298851  30.7022160  17.6859255  44.4730416
  47.0675945  33.5544205  68.0585814  46.8674421  32.6559424  68.3210850
  47.0739937  33.5286093  67.1017504  64.0090856  65.9133699  19.8832360
  63.4726581  66.7007186  19.7907200  64.3956718  65.9880879  20.7557049
  54.5085463  44.9203461   1.6373100  54.7334609  45.6075605   2.2645083
  54.2309818  44.1823047   2.1799746   7.9955714   1.4367504  59.3443337
   8.8623612   1.0307284  59.3371716   8.1040996   2.2236700  59.8783913
   2.4134979  80.1662614  10.8623448   1.7899212  79.5667198  11.2721482
   3.0256805  79.5949485  10.3986016  40.8677435  16.0255754  56.8373775
  40.0131273  15.7230079  57.1444798  40.7730961  16.9751811  56.7630529
   5.4603585  79.8888423  19.1273251   5.5186184  80.7753303  19.4836655
   6.3358935  79.7107365  18.7838879  51.1587605  70.3366306   7.1809664
  51.1928830  71.2749889   7.3668423  51.4489040  69.9209239   7.9928961
  54.5581231  35.9944870   0.3623381  53.8661131  36.4989048   0.7900181
  54.9017701  35.4266440   1.0520401  57.7315554  76.6483142  36.2507763
  57.2025928  76.2666419  35.5502358  57.3110137  76.3509490  37.0575943
  82.1515903  60.2119412  20.8547535  82.1072254  59.2798402  20.6415596
  82.6971779  60.5897143  20.1649323  52.0131526  69.2963769   9.6782246
  52.4370608  69.9758127  10.2025357  51.7257676  68.6447337  10.3177586
  67.4103290  18.6888142  10.0272265  67.0546192  19.3622084  10.6070938
  66.6737921  18.4402581   9.4686928  47.5453386  66.6894677  42.2016087
  47.0486972  67.0912173  42.9144707  48.3507833  67.2041872  42.1510639
  22.7002066  11.3206501   9.7292557  22.8624981  12.1737643   9.3266525
  21.8709391  11.4293738  10.1947966  21.1784363  21.5800095  48.3974409
  21.4797473  20.7279849  48.0820084  21.8064451  22.2051740  48.0354977
  31.3885450  30.0244832  56.9501925  32.3259878  29.8782563  57.0768881
  31.1500812  30.6535482  57.6311064  23.4005737  39.4842815  49.9792528
  24.2706656  39.1897297  49.7101593  23.3800817  40.4129982  49.7483826
  28.5311508   7.3696923  40.1179075  29.3086696   7.8629136  39.8563194
  28.7900114   6.4520329  40.0334978  62.3419199  72.1090891   6.1717692
  62.4149236  71.6989257   5.3099861  61.6637764  71.6042402   6.6206351
  38.5522208  50.6402364  -0.2921352  37.8313670  50.3630950   0.2733650
  39.3421182  50.4241660   0.2034512  15.0905383  37.9155636  62.7424765
  15.1201999  38.8364100  63.0020714  15.9057999  37.5450325  63.0805397
  11.0393532  53.6048272  31.4477291  11.4829644  53.1261172  32.1479264
  10.6502303  54.3623509  31.8847409  70.5949173  65.1576164  29.8536434
  70.7145795  65.3585389  28.9254513  71.1098394  65.8224251  30.3109303
  55.2957377  73.8521912  22.1055641  56.0240993  73.2369258  22.1902218
  55.3881034  74.2128136  21.2237110  48.9922723  54.6985486  25.2648487
  48.5132274  54.6524932  24.4374218  49.8902545  54.4594135  25.0353375
  21.0215538  20.2476092  25.6107559  21.2120312  19.3925591  25.9965553
  21.8117350  20.4695196  25.1182022  53.0138597  37.1341293   4.5391503
  52.5705728  37.4872371   3.7677565  52.3431048  36.6169422   4.9850645
  63.8028807  14.3722792   8.4201946  64.0110255  13.7919159   7.6880160
  63.1866771  15.0071640   8.0548945  45.0881100  46.0406542  53.6480856
  44.5431280  46.5244961  54.2686701  45.1224947  46.6004515  52.8724098
  36.7838404  47.1501883   0.0589361  36.3196478  47.0108923   0.8843746
  36.5464917  48.0399885  -0.2021274  31.1873648  74.7148850  21.7444744
  30.3141004  74.9792531  21.4550820  31.7317143  74.7875788  20.9604969
  23.2628935   4.0585251  17.9573288  24.0702265   3.5474415  17.9004421
  22.6004856   3.4290190  18.2422486  28.2255936  17.5008273  49.4558239
  27.3238206  17.3258710  49.7249460  28.7335420  17.4372411  50.2646399
  57.9117498  37.8869049  17.1044865  58.5182199  38.5596738  16.7949620
  58.2809291  37.5971552  17.9387417  67.5891909  62.8579428  10.2136507
  67.4636373  62.8534653  11.1625710  67.4601755  63.7716653   9.9592867
  28.2925644  68.3988173  63.1864119  29.1414729  68.3457465  62.7473545
  27.9937592  67.4910648  63.2405663  53.4019360  61.5862896   8.4536448
  52.5352773  61.9839528   8.5373059  53.3581814  61.0858347   7.6388636
  84.2294544   6.6305323  10.0526514  83.4632129   6.9930668   9.6080485
  84.1042299   6.8620844  10.9729424  30.9371209  24.6442389  64.0346575
  31.2439919  25.5484819  63.9682722  30.0770497  24.7130060  64.4491196
  45.8089972  38.4846497  68.9086103  44.9951792  38.9885521  68.9115238
  45.5481529  37.6100755  68.6199713  22.9356989  73.7765768  18.3139363
  23.2613138  73.0665710  17.7606812  21.9839534  73.7359335  18.2203331
  24.9872034   6.8960638  25.0089112  25.5090015   6.6287442  25.7655468
  25.6027573   7.3682709  24.4482365  43.5733128  40.0758505  69.3534327
  43.3409739  40.3481293  70.2411890  42.7724218  39.6833158  69.0059710
  19.1933888   5.3952666  11.9458428  18.8481062   6.2861271  11.8877354
  19.3249147   5.1295347  11.0357132   9.1965693  13.3428974   3.6644497
   9.1462463  12.5320454   4.1706219   8.3413284  13.7550326   3.7867012
  20.9153908   7.9373236  23.5344258  20.7409638   7.1497984  23.0190602
  21.1326235   7.6092787  24.4070282  30.1117714  61.4812996   1.3131180
  30.6892594  60.7765391   1.0197582  29.4966229  61.6035392   0.5900135
   3.8189929  15.4557438  24.8668423   4.7123354  15.1690073  24.6772328
   3.5536950  14.9298401  25.6213417   3.8133677  72.7725818   2.9732218
   4.0010651  73.4581449   2.3321238   4.6751460  72.4645355   3.2537213
  16.2557459   0.8548041  63.8840818  15.5879152   0.7116463  64.5547104
  16.9559562   1.3224351  64.3393373   0.7564791  77.2260692  20.5332127
   1.7024764  77.0894196  20.5847492   0.4483374  76.5450623  19.9352970
   2.8146093   3.9117356  40.0785008   2.3629873   4.7408839  39.9210682
   2.9699677   3.8991757  41.0229244  65.1651702  79.4967821   7.7769842
  65.1327071  79.1802671   6.8742123  65.6592831  80.3150203   7.7262917
  79.8378748  14.7472639  48.0535927  79.7852034  15.6921978  48.1969681
  79.1581387  14.3809290  48.6192742  27.7623057  33.5806990  66.5804529
  28.3740735  33.4572673  65.8546829  27.7841806  34.5216417  66.7547512
  43.4329367   5.0180560  53.0025434  42.6699591   4.9747077  52.4261570
  44.0282488   4.3500707  52.6625013   0.1933168  45.1289129  63.1731129
   0.2338555  45.1220703  62.2167969   1.1086363  45.1018381  63.4518433
  72.0938167  64.7226551  46.3631954  72.6847896  64.7478750  47.1157589
  71.4366445  64.0670040  46.5965882  83.4469661  21.1785164  27.7780190
  83.4094295  22.1003797  28.0329457  82.5488577  20.8643427  27.8825703
  53.8169155  77.8879979  24.0794220  53.0169329  78.3797839  23.8939419
  54.3067870  77.9086163  23.2573357  12.9679354  68.4351065  12.0207825
  13.1854161  68.4078481  12.9525509  12.5812062  67.5783899  11.8399277
  34.1284204  14.3466794  64.6481371  33.6875916  14.6351802  63.8489676
  33.6395669  14.7662199  65.3561211  40.4816008   7.0337802  52.4979687
  40.9478951   7.8647941  52.4073172  41.0116482   6.4067990  52.0058537
  77.3189649  72.7471569  29.2526283  77.3546943  72.4580576  28.3408203
  76.7985687  72.0772507  29.6960678  21.5163153   2.9257841  22.1228829
  22.2799080   2.4183817  21.8477383  21.7481535   3.2557745  22.9909744
  13.5923832  21.8936749  20.2663937  13.8812321  21.1742468  19.7049465
  14.3720596  22.4373932  20.3791371  68.3092136  21.2236996   1.7684641
  67.5642485  21.8198605   1.8449488  67.9144878  20.3662653   1.6096201
  12.0962942  36.9957614  65.6577587  11.9506395  37.8428936  66.0789299
  11.8917418  37.1486020  64.7352457  65.6476206  30.3571387  22.1058502
  65.2740348  31.2238426  21.9461861  64.9440176  29.7480603  21.8818035
  52.8842983  70.8288887  12.1131172  53.7392387  70.4013517  12.1632996
  52.3796591  70.4398515  12.8274098  23.4525204  30.4451203  63.1511021
  23.2253623  31.2266898  62.6473379  22.6719570  29.8932672  63.1019926
  80.2341265   1.4936228  39.3113842  79.7613019   2.2273703  39.7041741
  80.8421797   1.9026490  38.6955872  13.6401718  21.1871166   2.8383436
  14.0043943  22.0698757   2.7726450  13.6981457  20.9727879   3.7694397
  32.0089730  53.2138815  18.0170956  31.5998753  52.5601985  18.5841694
  32.1715554  53.9616635  18.5920944  77.6238451  73.4393599  12.0084610
  76.6685781  73.4009173  11.9613877  77.8931913  72.5323751  12.1535816
   8.6002009   4.4330378  35.6851807   9.4605702   4.0135403  35.6813469
   8.2336300   4.2356081  34.8232689  32.6320291  32.3487139  65.4069090
  32.0628500  32.4300933  66.1721849  32.7147746  33.2422781  65.0738478
  63.9452395  77.8123071  31.6227093  63.5379347  77.6077487  32.4644318
  63.7325558  77.0636489  31.0654774  66.5758848  33.6157370  69.4218302
  66.1182165  32.8344584  69.1113901  66.9889021  33.9785886  68.6382532
  41.1944103   8.6980903  33.1370926  41.7980576   8.0940676  32.7046609
  41.7213106   9.1170239  33.8176107  62.9161472   2.5392456  15.2687874
  61.9634381   2.4580450  15.2242413  63.0714846   3.4766360  15.3845253
  51.5347302  17.9015847  24.7228375  51.0413158  18.1363936  25.5087319
  51.2448228  17.0134611  24.5144596  13.4861725   8.9925976  38.6977806
  13.1174343   9.5520134  39.3813839  13.4828919   8.1146403  39.0791073
  18.8244021  39.4383740  43.6669207  18.9617515  39.6802640  42.7510309
  17.9652655  39.0164566  43.6769676  68.9977217  25.5752683  48.9279652
  69.4144964  25.4878402  48.0707073  69.2680216  26.4393425  49.2386866
  71.6814709   9.7585857  57.9035044  72.4177742  10.0735044  58.4278250
  71.5519333  10.4369462  57.2407246  34.2216468  16.2490070  68.7686682
  35.0754809  16.0905635  68.3660603  33.6369944  15.6201017  68.3457136
  70.6166944  54.4289973   9.2684403  69.9139080  54.8839905   9.7324505
  71.3834676  54.9898210   9.3857804  49.5016894  75.9323266  48.9905682
  49.7016391  76.3548520  48.1552639  50.2862033  75.4236391  49.1955128
  77.9607743   1.9647236  21.3289108  77.1713299   1.4369793  21.2085285
  77.9851765   2.1484156  22.2680035  19.4351643  18.1022377  41.8597737
  20.1697891  17.5324793  41.6318836  19.0350597  18.3249541  41.0192147
  30.0593298   3.9410134   1.0122528  30.6075543   4.7126026   0.8696738
  29.7823160   3.6785002   0.1344242  39.8472071  47.4475431  53.8177395
  39.4229293  47.6419067  54.6534681  39.2004895  47.6961136  53.1572866
  53.0118856  70.9923770  31.1163082  52.4855814  71.6873124  31.5116539
  53.1336913  71.2710621  30.2087059  78.3662138  41.0544796  18.3346310
  78.9739046  40.5726258  18.8956585  77.8293810  41.5619586  18.9433232
  38.4981697  18.2104273  28.3536377  39.3103998  17.7269001  28.2029190
  37.8287905  17.5321312  28.4435120   7.9284701  75.0851490  45.5191841
   7.9152832  74.5421960  46.3073864   7.1859631  74.7738769  45.0014725
  77.4307069  73.5343149  24.4355431  77.6713571  73.9589550  23.6121311
  76.8296775  72.8353240  24.1778412  21.3973999  28.7335753  63.9711905
  20.9135270  29.1914749  64.6585226  21.7447639  27.9527617  64.4023514
  83.1930227  22.5413485   0.4521170  82.4575657  23.1214876   0.6490364
  82.9710907  22.1518917  -0.3936395  35.2137733  30.0799751  63.5330057
  34.3173242  30.3631139  63.7131166  35.6648040  30.1638651  64.3731022
  34.9666803  49.0531082  17.6238766  35.0607603  49.8449154  17.0943299
  34.3221920  49.2868824  18.2918682  69.5263776  51.9511619  44.8484459
  69.9542436  52.7058473  45.2529373  70.2292165  51.4990773  44.3816891
  24.0403006  70.2218726  28.2946434  24.3092954  70.7216098  29.0654412
  24.3065965  70.7645299  27.5524559  70.4872999  46.5124562  24.3005886
  69.9433336  47.2449019  24.0110054  69.9085817  45.7514127  24.2544499
  28.5717630  54.1035557  59.0261650  27.7950358  53.9129639  58.5002375
  28.6664033  55.0548267  58.9775753  14.6531408   1.9455309   7.4935761
  14.1683691   2.6604910   7.0811882  14.8002117   1.3169403   6.7868414
  51.1910734  70.0732353   0.6228628  50.7265339  69.5067575   0.0067988
  51.8591508  69.5081212   1.0108700  47.7078209  79.2388990  22.3442593
  47.1330294  78.6197808  22.7942982  48.1185982  79.7399857  23.0488148
  61.5405235  78.3891728  44.0739289  61.1579046  78.1284025  43.2361737
  60.9890184  77.9652073  44.7314491  71.5358410  74.3506315  23.1329670
  72.2611913  74.0051439  22.6126423  71.3379297  75.1983097  22.7348366
   0.9990280  26.0664482   8.0716839   0.2370947  25.5505247   8.3353367
   1.6411393  25.4165621   7.7860728   8.9338391   0.8028240  34.1970864
   8.4365862   1.5913124  33.9797058   8.2926982   0.0938578  34.1467419
  63.7778101  78.0681040  21.2334862  62.9462371  78.3228114  20.8336868
  63.6574492  78.2407620  22.1672669  54.2215300  31.9262600  22.4679804
  54.3897629  32.8681803  22.4947047  54.7168064  31.6159081  21.7099476
   2.6674884   1.5847130   4.8801890   3.0186265   0.9169646   4.2910900
   3.4284251   1.8953486   5.3708163  19.0038073  74.1239262  57.2150993
  18.8874507  73.3916187  57.8204250  19.9370396  74.1129923  57.0025253
  13.6804121   5.0270005  46.4770546  14.4754761   4.8929091  46.9929352
  13.8819283   5.7765646  45.9169045  70.9984684  27.3562622  63.3292866
  71.6882324  27.1549559  62.6968813  70.1833630  27.1932435  62.8546667
  75.1675034  19.3278527  51.5116119  75.7295370  18.7902892  52.0696211
  74.6237755  18.6966193  51.0402966  45.9806118  63.2435086  33.7305107
  45.4597828  63.4109738  32.9450646  45.8142159  63.9992669  34.2938748
  16.2280338   3.4737845  22.5691262  16.9748610   2.8992052  22.4008026
  15.4701202   2.8891726  22.5639858  23.5507560  40.4513264  62.1381617
  23.8950229  39.6873307  62.6007938  23.9788342  40.4261017  61.2823915
  69.0210065  69.3677332  35.7138577  68.1455955  69.1294839  36.0190144
  68.9444265  69.3896368  34.7599831  25.9458137  67.2122431  64.2941523
  26.6906714  67.8116703  64.2482471  25.2507782  67.6562357  63.8083267
  47.9361639  30.9609600  20.7616368  47.9844913  30.8280250  19.8149529
  48.2037804  30.1213541  21.1353722  12.5473857  53.8946009  45.5594921
  13.2729077  54.3421888  45.1241589  12.0683587  53.4678984  44.8490763
  49.0399489  74.9429181  26.6776695  49.7906956  75.0746086  26.0986462
  48.7038812  75.8246520  26.8384114  17.0001095   2.3755904   1.4192572
  16.1000889   2.2500582   1.7199841  17.5332134   2.2660942   2.2066822
  51.2818870  22.7348700  21.2874451  51.1045990  22.0433226  20.6498280
  50.5305585  23.3237722  21.2171974  84.7892184   3.9717312   2.5997153
  84.3169183   3.2901640   3.0778685  84.9946541   3.5726376   1.7542877
   1.7763131  12.7952118   3.3039847   2.1282690  13.4566088   3.8997307
   0.9487527  13.1655045   2.9969683  57.6997599  68.5014513  33.4431019
  56.8645248  68.8680222  33.1528607  58.3066544  69.2413309  33.4209862
  69.7541961  64.4875076   8.0493822  70.6553278  64.7933485   7.9461279
  69.2294941  65.2879908   8.0615654  44.0208253  56.5351894   9.5837298
  43.6794517  57.0409944  10.3211918  43.3320901  55.8992448   9.3902102
  42.3921806   0.6498356   2.5531855  42.1928043   1.0086794   3.4178915
  43.2849318   0.3139658   2.6332846  10.4510706  15.5963536  14.0055599
  10.0425380  16.2441035  14.5797959  10.8855312  14.9871941  14.6025601
  38.4329772   3.5756078  59.8861647  39.0139723   3.8168877  60.6075954
  37.5517988   3.7319905  60.2257204  33.4430832  41.3366690   9.9337139
  33.8371709  40.8479383   9.2111721  32.5166938  41.0971699   9.9077406
  79.3096561  16.4881583   6.7739907  78.4627623  16.0499401   6.8574610
  79.8476476  16.1034031   7.4659100  20.6197994  22.3802204   5.4915610
  21.1998814  22.1316786   4.7718659  19.8274534  21.8620510   5.3504219
  39.6034703  78.1428101  27.9089775  40.0119600  78.2915118  28.7617722
  40.3164873  77.8276017  27.3535671  80.8003420   1.1859341   5.3828039
  80.8870048   1.8763657   6.0400906  80.8645815   0.3712912   5.8812609
  58.4126839  52.8493383  43.2224789  57.6860771  53.4378495  43.0177155
  59.0753064  53.4155550  43.6181584  78.7669477  41.3906831   9.9365654
  77.8835449  41.6504834   9.6751585  79.1236934  40.9470240   9.1670647
   6.1868285  54.0641117  58.4524536   6.6239451  53.8147640  57.6382160
   6.9016646  54.2281771  59.0675306  36.2347970  73.6721494  34.8017063
  35.4403410  73.1566074  34.9405899  36.0570380  74.1769936  34.0081349
  56.7621812  77.9368021  33.4228268  57.3574695  77.9626396  32.6736965
  57.2112426  78.4387186  34.1030159  43.7474155  32.4329042  68.7650251
  42.8707027  32.0490408  68.7490034  43.9666510  32.5679111  67.8430986
   3.9508542  61.1091020   9.8605147   3.1305703  60.9448364  10.3256741
   3.6918028  61.2024047   8.9437714  42.9846048  50.0017834  49.7527313
  43.4796524  50.5283928  49.1251612  42.8347874  50.5896425  50.4931450
   6.8383258   0.8488817  13.7779942   5.9817427   0.7024641  13.3766690
   6.6455000   1.0122175  14.7012272  41.6310501  17.6388669  64.2940235
  41.1097574  17.3638892  63.5397816  41.7763853  18.5748887  64.1562843
  73.7413007  14.0976067  12.1675434  73.0680567  14.4818182  12.7291050
  73.9791102  13.2796021  12.6040592  32.5219011  63.7203312  64.9957800
  32.2755623  63.7793016  65.9188604  33.3941555  63.3262396  65.0053644
  47.5608346  63.8826206   1.8178120  47.2470758  63.6432340   0.9457579
  46.7641089  63.9990189   2.3354140  51.5172777  69.5293739  25.4078903
  51.8158922  69.3772938  26.3045159  52.3088369  69.7785428  24.9308338
  24.6641739  44.8505610  14.4047966  25.2080830  45.0513374  15.1664295
  24.2066582  45.6695493  14.2146149  57.9644665  61.1488273  24.2422905
  58.3390889  62.0237806  24.1405812  57.1310148  61.1891320  23.7732830
   3.0124453  31.4327407  69.4818020   3.3013788  31.0198092  68.6680222
   2.8600803  30.7015538  70.0804520   2.3290261  69.1250780   5.7516518
   1.9090708  69.1681149   6.6107359   1.6436728  69.3864396   5.1366654
  67.8682289  78.3969858  46.7216244  68.5799131  77.7585342  46.6756287
  67.3948011  78.1706717  47.5221672  80.5339489  61.0122373  15.2247086
  80.6358680  61.4981368  16.0430851  80.2946481  61.6774728  14.5793953
  28.0154443   1.6457866  67.5410604  27.1980214   1.1525871  67.4717331
  27.7806926   2.4299601  68.0372381  65.6322059  74.0080645   1.5020886
  65.5253610  74.9511149   1.3777008  66.1477837  73.9292362   2.3047056
  53.8354191  57.3520460   1.4089670  53.4671292  58.1867340   1.1193266
  54.6814117  57.2964694   0.9646263  85.5219406  51.9563408  10.6688538
  85.2193875  51.7219658   9.7914877  85.4554099  52.9107781  10.6981411
  67.1351847  74.7655799  18.0975571  67.2365675  75.3114250  18.8773098
  67.8049168  74.0880802  18.1907311  78.9504585  46.8114295  35.5984917
  78.9114103  47.7141854  35.2826729  79.3804130  46.8744376  36.4513626
  66.9208873   7.7061720   8.6452809  66.3499511   7.4593087   7.9177323
  66.4088834   8.3405323   9.1469422  12.7485626   4.6830149   1.2456789
  12.4452179   5.5483408   1.5203133  13.6624401   4.6487351   1.5283098
  75.3635890   0.6939097   9.8987808  75.8386046   1.2708111   9.3006363
  75.9530730  -0.0478773  10.0347653  61.0317326  27.3909807  66.9676065
  61.5536308  27.1464062  67.7318287  60.1446247  27.5029659  67.3092699
  65.0344333  66.8013527   0.2067366  65.6112847  67.5541427   0.3362789
  65.6194553  66.0961750  -0.0702247  78.1371641  20.3659868  61.1109161
  78.4393692  19.4672060  61.2416601  77.9515362  20.6870174  61.9933653
  61.1013985   7.7779299  67.3696804  60.2045345   7.9224968  67.6712942
  61.4893198   7.2099048  68.0353355  41.2417421  75.9735634   3.0149164
  40.3448746  75.7583144   2.7589312  41.4976856  76.6789582   2.4206581
  84.5621452  73.1555536  15.6750431  84.4001684  73.9576986  16.1715927
  85.2566681  73.3908346  15.0598088  28.4894466  63.3217573  64.0936089
  29.2975688  62.8125095  64.0316486  28.7625504  64.1599703  64.4664955
  14.9249523  13.4211846   6.5212193  15.7643955  13.8005944   6.2611857
  14.6277207  13.9712830   7.2459784  36.3346520  69.9907687   1.1576977
  36.2789175  69.0410449   1.0520973  35.7866302  70.1796272   1.9194308
  12.8247511  39.1517687  57.8340149  12.7401161  38.2093477  57.6894045
  13.6001074  39.4024634  57.3318100  35.2306625  72.0230081   6.3581887
  35.6851927  71.1831167   6.4231386  35.6002870  72.4356415   5.5775871
  -0.0757272  17.0520897  25.9204712   0.4396647  16.8196173  25.1480999
   0.3377193  17.8485937  26.2534466  26.9841909  45.5129480  56.9324160
  26.4714193  46.3211870  56.9387722  26.3320875  44.8150826  56.9954872
  45.4300830  77.8793862   9.0107861  45.2273008  78.4096363   8.2401076
  45.1894018  78.4337904   9.7530403  61.1679611  70.7222130  22.3211518
  60.8106527  69.9125888  21.9563618  61.1798033  70.5741074  23.2667484
  71.8706283  30.5116721  15.8615055  71.6659889  30.7925072  14.9696007
  71.5569934  31.2264278  16.4155712  60.1195178  78.9435961  59.3191567
  59.2399225  78.8141634  58.9644852  60.0953230  79.8187234  59.7061959
  73.3646774  40.4492950  67.8955173  73.4151268  39.5797729  67.4985075
  74.1356802  40.4997110  68.4605408  72.6127929  58.6908169  39.2563000
  71.9811517  58.2730789  38.6708393  72.0926983  58.9699860  40.0098171
  63.7808633  19.0109892  33.3586636  63.6679900  18.3188362  34.0101376
  63.8743586  19.8121186  33.8741150  75.5050478  69.3947198  11.4980164
  75.1861105  70.0897219  10.9222737  75.2144584  69.6554830  12.3719635
  26.4070996  59.7978618  28.6719361  27.1249493  60.3476264  28.3577862
  26.1600502  59.2696681  27.9128590  18.2835453  31.8119211   9.9659672
  18.6051863  30.9570284  10.2522125  17.7057522  31.6157742   9.2284622
  31.2819737  37.6265354   5.5453434  31.4418619  38.4079237   5.0160923
  31.7511051  37.7911587   6.3632956  47.0761919  48.5593176  65.8004522
  46.9270945  48.1758690  66.6647291  46.5521097  49.3602991  65.8001471
  21.9930458  63.7536383  60.7619047  21.1656857  64.0711164  61.1237288
  21.7769694  62.9024696  60.3810406  75.1630563  12.6670952  28.6679306
  75.4453475  12.8668089  27.7753678  75.5657226  11.8208571  28.8627854
  70.8672733   8.7466498  32.6339092  71.5746719   9.3836994  32.7338352
  70.7679528   8.3605643  33.5041466  45.8852816  24.3518496  65.8758450
  46.8422031  24.3485427  65.8985996  45.6254148  24.5954657  66.7642975
  70.4360733  54.0721347  23.8530770  70.7621059  54.7536387  24.4408550
  70.2946195  53.3141866  24.4202938  63.6293125  62.4896288  63.8864851
  63.6394930  61.5472555  63.7189913  63.6794472  62.5640726  64.8394680
  18.2623261   6.9321699  15.5106964  19.0859478   6.4505501  15.4337826
  17.6118486   6.3610525  15.1021137  83.3456144  69.4715931  41.4461842
  83.0916986  69.7984340  40.5830898  84.2648897  69.2237523  41.3475170
  46.4083880  13.0837841  30.6701699  46.1160439  13.5837622  31.4322605
  45.6069725  12.9082699  30.1770535  27.6122540  11.8857737  19.2024746
  27.0143383  11.9530983  18.4580269  27.0417088  11.9083138  19.9707165
  27.9086709  38.9990664  41.9534397  28.4055781  39.8169994  41.9708920
  27.3802710  39.0227628  42.7512264  25.9889531  53.3827066  62.2240734
  26.8285346  53.8104439  62.0556307  26.2201881  52.5698566  62.6735640
  34.5612597  20.7700396  67.0484924  34.7371697  21.6848612  67.2684717
  35.1701927  20.2713513  67.5932312   8.5143321  18.7745924  41.5962925
   8.5140603  19.6391030  41.1853733   7.6557463  18.4083672  41.3842907
  43.8250082  15.6378384  22.9921952  43.6328524  14.9887295  22.3154583
  43.1364124  16.2956543  22.8955212  13.0801457  42.3807926  51.8307247
  12.8345316  42.3250408  50.9072533  13.8419836  42.9602070  51.8413677
  36.6763953  31.3919719   6.4004555  35.7995758  31.1199220   6.6713944
  37.2611526  30.9894981   7.0425644  66.7198238  73.1676700  14.5531597
  66.2496004  73.2232525  15.3850403  66.3752517  73.8944604  14.0342369
  14.5743769  26.3504000  28.1267491  14.8376053  25.9780140  28.9683380
  15.2826756  26.1136074  27.5280228  81.1941380   5.0706692  17.7046814
  81.5492887   4.4333954  17.0850125  80.2904004   4.7889061  17.8464546
  18.8937777  39.5711060  48.2419148  19.6972340  39.3285628  47.7816334
  19.1474693  40.3118725  48.7925091  61.8005485  15.2822895   4.1305819
  61.2346486  15.8202286   4.6843043  61.3549927  14.4364519   4.0829172
  14.6611612   2.2411461  13.6126938  14.6934670   2.2605057  12.6562348
  14.4205540   3.1333514  13.8623181  28.1406515  25.9519406  23.4867420
  27.5581997  25.2721663  23.1477871  27.5743359  26.7140837  23.6077919
  18.0492067  57.5580263  58.8436460  18.1081343  56.6167593  59.0072823
  18.6956584  57.7227259  58.1572008   8.6948364   7.3403187  31.4678230
   8.6936968   8.2776947  31.2740174   8.5668247   6.9197865  30.6175270
  37.1511047  17.2166939   4.6933260  36.8559473  17.6740952   5.4806605
  37.4456137  17.9140015   4.1074410   6.0766237   8.6087628  10.5842247
   5.3240698   8.9856787  11.0401001   6.0810083   9.0417547   9.7305622
  55.9163246  80.0023534   6.5444794  54.9819932  80.0769427   6.3503351
  56.3511142  80.2554991   5.7301655  72.7771139  69.5193148  60.7022953
  71.9480181  69.3001699  60.2770805  72.8156805  68.9411926  61.4642143
  11.1974343  39.4938476   6.2498465  11.5366372  40.2206706   6.7722454
  10.5794152  39.0496293   6.8303290  62.5818682  59.4747257  58.0542088
  61.7850685  59.1438675  57.6396275  62.2771645  60.1682711  58.6393452
  15.3925141  76.3135459  35.9306278  16.3358839  76.2328126  35.7900276
  15.3038891  76.4850118  36.8681565  33.0342269  53.8112783  50.6565285
  32.9617119  53.1154060  51.3097858  33.9764571  53.9333200  50.5401802
  21.5609139   1.1622114  11.3909092  22.3506134   1.6764374  11.5587464
  20.9818333   1.3659640  12.1253338  13.3268803   7.1246548   8.7341871
  13.5366457   8.0092783   8.4347334  12.8416412   6.7344590   8.0071917
  72.6120386  72.2433617  60.9849110  72.8037748  72.3462751  61.9170513
  72.6739177  71.3007596  60.8303013  14.0479916  11.2667771  36.9202557
  14.3747681  11.7516060  37.6781407  13.7852257  10.4172488  37.2744980
  58.6789223   3.2684536  23.1114331  59.4567562   3.0145092  22.6147309
  59.0184543   3.5488959  23.9613190   7.7111571  20.9996720  55.5909672
   8.4996193  20.6125613  55.9713688   7.0593684  20.9515782  56.2903252
  71.1759624  56.5393426  25.7405129  71.9037685  56.3506045  25.1481381
  71.4015159  57.3811212  26.1364498  45.7590008  42.9909849  55.5591822
  46.1064005  42.7516794  56.4184093  44.9867105  43.5223818  55.7526112
  39.2949455  26.1720391  41.3769284  39.4502609  27.0586129  41.7026558
  40.1069992  25.7017918  41.5658035  20.5872553  19.5787211  31.5045395
  20.9432285  19.1933461  32.3051682  20.9112614  20.4794140  31.5076771
   7.7071267  60.2486610  61.7455816   8.6418384  60.1062584  61.5963602
   7.6374018  61.1796713  61.9567442  80.6487856  79.0300586  13.5916653
  81.3092861  79.6871498  13.3721104  80.2247963  78.8286164  12.7574673
  74.6731931  58.0125447  40.9564343  74.4302458  58.6065312  41.6666355
  73.9362663  58.0538864  40.3469601  33.1725519  16.9453593  36.4490261
  32.8917282  16.5248509  37.2617569  33.4623592  17.8170510  36.7180958
  21.4457911   7.3169108   4.5093479  22.3433226   6.9930716   4.4331923
  21.4495915   7.8481455   5.3055897  51.3053196  18.3541651  31.5515366
  50.8489578  17.5707407  31.2445965  50.7464426  18.6996479  32.2476235
  39.3530434  37.9002638   9.1074839  39.4700068  38.6118193   9.7369614
  38.8772791  38.3002444   8.3795443  81.0263652   8.7719412   6.0317221
  81.2447042   9.5728417   6.5082922  81.8431133   8.2730789   6.0148277
  15.3680485   9.1133089  28.4120884  15.4861181   8.6310168  27.5937405
  15.6894940   8.5181637  29.0893593  74.1087836   2.5511189  22.6302281
  73.8061375   3.4435816  22.7979794  74.9186510   2.4740620  23.1346169
  66.9098506  72.2235873  28.9861050  66.3140378  72.9662039  28.8873234
  67.3263535  72.1350005  28.1288376  84.0452809  10.5210181  28.1746712
  84.0003294  11.4419670  27.9176464  84.5714182  10.1068611  27.4906483
  33.7080145  29.7268319  59.5641041  32.8889894  29.2330217  59.5242977
  33.9908576  29.7954941  58.6522293  20.9271257  32.3520823  26.8405190
  20.5386942  31.9590731  27.6221218  20.4077118  33.1410666  26.6857853
  43.2353705  21.9619341  36.9954815  42.5004595  21.3538714  37.0754566
  44.0093916  21.3995810  36.9657936  16.4436539  67.5908139   2.1242085
  16.9788559  67.7340343   1.3436499  15.6311472  67.2100284   1.7909470
  54.2855215  50.9563112  69.1581440  53.8201809  51.0018921  68.3229113
  54.5222712  50.0334501  69.2503643  35.1334355  69.2817357   3.9854279
  35.6704965  69.0730813   4.7497978  34.4586823  68.6029007   3.9742842
  32.2336071   1.9954558  11.9396916  31.6741484   1.2198086  11.8996086
  33.0275982   1.7426796  11.4686051  46.8209410  30.7181931  69.1155100
  47.1726322  30.5592608  69.9914598  46.2325382  29.9802136  68.9561272
  36.3954043  68.8075161  54.6952105  36.4106131  69.3771124  53.9260817
  36.9477344  69.2554426  55.3359365  16.7089050   5.1434393   9.2992583
  16.8229263   5.9804268   8.8490525  15.7854813   5.1307125   9.5509615
   2.8338879   4.5001717   2.1683827   2.8154820   4.5504399   1.2126818
   3.7643927   4.4530745   2.3878708  48.4035128  15.3505821  19.6369114
  49.1566246  15.4182358  20.2238407  47.7525013  15.9427614  20.0133934
   1.8153327  15.6256886   4.6328392   1.7377561  15.8023281   3.6952820
   2.2812074  16.3854904   4.9819699  74.3289322  14.2665930   5.7613316
  74.4332916  13.4336777   6.2213268  73.4451563  14.5562001   5.9878292
  17.7467068  77.7033236  -0.1596317  16.8844422  77.3147418  -0.0122127
  18.3413371  77.1763327   0.3741541  22.4048155   5.6573792  49.4068566
  21.4674490   5.5116387  49.2790642  22.4660366   6.0898752  50.2585831
  57.6542377   0.3482009  53.0465269  57.4091005  -0.5381034  52.7808094
  58.5819149   0.2823780  53.2730532  23.9332121  47.4582024  14.1179409
  23.3293980  48.2008381  14.1059342  24.5548838  47.6435776  13.4141007
  65.4233060  65.1457694   3.2013073  66.0496482  64.9032357   3.8832941
  65.9629759  65.3105643   2.4281111  21.4735754  77.3309638  48.9777317
  21.5975102  76.6894343  49.6772328  22.2802742  77.8461983  48.9795914
  76.7058343   0.1048489  24.7014656  76.6495032   1.0371704  24.4920960
  76.6705400   0.0714894  25.6574288  83.1209573  74.4176462   8.2626000
  83.8255987  73.7699821   8.2469454  82.7590570  74.3993070   7.3766413
  52.3275694  49.0177574   9.9103108  51.6608104  49.3310269   9.2991438
  52.5878272  48.1642016   9.5639887  59.5147753  48.5502386  68.4570503
  60.0487137  49.1422510  68.9868259  58.8324881  49.1100121  68.0864143
  39.3150043  56.8168211  62.2049189  39.1513658  56.5832710  63.1186533
  38.4629869  57.1011972  61.8741131  75.1838264  72.0175793  23.3820954
  75.4715500  71.7746999  22.5020542  74.2464504  72.1876624  23.2891979
  75.4079685  73.2007840   7.4938002  75.3120098  74.1122153   7.2175446
  74.7553644  72.7248528   6.9801512  74.7363680  12.8557558  40.7474842
  74.6527880  12.6734133  41.6834297  74.2801111  12.1306534  40.3205242
  66.3420782  77.8176167  35.7614269  66.9736037  78.5038331  35.9770909
  66.1947903  77.3590925  36.5886440   7.7911004  77.9624369  42.2907105
   7.1067914  77.3963835  42.6478424   7.3554572  78.4554746  41.5954724
  32.2155571  76.4791801   0.1518622  32.2750905  76.6155150   1.0974303
  33.1173516  76.3145640  -0.1236400  36.1815041   7.9774256  20.3578034
  36.2601584   7.3519011  19.6375504  36.2092465   8.8352938  19.9340954
   1.3635787  61.9797542  33.4412041   1.2880858  62.5004890  32.6416054
   1.5228423  62.6230838  34.1318550  41.9642878  63.3357620  67.0796061
  41.0273123  63.1404924  67.0661068  42.2824860  62.9273415  67.8846979
  19.1729724  46.3349438  47.8834105  18.5830986  45.7022238  48.2932186
  19.3669903  46.9655609  48.5768890  64.8761368  28.9033318  66.6959143
  64.6714640  27.9781103  66.8312216  65.5627298  28.9017010  66.0289669
  29.6986842  56.8579388  61.3193178  29.3749952  57.5113630  60.6992435
  30.5990410  57.1265793  61.5021372  16.6922968  18.6950703  15.4561367
  16.0586947  17.9882021  15.3332081  17.4121969  18.2900114  15.9397736
  67.8234443  73.8482835  34.4842186  68.5141668  73.3479741  34.9187508
  68.0430421  73.8015249  33.5537186  14.0820902  16.5775557   6.5564623
  14.7686117  16.8587466   5.9516039  13.2646673  16.7683859   6.0964194
  80.3381548  77.5752237  50.3304043  79.8947153  76.7313793  50.2437058
  81.1851081  77.4456789  49.9036446  41.4523554  62.5420475  63.5607100
  42.3261309  62.3856211  63.9188766  41.5925980  63.1715775  62.8534222
  29.3640345  30.9833260  24.3268433  29.8234337  31.8090410  24.1739407
  29.9883144  30.3088208  24.0593662  20.3857439   9.0335388  19.0458431
  20.8167046   9.5660849  18.3773365  20.5932634   9.4713707  19.8713532
  17.4304789  14.3830939  32.3662510  16.6497772  14.5025225  31.8254414
  17.8219860  15.2550574  32.4175587  65.3726229  50.3717723  22.7869644
  65.6665454  50.3674378  21.8760243  64.8425827  51.1651053  22.8638497
  46.0277414  64.6683741  57.4571514  45.5712318  65.4164934  57.0722437
  45.7793188  63.9265537  56.9055939  34.3142050  21.1156149  30.4401722
  34.3812578  21.1472197  31.3944950  33.5140913  20.6176396  30.2726402
  55.2859896   7.3513527   7.0986786  54.8173254   7.9843064   7.6427069
  55.7046908   7.8818150   6.4207974  20.2268999  34.9626131  16.9651928
  20.2874201  34.0181990  17.1088829  19.9469774  35.0487776  16.0538998
  71.4023733  38.7878513  63.7122536  71.1607695  39.5254827  63.1521130
  70.6811428  38.7155485  64.3374205  69.2424068  63.2507660  20.7489338
  68.6409769  62.7125432  21.2635460  69.7468719  62.6208546  20.2341976
   4.9881476  22.3323508  39.1066399   5.4922479  22.8180428  39.7594967
   5.4397982  21.4917012  39.0321388  72.3569829  18.8681813  20.0096073
  72.3104686  19.8153897  20.1394596  71.4590377  18.6106797  19.8007527
  23.3344603  48.1152725  36.7345309  22.5026870  48.5885143  36.7138124
  23.1150055  47.2614384  37.1074057  37.4356907  12.8215571  39.3402233
  36.9081610  12.3100157  39.9536267  37.1587151  12.5184889  38.4755459
  77.2090251  42.7458715  48.3633471  77.9625560  43.1836462  48.7592983
  77.4508763  41.8198586  48.3478880  44.5934889  78.9911082  26.4595642
  45.2481041  79.6029451  26.7962589  43.8253352  79.5346811  26.2843456
  75.1727733  76.5455177  31.6936627  74.9582872  76.3972046  30.7726708
  76.0019407  77.0232918  31.6725483  48.7006664  57.9134941  69.2078495
  48.7156916  57.1022272  69.7156429  47.7773237  58.0436754  68.9916754
  44.3036127  54.2927504  65.9520960  44.5206451  53.5272264  66.4841652
  43.9046907  53.9295721  65.1614046  10.7888039  65.5511215   2.4624720
  10.2244433  65.1582482   3.1283417  10.2053936  66.1183479   1.9583740
  57.7564764  52.4004030  67.0251417  58.3591700  52.0762920  66.3558531
  58.2907152  52.4668121  67.8166056   1.0486167  19.6923943  27.5680485
   1.5223210  20.2700730  28.1664791   0.1374739  19.9792834  27.6292458
  18.8975485  54.5848145  26.2933769  19.7928389  54.5194604  26.6256752
  18.3456715  54.4224122  27.0584240  24.9190434  62.6678636  26.0381355
  24.8289689  62.8735163  26.9686260  24.2128571  63.1565478  25.6153813
  36.0962551  28.3334608   7.7084675  35.7927101  27.4599238   7.9555121
  35.3249853  28.8917513   7.8068867  60.1325035  54.2918682  65.9120655
  60.9954691  54.6824121  66.0499001  59.6685362  54.4391537  66.7362452
  25.9316874  57.1163225  58.6306286  25.7732868  57.6860332  59.3833399
  25.4058266  57.4970293  57.9272366  24.1328716  54.6303797  60.5516195
  24.6092892  53.8747501  60.8955383  24.4181132  55.3624678  61.0983562
  38.1146448  16.5237589  13.6848393  38.3421486  16.7622109  14.5835152
  37.6692885  17.2965451  13.3374253  69.8989591  16.9100707  28.8219929
  70.6142149  17.1073573  28.2172537  69.1283426  17.3117488  28.4206963
  41.2798882  50.1156759  58.3592033  41.5280342  50.4208803  59.2318439
  41.7659807  50.6822586  57.7600956  15.2724922  33.1247401  62.2788143
  15.4381502  33.5549474  63.1176901  15.9256411  32.4264002  62.2346735
  34.7147820  48.4038779   8.7152472  34.2055395  47.7965584   8.1785288
  34.8938433  47.9191568   9.5209828  69.5455608  57.3039951  20.1010170
  69.2001495  56.9748356  20.9308186  70.1998815  57.9547396  20.3552284
  19.5068121  48.2003546  52.5657034  20.0782037  48.9324141  52.3336887
  19.7717488  47.9619503  53.4540749  15.9484976  14.6671267  22.6152745
  16.6665810  14.0759535  22.3892346  15.6072109  14.3245240  23.4413376
   9.5761436  28.7511177  27.3052159   8.6311524  28.6867972  27.1670571
   9.9572056  28.2217379  26.6046562   0.8567899  31.1297722   6.1260166
   0.9032195  30.1748247   6.0796585   0.4661553  31.3093396   6.9812336
  36.0542172  19.1254778   6.6939869  35.2069777  18.6803503   6.7106667
  36.4359015  18.9462347   7.5532999  10.3987511  64.3216016  26.8054238
   9.9332722  63.7828209  26.1656800  11.2804612  64.4139507  26.4444771
  57.0066540  10.3008337   8.8317957  56.8556113  10.1524515   9.7652807
  56.1331259  10.2773161   8.4411183  66.8787131  75.7482722  59.9869385
  66.7987260  76.4969637  60.5779495  65.9912524  75.3946688  59.9268666
  17.7980631  20.3045340  30.0883808  17.9176872  19.5832129  30.7061329
  18.5625141  20.8645983  30.2231922  56.2022989   6.9870014  18.5318604
  56.6718119   6.4762659  17.8723660  56.8353003   7.1027680  19.2404881
  20.4553431  37.1420832  66.7548981  20.7071131  37.5965376  65.9509697
  20.8037394  37.6894779  67.4586144  71.3235850  15.1728220  19.8187103
  71.0034973  14.2785807  19.9375191  71.0890490  15.6211014  20.6312790
  40.5463013  72.3620298  11.1971131  40.7922504  71.4507892  11.0378018
  39.6719620  72.3101332  11.5832081   8.1475967  12.2815151  22.1860352
   8.4547370  11.4672919  21.7873707   8.9384621  12.8106995  22.2896137
  78.8652668  65.9345438   1.1207857  79.2458591  65.9000709   0.2431765
  78.2297191  65.2189186   1.1345091  40.5611523  16.7424720  27.6118064
  41.4168175  17.1530001  27.7364373  40.7538994  15.8090251  27.5236893
   1.2192076  13.0185147  42.1503010   0.6272405  12.8511544  42.8836384
   1.6141646  12.1671267  41.9621887   9.2871960  70.8673074  11.1398354
   8.9057501  70.5684736  10.3143444   8.9195403  70.2798583  11.8001118
   5.7062834  29.2175646  11.8679466   6.2520950  29.0077801  11.1101189
   6.3299912  29.3642397  12.5790825  40.2126330   3.4000941  18.0764523
  39.6425598   3.0095835  18.7388363  41.0562676   3.5026999  18.5168877
  17.2287624   4.8981066  35.0320091  18.0997246   4.9831362  34.6441689
  16.6558378   4.6961851  34.2922726  20.5139327  33.4580946  59.9449968
  19.6525693  33.8384128  59.7728205  21.1288738  34.0550303  59.5186758
  62.3292336  72.3708036  30.0748673  62.0986113  73.1758978  30.5384007
  62.3175845  71.6933920  30.7510319   7.4660834  78.1925919  26.8909397
   6.9153174  77.5863030  26.3956490   6.9026717  78.9489319  27.0544949
  73.3244127  24.6747084  37.0570507  73.7481195  24.0260000  37.6190891
  72.6895971  25.1078673  37.6276818   8.2388585  33.7433882  40.3225556
   7.7053874  33.2853289  39.6730747   8.0583304  33.2880755  41.1449471
  66.1359558  80.3909233  12.3439350  66.7383155  80.1225307  13.0377331
  65.3376350  80.6471708  12.8057232   1.6827773  38.6513734  66.4129782
   1.5761279  38.6960149  65.4627848   2.5787352  38.3389568  66.5390205
  76.8435440  74.2273548  32.0399132  76.4252147  73.5835483  31.4682904
  76.3373384  75.0290515  31.9084969  60.8430624  40.6028461  66.9435310
  60.4607153  39.9369645  67.5150585  60.2966690  41.3770390  67.0788622
  40.0939355  80.5163648   5.8750954  39.2593631  80.1041892   6.0983315
  40.7180938  80.1471736   6.4998808  76.6062126  67.3679068  15.9317627
  76.1266050  66.5812209  16.1912480  76.9871244  67.6958110  16.7463913
  46.4864451   8.8726254   6.0450258  45.6140787   8.6657019   6.3802710
  46.9469816   9.2518015   6.7936030   8.9802941  67.1452835   1.3840618
   8.8998755  67.0192673   0.4386082   8.2076319  66.7145326   1.7496863
  11.0922449  32.2871371  35.3245487  10.8734506  32.4470825  36.2425747
  11.1392468  31.3338442  35.2520981  70.4847354  44.4165535  42.5054302
  71.2936312  44.2160149  42.0345822  70.4350907  45.3724499  42.4999275
  76.3938007  38.8562311  10.1910343  77.2321233  38.4895956  10.4721489
  76.6212854  39.6964835   9.7929659  46.2587309  54.9465179  60.7823753
  45.8244228  55.5099583  61.4228010  45.9369612  54.0669537  60.9800148
  74.2473459  39.5486856  60.9323168  74.5815897  40.4106331  60.6842089
  74.9820518  38.9541650  60.7807016  50.6210336  74.3607738  22.0087280
  51.4780841  74.6301963  21.6784134  50.6209120  73.4072664  21.9247475
  28.8360643  27.1594572  69.4257498  28.0263424  26.9928575  68.9432335
  28.8804650  28.1129575  69.4971561  12.6480969  75.7740953   3.4315148
  13.4088381  76.2364318   3.7833014  12.7337273  74.8818257   3.7673035
  56.9349211  30.0301047  31.3092747  57.0640963  29.0816708  31.3054409
  56.3792246  30.1930590  32.0714321  78.7745676  58.5374298   5.6019917
  78.0697260  58.9629557   5.1137772  78.3592901  57.7765098   6.0079136
  62.1102703  39.9358387  12.1024456  62.7252269  40.4843159  12.5895157
  61.8239564  40.4862042  11.3734951   7.5410312  16.3842507   6.4793196
   8.0516379  15.8191176   7.0590964   7.1335047  15.7825680   5.8563175
  30.9674614  23.7114687  16.2534085  31.4842671  24.5099850  16.1461010
  31.5899580  23.0666371  16.5894451  66.2717522  16.6787691  35.7389107
  66.8079609  16.5461655  34.9571648  66.9001586  16.6929169  36.4608040
  65.3687415  70.2803709   3.1728544  65.9040436  71.0667946   3.2787934
  65.7271204  69.8494341   2.3969116  71.1615867  50.1859303  24.6100083
  70.4619056  50.6560726  24.1565266  71.5179426  49.5916672  23.9496365
  38.2724007  59.7697690  17.1621075  37.6295289  60.4664042  17.0292797
  38.6806782  59.9776878  18.0025330  64.0098638   9.2238159  52.9090824
  64.3462390   9.0347214  53.7850514  63.0594224   9.1516657  52.9967537
  45.2686024  68.0905724  22.5489235  44.6550894  68.4948111  23.1624579
  44.7145462  67.7440739  21.8495059  60.1026362  21.4833803  11.3832226
  59.4217508  20.8926316  11.0613003  60.7457655  20.9060068  11.7946377
  84.7335095  52.5435372   0.6950703  84.0632362  53.1767769   0.9519425
  84.8611755  52.6964112  -0.2411804  21.5976732  44.3659516   6.2678423
  21.2092035  43.5883065   5.8671131  22.0397823  44.8121186   5.5455485
  34.6468847  57.7836628   1.9547310  35.2807062  58.0159683   1.2761059
  34.3021505  58.6235161   2.2580948   6.2773841  28.5780306   6.4657726
   6.8475144  29.3074103   6.2224760   6.4666336  27.8995724   5.8176127
  72.3768706  21.9865866  16.7332974  73.0624670  22.4105854  17.2494545
  71.7276544  21.7089243  17.3795643   8.2411288  52.2261810  62.1271515
   7.4423217  52.3943996  62.6269913   7.9893683  51.5561295  61.4916372
  37.5631445  32.6960869  16.4421883  37.6813477  32.1470995  17.2173443
  38.3606690  32.5622816  15.9300556  61.3074034   5.1637717   7.1496620
  61.5292566   5.1875468   8.0804959  60.5733507   4.5519753   7.0939484
  52.7247446  46.2952633   9.4230595  52.9752081  46.0644169   8.5285177
  51.8554991  45.9104748   9.5352640  78.3534736  67.5667591   4.5620718
  77.6237578  67.2697563   4.0184345  78.0157608  67.5303574   5.4569760
   4.4225925   6.4146490  12.9426041   5.0845020   7.0662899  13.1738510
   4.7991269   5.9443112  12.1988049  17.7388572  65.7031488  51.4019394
  17.1411990  64.9685001  51.5409613  18.0257033  65.6099558  50.4934978
  76.6707945  63.3964109  56.9787121  75.7834768  63.2784176  56.6396284
  76.6085052  64.1604376  57.5519657   2.9691356  23.0635090  22.2623673
   2.6590436  22.6922722  23.0883541   2.4611896  22.6094313  21.5900364
  40.0045919  73.8114834  17.7205718  40.9594345  73.8750458  17.6990795
  39.8257041  73.0996418  18.3349931  37.6109856  38.1623097   4.7532358
  38.1244534  38.6988087   5.3571787  36.7422503  38.1168862   5.1525679
  16.2510555  31.9714995  14.6586075  15.7106989  31.8991776  15.4453793
  17.1511286  31.9271250  14.9813023  67.5701380  57.1366596  65.2588320
  68.0395937  57.6180363  64.5775700  67.7325201  57.6353025  66.0595942
  51.9707211  72.7237728  27.6907196  51.7329796  73.1736042  26.8799439
  52.5768002  72.0363572  27.4143734  82.1448431  70.0225761  15.0093117
  82.3026189  70.9222629  14.7231331  81.3418922  69.7645690  14.5566216
  56.7366791  58.1861115  68.8272524  56.0338688  57.6751614  68.4257364
  57.2995377  58.4363413  68.0945826  85.6705246  78.5632803  11.6537132
  84.9916372  79.1880133  11.9087639  85.2851066  78.0742910  10.9266892
  52.8084200  22.5465174  23.4038487  52.1157473  21.9826384  23.7480488
  52.4517458  22.8916331  22.5853768  16.1363571   6.6563101  12.3150673
  16.9762962   7.0660563  12.1080914  15.8522528   7.0865603  13.1215420
  77.5159663  32.0651884  36.2646618  78.0750150  31.5478106  35.6849900
  76.6586358  32.0588179  35.8390179   6.8962473  62.6001358  63.7988281
   6.6810888  63.4545517  63.4247732   6.5785027  62.6465654  64.7005558
  71.0419464  29.0036726  65.5072355  70.5916119  29.7667027  65.1449966
  70.9121323  28.3163762  64.8537779  55.3590584  70.5632496  63.7024355
  56.1700964  70.1125765  63.4671831  54.9505186  69.9955988  64.3559647
   6.1309188  34.0828915  46.7521134   5.5070036  34.7672529  46.9942227
   6.2491410  33.5723133  47.5530949  28.9241433  44.8761320  64.8284960
  28.3141255  44.7514820  64.1014671  29.7883964  44.8851347  64.4171333
  42.2852152  37.0633049  16.4276352  42.1634882  36.7893334  17.3366776
  43.1903427  37.3724098  16.3898030  25.1648539  13.2619734  17.9884758
  24.2093914  13.2704850  17.9314842  25.4528015  12.9372807  17.1353092
  32.4091023  27.3742981  33.5670796  31.7202442  27.8252478  34.0552845
  33.1510418  27.3452730  34.1711560  24.9169844  13.5580082   8.7310209
  25.7063072  13.0371352   8.8789788  25.2427500  14.4375868   8.5400858
  14.9339216  12.2304077   1.1158314  15.2418869  12.3889847   2.0081558
  14.5751923  11.3433094   1.1403599   0.3622435  73.7462568  61.2767649
   0.8666514  73.2311916  60.6470680   0.5658339  74.6560335  61.0597706
  69.7775602  55.4140091  55.3494740  68.9141560  55.3559828  54.9403286
  69.8542690  54.6092749  55.8620644  -0.3196559  64.8796231  54.3080902
  -0.0368366  63.9669950  54.3660164   0.4929724  65.3767211  54.2144823
  40.7690541  72.3369701  64.0951300  40.2477030  72.5471354  63.3203697
  41.3404671  73.0958951  64.2123985  43.5664472  49.8579010   8.3106032
  44.3512091  50.4026511   8.3708372  42.9648265  50.2325996   8.9539423
   9.0769210  64.7302265  68.3355904   9.3060747  64.3498380  67.4876356
   9.0634981  63.9852805  68.9365101  61.9895563  69.2114642  46.9612732
  62.9260358  69.2038419  47.1592179  61.5644583  69.0836837  47.8093281
  10.7426318  28.4839644  31.9414559  11.3491019  28.0968573  32.5727787
  10.9596785  28.0611720  31.1105671   2.7739277  74.1217090  66.9189024
   2.1369424  74.6005655  66.3886404   3.2537427  73.5837884  66.2891006
  30.1335096  31.3274479  36.1138153  30.6112719  31.9731641  35.5932140
  29.2138410  31.4749718  35.8931828  14.2110052  73.2771785  31.7752743
  14.3791571  73.9597566  32.4249220  14.6193209  73.6038000  30.9735084
  42.2315094  42.8608316   2.9828873  42.1461889  42.2846484   3.7424698
  43.1314871  43.1838053   3.0271425  78.0239240  70.9506155  55.2312803
  77.7380673  71.2224455  56.1034203  78.9796773  70.9446127  55.2835417
  35.1887298  30.1951599  68.5007954  35.0408673  30.7642865  69.2560863
  34.5568895  29.4843388  68.6091805   4.5420845  77.2215989  39.5839634
   3.8152607  77.7892139  39.3275013   4.1967734  76.7042758  40.3115406
  75.5020956  78.0972307  69.0353012  74.9537841  78.6503207  68.4788132
  74.9869505  77.3006699  69.1631556  47.4326515  48.3488989  16.1122382
  48.0440855  47.8759623  16.6767871  47.7327681  49.2573452  16.1421299
  53.8236141   0.5700058  59.3077707  53.7515879  -0.3246862  58.9752483
  53.1520510   0.6277198  59.9874067  85.1513776  54.7643795  11.1364498
  84.7603140  55.2441254  10.4062882  85.6510744  55.4246547  11.6166249
  64.2877969  71.5624883  16.2996903  65.0439367  71.1865380  16.7504158
  64.0244445  72.3009636  16.8488159  77.9831139  73.7735463  64.4011211
  77.4057189  73.0561108  64.6621466  78.1254522  74.2714430  65.2061510
  82.1074839   8.1100452  55.4213810  81.4789725   8.4536141  54.7864246
  82.9140605   7.9913205  54.9198103  17.3313582  29.2774725  63.6217928
  17.2856796  28.7828898  64.4400406  17.3920000  30.1920128  63.8977766
  41.1329934  61.7945554  15.6596413  41.4588556  62.1981909  16.4640846
  41.2229893  60.8535840  15.8103314  67.3125825  53.3762708  16.2346306
  67.6250372  53.3583453  17.1392193  68.0573711  53.0689456  15.7178345
  42.1960831   7.1115983  45.4645634  42.3707724   7.5757343  46.2832737
  41.2943983   7.3454821  45.2443409  49.0067825  68.0049160  23.4878006
  49.6971378  67.5509217  23.9710560  49.0645370  68.9132335  23.7842121
  17.9600906  15.9001207  47.1159506  17.9290473  14.9784493  47.3724413
  18.8937652  16.1086917  47.0845938   4.1921814  45.5647173  14.3572750
   4.9219855  45.1597595  13.8886299   4.5459755  45.7658138  15.2236595
  32.9163694   1.6131847  53.1198311  33.3469820   1.7457002  53.9643669
  32.4207687   0.8015075  53.2284260  21.3237214  19.7326112  38.7292385
  21.8699646  19.5144212  39.4843841  21.8975711  19.6053445  37.9737687
  71.5516583  72.5854988  68.9379025  70.7791714  72.2867204  69.4177198
  71.1995057  72.9902858  68.1452036  12.4949610  12.2253954  51.7706585
  12.9491782  11.3921118  51.8953800  11.7392850  12.1762407  52.3561192
   6.7324200  76.7247964  64.7725868   7.6126662  76.5637577  64.4327927
   6.6704169  76.1695466  65.5498171  80.3760163  75.2317477  39.8463130
  79.5021788  75.2910680  39.4601464  80.8538882  75.9720392  39.4723630
   4.9783984  65.5940516  35.1504707   5.6305495  65.5192144  34.4538164
   4.3347564  66.2155206  34.8102760  32.1997619  36.6280556  57.6404095
  32.7735734  37.2248578  58.1208277  32.1543884  36.9974351  56.7585230
  22.8243113  11.1673474  62.9891157  23.0373907  10.8543825  63.8682508
  22.2964239  11.9522548  63.1357002  84.9743054  28.6689377  49.1289425
  84.6070152  28.4003973  48.2867908  85.8734211  28.9275360  48.9265776
  64.4150219  43.3918410  22.2076359  65.1712618  43.0276429  21.7475357
  64.7905717  44.0135851  22.8310337  33.7461391  10.1329758   7.5752058
  33.5259095   9.2019346   7.6051417  33.1153062  10.5086901   6.9611063
  29.0527892  38.6146617  49.9669743  28.6907339  39.4855976  49.8038292
  28.9078856  38.1380725  49.1496038  37.4847183  51.0599842  23.0595341
  38.1838981  50.9420636  22.4165192  37.8103951  50.6283035  23.8493576
  29.2561102   6.3148683  55.8945084  29.1978645   5.3856343  56.1166859
  30.1181865   6.5834993  56.2121487  64.2863545  23.6054018   5.8570423
  64.0705165  24.2829802   6.4977732  63.6706457  22.8961840   6.0418263
  45.5356598  16.8082488  49.4001722  45.1756287  17.3983908  50.0622463
  45.0903320  17.0568264  48.5901594  62.7105984  30.2028038   6.2780323
  62.4403867  31.0301092   5.8795538  61.8982086  29.7052469   6.3712492
  82.8269062  32.9898133  51.1432591  81.9463787  32.7761611  50.8346215
  82.9750404  33.8864663  50.8427563  24.3698692  11.4986408  23.3881330
  24.1095185  10.7354760  23.9039111  23.8293743  11.4505160  22.5996017
  33.1516027  38.8876843  47.8051424  32.3227096  38.5784078  47.4397421
  33.8221598  38.4739017  47.2616673  35.4292250  14.4943666  60.3480911
  35.6906819  13.5739052  60.3730679  34.4809079  14.4775701  60.4771042
  79.8766718  42.6831316   2.3495617  79.1172895  42.1120993   2.4657192
  80.5103788  42.3735293   2.9967013  38.0600801  43.0446749  23.8951817
  37.2148076  43.4893679  23.8319817  38.0544123  42.4158003  23.1735745
  70.9703541  41.9659472  54.2336178  71.7263031  42.5379944  54.1011810
  70.6398869  41.7975807  53.3511925  22.6773804  11.5966482  39.8799172
  22.6010006  10.7898827  39.3704739  21.8506783  11.6567869  40.3586426
  49.8915863  12.1340203  43.5987473  49.2188215  12.4350643  42.9880190
  49.4006968  11.7686808  44.3348074  32.2039676  24.8911142  66.8810987
  31.6406965  25.6363153  66.6722107  31.8800259  24.1826820  66.3248491
  67.0252905  70.8458045  23.1071797  67.1610555  70.0062754  22.6678696
  66.9066677  71.4729693  22.3938599  57.4774386  78.6821526  40.5061817
  57.2886963  78.8662226  39.5860028  57.8666721  77.8076825  40.5005646
  79.3716440  46.8880399  29.6499195  79.3200645  47.6031085  30.2841416
  79.6635589  46.1340466  30.1622715  66.1641655  55.0030198  30.1293221
  65.5712709  55.6537058  30.5052414  65.9372983  54.9810615  29.1996517
  34.6440523   9.6032877   4.2460957  35.2299564   8.8608856   4.0984955
  34.1653126   9.3758078   5.0431481   0.6417092  59.6521690  12.5406208
   1.4735087  59.7459950  13.0048886   0.2814396  60.5385568  12.5131455
  29.9043465  27.0851398  35.9376788  30.5607772  27.6603341  36.3307190
  29.0937519  27.2945714  36.4016914  39.9368024  16.6613829  62.4667263
  40.6174564  17.0393872  61.9098949  40.0603580  15.7155132  62.3873758
  70.3584585  24.6220329  18.4574738  69.8752937  23.9787545  17.9388466
  70.7316026  25.2201714  17.8100052  -0.0244991  41.0734461  14.8402825
   0.2859124  40.5665207  14.0900173   0.5961617  41.7985451  14.9127236
   4.8207625  77.4008372   1.9642296   4.1371830  78.0708292   1.9560614
   4.4305142  76.6549351   1.5086355  19.1716838  11.1676860  69.4157743
  19.1350317  12.1188736  69.3151236  20.0573134  10.9315848  69.1398191
  64.4314146   3.0999699  49.7359419  65.1788282   3.5732320  50.1014900
  64.2182541   3.5733348  48.9317513  83.1694278   2.4202063   9.5756426
  82.2414026   2.6488020   9.5232907  83.1759605   1.4697697   9.6890297
  61.6263542  66.1708405  24.4778862  61.9418249  65.4460599  25.0177040
  61.6425762  65.8285453  23.5841217  51.4871979   2.3327681  58.0464363
  51.8507051   1.5779629  57.5834417  51.3896322   2.0347723  58.9508200
  67.7455411   2.5303032   6.0764971  68.2472477   3.1634309   6.5899840
  68.4073743   2.0357707   5.5931273  26.8683863  18.3184934  57.3009348
  27.3437858  18.5378242  56.4996099  26.8322396  17.3619807  57.3037815
   8.1401506  71.0200215  57.0375443   8.9397970  70.9735573  57.5616074
   7.7634302  70.1420862  57.0970631  35.6874394  34.3915129  47.9323292
  35.9938502  33.6626077  47.3928499  35.1918769  34.9446678  47.3284483
  30.8172026  68.8241906  62.5731850  30.7525244  69.4373936  61.8410444
  31.3389292  68.0978603  62.2318983  36.7944687  22.0651455   2.1706095
  36.8973892  21.2323017   2.6310578  35.8476513  22.1980734   2.1247759
  81.4072005  79.3150806  65.8902979  82.2930805  79.2899206  65.5286169
  80.9438221  79.9507981  65.3449774  60.7262311  44.8919618   4.4207278
  60.0389084  44.5933258   5.0162401  60.5577073  45.8277419   4.3105116
  23.0367473  73.0229881  21.0386982  22.0819292  73.0146649  20.9717312
  23.3351216  73.3025887  20.1732388  77.6163492  37.7813726  19.6903649
  76.9771251  38.4783932  19.5427456  78.4092149  38.2388436  19.9702015
  64.3360219  59.4224789  11.3539067  64.0318236  59.7586932  12.1969071
  63.6724672  58.7818184  11.0980168  46.2174940   9.6110767  49.2579269
  46.2440491   9.2155606  48.3866692  46.8350077  10.3407872  49.2086267
   8.5968018  18.2147527  61.7331028   9.1910291  18.7111187  62.2959089
   7.8272998  18.7767959  61.6425228  21.8749397   9.3603630   0.6789437
  22.7328222   9.1220541   0.3275528  21.2527865   8.8568278   0.1539602
  45.8450794   8.2907945  46.7874146  45.1025200   7.7629131  46.4938593
  46.3281918   8.4913003  45.9857702  72.3951960   5.2931011  36.7435551
  71.7063475   4.7234729  37.0859623  73.0909920   5.2483672  37.3993707
  41.4093876  18.7123597  40.2580214  40.7605267  18.3000505  40.8282948
  42.1439457  18.9140892  40.8376408  45.2512693  35.7508445  68.3880091
  45.5211353  34.9898696  68.9021301  44.4686508  35.4588079  67.9206228
  31.4913750  11.7202497  55.7867908  32.4276209  11.8924272  55.6866407
  31.1629510  12.4663782  56.2884474  10.3519106   3.5109878  57.5699472
  10.2496636   2.5612518  57.6314211  10.2678359   3.7009537  56.6355610
  25.2070618  26.0936117  62.9387426  25.5363536  26.7444277  62.3188734
  24.3107033  25.9206915  62.6508713  69.8550186  80.4012563  24.7214546
  69.2820224  79.8530176  25.2574959  70.5810794  80.6285360  25.3023281
  64.9062929  69.9790806  67.9254007  64.8716948  69.3452186  67.2089863
  63.9915351  70.2130706  68.0825615  36.8877673  15.8430934  51.9757938
  37.0023537  15.7066560  52.9162645  36.5855622  14.9968159  51.6460705
  26.6012859  18.3478749  43.8408184  25.9762430  17.9920161  44.4724226
  26.9051194  19.1639209  44.2382956  76.3915710  68.1677754  57.3287201
  75.7656960  67.5797314  56.9059658  76.2202529  68.0668528  58.2650375
  13.2245576  25.7282519  68.4004402  13.2788849  25.5169606  67.4684334
  14.1219950  25.9504533  68.6483669  43.5674000  15.5161572  64.7344828
  44.2363739  16.0998321  65.0923014  42.7469730  15.9971464  64.8430252
  33.2054281   2.9948932  48.2133579  33.7830138   3.7557298  48.2746363
  32.8262377   2.9109633  49.0882301  13.3192578  42.3538596  27.7395988
  12.7719489  42.3838098  26.9548774  14.1017428  41.8742616  27.4676991
  26.1582279   8.4258795  58.1798649  26.0001683   9.3587273  58.3249331
  25.3605652   7.9968113  58.4894943  76.9025764  44.3043142  25.8763161
  77.3604927  44.9090623  25.2925148  76.2808427  43.8483688  25.3090515
  25.7428622  22.6993871  64.3107462  26.6707516  22.8226852  64.1106129
  25.7376742  22.2556162  65.1588440   7.5343665  10.2179863  18.9685860
   8.2614907  10.7467344  18.6400261   7.7195748   9.3335273  18.6528912
  76.4426142   4.0288706  13.8540306  76.1491102   4.0245314  12.9429474
  76.8127341   3.1567498  13.9905873  72.0492006   1.6737394  39.0976691
  72.2484232   0.8236995  38.7052727  72.8411592   1.9050197  39.5829940
  17.6470335  46.6629806  11.8159905  18.2286032  47.2624674  11.3484230
  17.3978432  46.0112270  11.1607399  33.4530091   1.4068188  56.0013676
  33.8369393   0.5309334  55.9607124  33.9007187   1.8308328  56.7334843
  29.0663995  70.5106332  17.4523487  28.7898854  71.0986807  16.7495194
  29.6899915  71.0257699  17.9642143   3.9224186  73.4779609  69.1964960
   3.1206575  73.6897070  69.6745920   3.8611880  73.9876003  68.3885670
  52.3842478  15.4941201  66.8583298  53.3301497  15.3892016  66.9607496
  52.2890902  16.1233389  66.1433077  10.7527459   9.1307199  42.0238781
   9.9397850   9.1911417  41.5222025  10.4782212   8.8272190  42.8891850
  40.8583212  28.0352306  70.0521421  40.4938841  28.4642291  69.2779446
  40.7784462  27.0994449  69.8673296  37.9511166  10.4845190  60.2862072
  38.3970642  11.1884284  60.7572412  38.5045767  10.3189003  59.5230007
  59.4732523   3.4795618  60.4294968  59.3647146   2.9843733  59.6175623
  60.4203558   3.5823202  60.5225849  59.9678001  37.7170365   2.3843708
  59.0615663  38.0143445   2.4655047  60.4885015  38.5184214   2.4380770
  70.9648332  40.0837570  21.7606869  71.3088092  40.2123210  20.8767262
  71.7243728  39.8123758  22.2761288  17.7397943  57.4741840  45.6216908
  17.1445155  57.1203899  44.9608564  17.8307164  56.7700529  46.2636900
  21.7004689  77.8073981   8.7759581  21.1524685  77.1867421   8.2956352
  22.5922307  77.4797060   8.6592808  22.2387767   8.8863039  42.8957653
  22.3250914   8.0904984  42.3709059  23.0891895   8.9841419  43.3240795
  38.2156181  13.9812517  35.7075882  37.7018404  14.7742414  35.5545139
  37.5770569  13.3376992  36.0146904  26.1806369  25.5059624  56.1310863
  26.5833664  26.3731670  56.0864258  25.5616236  25.4914737  55.4011250
  72.8060875  30.1912858   3.4124985  72.1950540  30.6028738   4.0236178
  72.3453006  30.1959028   2.5735178  55.3307471  19.2256262  10.9048310
  54.8172745  19.8438504  10.3848591  55.6485853  19.7418239  11.6456070
  72.0998630   9.9572041   3.7854710  71.6853580  10.6145027   3.2265654
  72.8736171  10.3964760   4.1384211  31.6083574  50.7962036  63.0453825
  31.8837619  51.0839224  62.1749783  32.3561144  50.3026152  63.3822203
  42.3235736  77.8259923  23.4300175  42.8846452  78.0232980  22.6800194
  42.9320345  77.5734522  24.1244545  45.1620007  21.0339808  63.6145067
  45.0909996  21.6988397  62.9295588  46.0651302  21.1042166  63.9237785
  26.9304442   5.5647892  63.4388494  27.7050757   6.0780740  63.6684513
  27.1842051   4.6580738  63.6111975  61.9159851  50.4713705   9.3485298
  61.0443172  50.8272722   9.1760197  62.5170073  51.1382534   9.0164557
  17.0926111   3.5367365  12.1717587  17.7775972   4.1757317  11.9750061
  16.6891449   3.8586779  12.9778614   2.7500542  60.7027175  14.2566624
   2.1268662  61.3354948  14.6136799   3.4937533  61.2336590  13.9716187
  54.8059797  30.0018334  63.6251974  54.5402193  30.5803633  62.9104185
  55.1632452  30.5908036  64.2898083  69.1991663   3.6899129  57.2875929
  69.8948956   3.1637356  56.8934774  68.4208822   3.4845507  56.7695808
  70.0038299  44.2615321  32.4778500  70.3242120  44.1461667  31.5832653
  70.6124839  43.7566998  33.0172100  62.4753237  19.5262051  67.6289272
  63.1904221  18.9814615  67.9577398  61.8034410  18.9009786  67.3570776
  80.5422775  76.1871488  61.2326431  81.4858071  76.3440154  61.1955404
  80.3036324  75.9491507  60.3367424  12.7884682  78.8898423  37.3992291
  13.6621150  78.8379362  37.0115795  12.3153313  79.5074704  36.8416443
  10.4383557   2.1237059   3.5201731  10.1682489   3.0069275   3.2687941
   9.7044080   1.7857285   4.0333262  66.6529369   5.2187973  33.1629395
  67.0022726   4.4136319  32.7809620  65.7028723   5.1226866  33.0968475
  23.9416075   3.5173249  48.3275557  23.0544901   3.4179685  47.9820347
  23.8483834   4.1350248  49.0528059  53.8287530  36.9101363  18.5649433
  53.5812864  36.9329282  17.6405659  54.5003447  37.5868824  18.6498490
  52.5702477   6.2763464  48.1258821  53.2433748   6.3259220  47.4471474
  52.0154810   5.5430472  47.8599119  56.8832064   7.6310635  55.9392023
  55.9853077   7.5785899  55.6117058  57.1171474   6.7255282  56.1429405
  84.6185550  31.7352566   8.2125178  84.7989568  31.3352480   9.0632143
  83.6768350  31.9063696   8.2231846  14.0225285  14.1967984  24.7932663
  14.4791525  13.9012308  25.5808964  13.2658117  14.6815844  25.1228085
  72.9455242  36.0322281   4.0752115  72.6102171  35.2272590   3.6804667
  72.8037176  35.9154334   5.0146141   3.3261388   0.9436007  21.5997544
   4.1609877   1.2912722  21.9134083   3.2147806   1.3337202  20.7327786
   0.8491149  68.6625368  66.6847181   1.0896340  68.7288208  65.7606030
   1.3411823  69.3641181  67.1111965  34.0684366  17.1865821  51.9447660
  34.9190545  16.7549968  51.8646574  33.9043236  17.2193992  52.8872204
  82.5350723   7.6756432  17.1565285  82.2779235   6.7582133  17.0647278
  82.2479400   8.0875614  16.3415947  72.9038152  55.7409062  35.3752270
  72.5634727  55.5033340  36.2377587  73.7111339  55.2340271  35.2883663
  34.1657233   5.9698772  34.6176076  34.6476603   5.1533401  34.7488880
  34.0383339   6.0231757  33.6704206  70.6323671  31.3021755  68.2063150
  69.8435211  30.7629538  68.2628679  70.3784275  32.0408058  67.6529884
  32.0488191  14.3146706  58.8403749  31.7254400  14.1228366  57.9601192
  31.9875979  15.2669287  58.9157915  50.6670675  60.4532649  19.9203816
  51.0847268  61.3131978  19.8723545  49.9865040  60.5543735  20.5858460
  24.2800227  67.3597891  41.4038181  24.3222132  67.4307937  42.3574495
  23.8799229  66.5048904  41.2447643  30.0503469   9.1638237  65.9520054
  30.2203751   8.9908081  66.8779564  30.8934999   9.4537413  65.6037569
  16.4438260  34.1318679  64.6926737  16.6675031  34.9908471  65.0509405
  15.8884478  33.7307644  65.3611803  43.1938026  47.4776813  22.9991951
  44.0749964  47.7965947  23.1941929  43.3273658  46.5856137  22.6788655
  84.1890756  55.2925737  63.3987331  84.6244589  54.9600632  64.1836596
  84.8362915  55.1844365  62.7018452  76.5824613  47.1587988   2.4579516
  76.7165718  46.2388047   2.6856795  75.7332048  47.3789515   2.8407421
  30.3384009  43.8182814  39.0379190  30.4058447  43.0001242  39.5301628
  30.8294478  44.4529397  39.5597553  80.2789936   9.8188736  16.3585129
  80.8049163   9.0366914  16.1916962  79.6530351   9.5478704  17.0300522
  32.8229618  37.9641151  37.6098132  33.0031991  37.2878695  38.2628369
  33.6874294  38.2352877  37.3009562  18.3871611  65.7799413  30.8227196
  18.1716546  64.9932268  30.3218498  18.7636860  65.4490497  31.6381779
  19.9914193  43.1901455  58.1066179  20.2363062  43.7522697  58.8416576
  19.3238652  42.6049709  58.4646320  42.1331310  20.5602336  64.3100119
  41.5279913  21.2062621  64.6742725  42.8776693  20.5635738  64.9115801
  53.8651523  70.1730969  24.2982903  54.1243538  69.5981290  23.5782566
  53.9524350  71.0572555  23.9420929  50.5668888  57.8400292  19.9893894
  50.4136142  58.7843552  20.0208035  49.7529730  57.4767556  19.6403828
  46.7107818  65.3241136  17.5104275  46.6543445  65.5211785  18.4454193
  47.2853443  66.0031249  17.1567955   3.2422608  27.4246621  55.3418827
   3.1151077  26.8328428  54.6003914   2.3603454  27.7231336  55.5640793
  64.1184220  77.1352794  13.0134144  63.6736593  76.4096811  12.5753250
  63.6028776  77.9075696  12.7810040  83.9944476   3.1342287   7.0713463
  83.7759275   2.8004093   7.9414263  84.8725456   3.5023566   7.1696224
  39.0071249  13.1854749  50.6573248  38.1832290  13.4039974  51.0928440
  39.6840644  13.5412228  51.2330198  39.4363809   4.5104176  67.9623413
  38.8335681   5.2539515  67.9595089  38.9607120   3.8147083  67.5085115
   1.9626001   1.5187101  44.8384857   1.6731685   1.2508278  43.9663029
   2.9176494   1.5398197  44.7779274  55.5325413  18.3745587  46.5996695
  55.4635143  18.4656906  47.5500154  54.6513510  18.1287956  46.3179970
  44.2486706  79.1014867  66.7150402  43.7902441  79.1284704  65.8751917
  44.0872088  79.9611665  67.1037722  71.6690693  72.7047398  16.3630619
  71.3215456  71.8301990  16.5381088  72.1256313  72.9467370  17.1688023
  63.8390146  75.1294208  62.1352959  63.1465415  74.5970071  62.5267649
  63.3749632  75.8491389  61.7076349  11.3381448  69.7623784  62.6680326
  11.3299885  69.2619891  61.8520832  11.1918178  70.6680793  62.3950386
  69.1658974  19.7277308  67.8031254  68.2547998  19.4342709  67.7997923
  69.3285656  20.0141454  66.9043827  52.2750473   4.9389046  57.5762320
  52.1779633   3.9898092  57.6538515  51.5937090   5.1994693  56.9564581
  46.6314507   3.7488666  58.6910677  45.6981039   3.5696834  58.5770988
  47.0700455   3.0695006  58.1788921  43.1236896  41.0752409   0.4624882
  43.2294438  41.7910989   1.0890618  43.5013089  41.4108226  -0.3505430
  19.5186337  76.3816764  14.0024319  18.7765606  76.8036082  13.5693875
  20.1942118  76.3323643  13.3261242  72.9965591   5.9883410  68.0504370
  72.1923161   5.4741639  67.9793978  72.7343941   6.7791742  68.5216951
  74.2867288  39.3215888  16.4975586  73.9130792  39.3569948  15.6170120
  74.8290310  38.5328288  16.4960900  36.1226964   2.3837693  36.7995501
  35.2847958   2.7294111  37.1072650  36.3027358   2.8721088  35.9962201
  52.7000222  74.7561409  13.4459820  52.8612647  74.6382549  14.3821087
  52.2628626  73.9489582  13.1747284   3.5599246  59.3848331  52.3359442
   4.4129792  59.6863086  52.6484203   3.6562887  58.4359724  52.2546434
  35.7227802  36.1463165  58.2960510  36.4254999  36.7338800  58.0182266
  35.3540421  35.8107662  57.4789429  82.9199640  51.9272358  24.5079470
  82.4749271  51.6232164  23.7169051  83.5088436  52.6168091  24.2014432
  29.0819731  63.6608321  41.7445087  28.2250634  63.2346077  41.7278814
  29.2283812  63.9396352  40.8405924  84.3088135  38.1950426  18.9598453
  83.6004890  38.7902379  18.7143874  84.2411453  37.4721098  18.3361292
  28.6600852  28.8539767  59.7713947  27.9835916  28.2264423  59.5168638
  29.4849682  28.4079194  59.5794773  76.8607680  70.4414661  68.9755535
  77.6266614  70.1088662  68.5075617  76.4109687  69.6561892  69.2874098
  77.6766101  78.1135898  60.2755499  78.1792847  77.5834019  59.6571255
  77.5295774  78.9410428  59.8173666  38.8610754  12.3347404  14.0793743
  39.6111664  11.8812945  14.4640579  39.2281613  12.8215864  13.3414974
  42.2209406  14.3043590  62.5605536  42.9079247  14.0355122  61.9506311
  42.6909828  14.7254622  63.2802486  85.1076469  42.9406040  18.7393608
  85.6617698  43.7039133  18.5764542  84.2156705  43.2574161  18.5970822
  46.7947504  36.5267968  11.8171540  47.2790167  36.4551165  10.9946099
  46.3195774  37.3544987  11.7439881  20.8736475  46.3389047  12.4352780
  21.0885008  47.2143742  12.7571907  20.1741084  46.4830282  11.7980232
  30.0636744   0.9075507  57.9916239  30.7190180   1.2743086  58.5851240
  30.3150034   1.2324576  57.1270418  35.1416874  48.2823420  53.3527136
  35.0778389  47.3332119  53.4590530  34.8298907  48.6381006  54.1848516
  51.4772606   0.1898828  18.7046146  50.9988594   0.8580940  19.1953909
  50.9349442  -0.5954384  18.7780857  71.5937042   6.6999066  41.0730457
  71.5600729   7.3452640  40.3669214  70.6759405   6.5164566  41.2737703
  74.2303333  65.6733253   4.9542418  73.7134990  64.8686507   4.9141016
  73.8970575  66.2082341   4.2338028   3.7325438  41.4278287   1.1745873
   4.2140444  42.2545783   1.2041464   2.8636130  41.6445091   1.5125790
  44.4814816  72.0619411  43.0901623  43.8575163  72.0002306  42.3669147
  44.0599528  71.5936745  43.8107681   9.7007889  30.0919652  55.9040165
   9.1349727  30.8181977  56.1660719  10.0032628  30.3283429  55.0271654
  59.3982968  63.5485198  24.2637863  60.2597794  63.4235337  23.8657227
  59.3514213  64.4875433  24.4434300  35.6190399  57.0296707  13.7379875
  36.2685910  57.5068762  14.2543164  36.0987213  56.2819233  13.3816090
  61.8629265  61.7457104  59.7460270  61.4845085  61.0595036  60.2957153
  61.3116932  62.5117731  59.9057913  79.0781034  47.4899626  64.0907669
  78.6740864  48.0468559  63.4252834  79.3335737  46.6981173  63.6175346
  50.0131607  67.4881077  58.5525036  50.3019142  66.7708635  57.9882193
  50.7866955  67.7121162  59.0698910  81.4042577  73.1896331  16.2367192
  81.3170871  74.1428187  16.2449780  81.9448290  73.0051997  15.4686108
  52.0310626  66.2208273  13.6288491  51.5105900  65.9246662  12.8821030
  52.5891909  65.4733446  13.8433113  45.9004116  61.8569231  45.8571672
  45.6636333  61.5644932  44.9770260  46.2805891  62.7256489  45.7267332
  21.2420845  40.5958891  59.4011593  21.7059851  41.2988138  58.9462662
  21.8961573  39.9046278  59.5040035  19.0042368  59.9630072  12.7993813
  18.3336172  60.2691355  13.4099426  19.8105142  60.3830841  13.0988636
  55.7828283  27.3660016  63.6128759  55.6311846  28.3071327  63.6995125
  55.0091839  26.9615984  64.0055132  45.6061125  23.7204623  56.1697865
  44.8404598  24.0497661  56.6404963  46.2864113  23.6489177  56.8393469
  75.0225839  49.0169408  16.0685482  74.8785219  48.0822834  15.9205761
  74.3952331  49.4505098  15.4900303  83.8747034  80.1631596  16.2136402
  84.0927133  80.1293280  17.1450653  84.4758901  79.5409443  15.8041802
   4.9725731  48.7868067   3.8908520   4.1129311  48.9371260   3.4975901
   5.5021151  49.5292791   3.6000767  80.9778256   4.4989796  13.5620632
  80.1944274   4.9078388  13.9299622  80.6768650   4.0931435  12.7490750
  60.8288104   1.8480177  29.0488091  61.3336343   1.7564411  28.2407227
  59.9339158   2.0172758  28.7542763  63.4157333  68.4161904  18.9717522
  62.6804790  68.7367275  18.4493580  63.6704645  69.1646459  19.5113411
  73.4490043   1.3041516  15.0509968  73.4502763   1.3466759  16.0072556
  72.8786153   2.0234986  14.7800198   9.8565396  69.6236160   2.0691481
  10.7780322  69.8345354   1.9188299   9.7713574  68.7113621   1.7920819
  66.5425834  70.7373502  17.4366131  66.4791760  69.7937109  17.2891083
  67.4028310  70.9764364  17.0915928   4.4140156  67.0558550  11.4754238
   3.5849770  66.6535714  11.2164059   4.4380387  66.9630458  12.4278107
  26.4164837  68.4942725  29.7361317  26.3934811  67.5375273  29.7546234
  26.2030228  68.7563398  30.6316700   8.8830384  65.9266212  12.3744908
   9.6579178  65.6095698  12.8384629   9.0573176  65.7290175  11.4542618
  45.0409382  19.9081917  11.8981209  45.5861395  19.1606732  11.6527596
  44.2317789  19.5167322  12.2271481  66.7597351  62.2749331  36.8169155
  67.0709428  62.6314762  37.6489392  66.5580616  63.0457737  36.2864819
  61.9490800  40.4823077   6.8385687  62.1810326  39.5952883   7.1135750
  61.3444838  40.7917804   7.5130501   1.8786471  10.4919024  50.5542221
   1.2188619  10.8517714  51.1470261   1.9709175  11.1534281  49.8685875
  80.6260452  59.7442784  28.6151161  80.2788171  59.6772435  27.7256432
  80.3588400  58.9285293  29.0386620  84.3053684  65.4768040  60.9033146
  83.5929880  65.5491569  61.5385380  85.0430545  65.1351311  61.4085999
  26.7855843  76.9949653  12.6758518  27.1355446  76.5009263  13.4172573
  26.1662873  77.6100256  13.0688038  48.5433453   4.4278403  43.4168186
  49.1093128   3.9301033  42.8267613  47.7297848   3.9245720  43.4495392
  62.6343808  60.8722975  27.2578087  61.9698987  60.7239916  26.5849819
  62.2397480  61.5157106  27.8464642  63.3867836  24.0832329  68.2984829
  62.5818396  23.5701180  68.2277298  64.0525436  23.4489655  68.5643816
  69.7477922  58.9137592  17.5599804  69.5484361  58.4314766  18.3624115
  69.0286026  58.6984005  16.9661656  61.8287429  57.4280491   1.4114180
  61.9941434  57.1369078   0.5146971  62.6432929  57.2409990   1.8780604
   7.9682773  14.1137810  19.7381535   8.0860513  13.5336180  20.4903259
   8.6785119  13.8788910  19.1409722  74.9027357  70.3255227  26.5557232
  75.1624069  69.7471859  25.8385601  75.6870184  70.8411219  26.7435875
  59.6043191  62.7249410  19.4332638  59.3054709  62.5537851  18.5401669
  58.8049922  62.9307058  19.9180069  66.7088494  77.3556545  32.9122200
  65.9211144  77.0273616  32.4787083  66.5294466  77.2506573  33.8465729
  56.9681487  63.4166720  28.4102001  56.6337738  62.6978924  28.9466515
  57.9127941  63.2671287  28.3712712  18.1119736  71.1350729  24.4474163
  18.2624444  71.6794207  25.2202549  17.6955279  70.3438547  24.7891464
  37.3352948  78.8447308  44.2404842  37.7900353  78.1088647  43.8306713
  37.6233044  78.8259991  45.1531315  80.0304127  33.0157304  60.7510471
  79.1633463  32.6222014  60.8488607  80.2779198  32.8279281  59.8456764
  69.4538698  56.4841821  13.9571038  70.3617057  56.6077521  13.6799851
  69.5192632  56.0199573  14.7916355  31.2314671  22.9841109  23.1195774
  31.1279553  22.0594521  23.3443585  32.1763771  23.1338234  23.1506481
  10.7420596  41.8183508  12.3976841  11.3427075  42.0854365  11.7019024
  10.8186062  40.8646724  12.4271813   4.7492736  10.3480215  12.4895039
   5.3040617  10.6441183  13.2111397   3.8558381  10.4435511  12.8194657
  41.9689035  54.5604563  69.5318365  41.1838436  54.2610312  69.0733004
  42.2977543  53.7802267  69.9782944  31.6876190  11.3556071   6.3661137
  31.1416166  12.1255608   6.2070933  31.1359852  10.6147785   6.1149111
  43.2902858  52.4334254   1.7717018  43.1152782  51.7812111   1.0933056
  43.8665459  53.0701127   1.3488713   1.3745459  60.6586149   9.9633637
   0.7736548  60.8924320   9.2559090   0.9050091  59.9931695  10.4663029
  57.0144949  37.3602709   2.2828093  56.3924512  36.9145890   1.7077770
  57.5079283  36.6520869   2.6966086   5.0064516  12.1161234  37.2074890
   5.5760610  12.6629961  36.6664648   4.7431770  11.3996863  36.6298747
  51.0457191  57.7205577  11.5359535  51.2559661  57.5926509  12.4609795
  50.2450571  58.2450845  11.5426197  26.5386868  18.4731853  65.6821394
  26.8850422  18.5320640  66.5725327  27.2731686  18.7248898  65.1223040
   4.1794529  65.4780359  54.8723364   4.8435011  66.1464042  54.7033453
   3.3467927  65.9209771  54.7089100  46.8578872  76.1093070  29.6890106
  47.1410963  76.6358616  30.4365101  46.0091016  76.4779212  29.4442311
  45.1738882  30.8749676  65.3330517  45.0777292  30.7649827  64.3870640
  45.7667208  31.6204023  65.4284763  71.8215189  26.7488029  33.4390869
  72.5879678  27.2691586  33.6799660  72.1067772  25.8408132  33.5411396
  68.9998684  51.3002195  23.0201378  68.1715855  50.9486272  23.3465710
  68.7490425  52.0723131  22.5129929  65.9538135  76.8921807   4.7147646
  65.3760967  76.1406305   4.8476114  65.3827819  77.6538589   4.8147764
  46.2477684  63.3177185  50.6579113  47.1161842  62.9157829  50.6810760
  45.8352232  63.0439854  51.4771223  58.9612636  38.8383261  28.7485066
  58.9251814  39.1219383  27.8350010  58.7396083  37.9076027  28.7192669
  24.3570614   3.3525157  62.4827242  23.8616061   3.8544032  63.1299257
  24.3073010   2.4479726  62.7918530  51.5704870  17.5941992  51.4306641
  51.3078547  16.7948318  50.9742975  51.0420609  17.5989687  52.2287703
  26.9604605   0.2628298  10.9172001  27.3739880  -0.0333242  10.1063242
  26.0553902  -0.0413017  10.8494415  36.7019415  57.1820879  61.1857033
  36.5599275  56.3660765  61.6654873  36.6373444  56.9323111  60.2639294
  32.7178717  39.1234398  50.5018377  32.8406405  39.2679071  49.5636034
  33.2915640  39.7654319  50.9201145  66.0323534  48.2141092   5.5207815
  65.5126867  47.5511076   5.0662365  65.6547317  48.2534739   6.3994637
  37.0592508  53.7668755  23.2732811  37.4855712  52.9101648  23.2502976
  37.6110503  54.3238022  22.7241173  73.1807766  28.5429826   6.2791243
  73.8507900  28.4243455   5.6058922  72.3520383  28.5043051   5.8017006
  60.0878286  38.2510734  68.1521654  59.8871994  38.0478024  69.0657663
  60.7608461  37.6158500  67.9076862   8.7394523  37.2909188  66.2962103
   8.7349223  38.0584407  66.8681526   8.4150981  36.5791559  66.8479490
  57.6460552   5.8857459  29.0542507  57.0899963   6.0841364  28.3008099
  57.5511312   6.6455352  29.6286535  69.4208870  67.9592278  25.3904190
  69.9218950  67.5043848  24.7134152  69.6979389  68.8727715  25.3203240
  15.1352271  63.6623695  21.1574211  15.8029803  63.4496071  20.5054512
  15.6265267  64.0287163  21.8927136  71.8937683  34.8360753  60.5851221
  72.4919558  35.5631852  60.4127455  72.4482536  34.0565681  60.5512381
  59.0266571  55.9188642   1.4485398  58.5587797  55.8960476   2.2832861
  59.6862445  56.6031399   1.5622988  76.4498359   4.9836226   2.4971237
  77.0645279   4.4493981   1.9941464  76.9872636   5.3923340   3.1756201
  12.8790963  39.8009086  63.6839437  13.5126507  39.5231462  64.3455219
  13.3938861  40.3109121  63.0585480  45.8515661   2.1266098   4.8205748
  44.9526375   2.0942230   4.4932976  46.3163345   2.6767655   4.1900625
  64.4134411  77.3070600  46.6097107  64.1892848  78.1924727  46.8961277
  63.6646423  76.7728689  46.8746128  70.3123483  63.4473207   5.4299584
  69.8910770  63.6086514   6.2741938  71.2494287  63.5149982   5.6130686
  18.0865114  10.4515572  33.8366928  17.7869242  10.3980656  34.7442284
  17.3409384  10.8156367  33.3594074  76.6602716  76.9342997  18.8413944
  76.3987121  77.2416642  19.7093525  75.9328613  77.1815970  18.2704773
  76.5639124  62.6473072  15.4350605  76.4281473  62.1878340  14.6063938
  76.4056692  61.9831254  16.1059227  10.5989989  66.6132715   8.1186476
   9.8816975  66.1226704   8.5199204  10.2735814  66.8448713   7.2487631
  29.4399953  43.5655117  61.8585682  30.1912498  43.6395741  61.2700415
  28.6962485  43.4031677  61.2782907   6.1315020  22.9966512  14.7486725
   6.3576992  23.2800772  13.8628235   6.5019854  23.6711659  15.3178921
  32.9571986  36.1906552  66.8070698  33.1279373  35.3926039  67.3072624
  32.3187304  35.9262133  66.1447525  30.9648013  48.0401325  62.5692892
  31.4090395  48.8217497  62.2407198  30.6049562  47.6224136  61.7868233
  18.7994757  71.5504325  58.4504557  19.2308274  70.7221157  58.6603546
  19.0824643  72.1496160  59.1412020  78.7154961  23.4591460  61.6656446
  78.4944868  23.3120275  60.7459974  78.4664631  24.3687844  61.8292665
  72.3323259  57.9851892   4.0995302  71.9892130  57.1325436   3.8321390
  72.4122867  58.4780076   3.2828512  32.0918387  24.0563729   3.7554398
  32.1622572  25.0061216   3.8516131  31.6200456  23.7707403   4.5377817
  44.4646999  76.8239334  28.3861199  44.5283255  77.3206594  27.5703755
  44.1417358  75.9636404  28.1181183  60.4305873  58.0530705   9.4089117
  59.5720157  58.4719434   9.4691744  60.9602174  58.6648955   8.8976469
  78.1516132  60.8634284   1.7608967  78.9568195  60.3791907   1.9436112
  78.4508476  61.7006876   1.4063730  61.1329690   7.6130886  15.8899536
  60.9054938   8.4052201  16.3767948  60.9389571   6.8965550  16.4942398
  29.6917081   4.6700257  35.0784278  29.6901393   5.2580065  34.3231082
  28.8732624   4.1795960  35.0018787  83.3565807  12.5859940  65.7867765
  83.5513973  12.8724515  66.6790867  82.5516415  12.0746899  65.8697271
  53.8370261  52.5484683  30.1231041  53.6628899  53.4894600  30.1441517
  53.9981374  52.3142042  31.0371056  16.5901101  32.5257301  69.1092873
  16.3897502  32.3900938  70.0354004  17.5361860  32.6695943  69.0874815
  48.5595608  11.1206460  45.7166576  48.4141874  10.1958144  45.5171967
  47.8147125  11.3673854  46.2648821  38.7953442   1.6545935   8.7160006
  38.1096857   2.0175572   9.2766752  38.6634653   0.7074948   8.7589398
  43.9736271  62.4592257  69.0647936  44.7590113  62.2461891  68.5607958
  43.7149286  61.6300583  69.4670343  18.0290382   9.7304316   7.0475950
  18.7899702  10.1269789   6.6233769  17.7907055  10.3486510   7.7384176
  68.7107572  70.3552439   7.4147549  68.3194503  70.4561760   8.2824698
  67.9754243  70.1290204   6.8452492  83.9078292  76.6024902   4.1536560
  83.7694893  77.0838668   4.9693575  83.4542570  75.7701662   4.2868605
  55.1570749   6.7209858  65.9352779  54.5885801   7.1453691  65.2926683
  55.9098864   6.4193296  65.4268360   0.7237473  76.6801218  54.7749329
  -0.0423226  77.1245671  54.4118404   0.8010354  77.0244194  55.6647158
   2.0949534  26.3498163  62.5538826   2.5411731  25.9424591  61.8114662
   1.9319747  25.6278491  63.1608677  41.9289351  23.7051702  67.3555470
  41.2505150  23.0515170  67.1860790  41.9232559  24.2633915  66.5779972
   5.3396710  73.4944561  14.4475212   4.6423920  73.5402300  15.1016941
   4.8918160  73.6199858  13.6109200  51.7752560  78.9219239  11.3995209
  51.4903077  78.0159905  11.5192070  51.4841183  79.3713739  12.1929112
  77.6562945  74.3881280  41.9668436  78.1741301  73.6508364  41.6436100
  77.3869983  74.8563785  41.1766195  27.2822302   5.7120724   2.1147194
  26.5460270   5.1151104   1.9810238  28.0587309   5.1666231   1.9891634
  21.3209048  38.3017928  53.7061834  20.4821005  38.4115274  54.1540670
  21.4340535  39.1112048  53.2078981  28.1280812  64.4711521   3.0478468
  28.0839451  65.2456000   3.6086645  28.6199959  64.7598245   2.2791281
  30.1432061  70.8095264  60.5791759  29.4574857  70.1416874  60.5754614
  30.4524255  70.8403444  59.6738195   8.5634526  48.0876788  28.5501232
   8.8289412  47.2869464  29.0024224   7.6241692  48.1586536  28.7202397
  32.9049706  28.2109809  68.1617594  32.3717165  27.9810929  68.9226961
  32.3664069  28.8313127  67.6704645  52.8392947  23.1309195   1.6997376
  52.7928269  22.9705401   2.6422587  51.9774574  23.4806175   1.4735117
   2.9843863  66.2147024  40.4016915   3.9397772  66.2676289  40.3758850
   2.7272185  66.0803297  39.4895306  79.5039186  67.2711494   8.8786402
  79.9478349  67.8476789   9.5005598  80.1156768  67.1919944   8.1467142
  20.2382430  61.1574700  19.2298355  19.7098311  60.7769253  19.9313965
  20.7087859  61.8782928  19.6484413   2.8183457   5.7248086  63.5876846
   2.2931287   5.4191399  62.8481293   3.7227219   5.5487752  63.3281708
  15.6114459  24.6337605  64.1889286  15.8359182  24.2147636  65.0197601
  15.3964961  25.5358791  64.4260073  14.8956164  47.8111836  12.2152462
  14.6818646  47.8446981  13.1476727  15.7623347  47.4062517  12.1826115
  79.6090326  41.4643873   4.8330202  79.3148956  41.3446202   5.7359972
  79.0760002  40.8532791   4.3244400  35.9011817  58.0195665  64.6301651
  35.3371000  58.7385416  64.9149799  36.5510321  57.9341984  65.3277588
  75.6991109  71.5527585   9.6924772  75.5940637  72.1509125   8.9526072
  76.2734565  70.8618810   9.3622532  39.9377045  67.8404691  28.8007679
  40.6362280  68.1375291  29.3839112  40.2682230  67.0230963  28.4280911
  50.8806691  65.3209498   0.6158629  50.9162817  65.1052287  -0.3160343
  51.4146313  64.6479967   1.0380593  75.5300865  41.0259976   4.0838709
  75.0597725  41.6963258   3.5881939  75.7043848  40.3342975   3.4455910
  60.2379179  47.3786068  51.3131523  60.6864119  46.7914152  50.7046366
  60.8169317  48.1374884  51.3843632  51.5819788  10.8451140  46.9725370
  51.4068794  10.0705183  47.5069284  50.7260227  11.2595117  46.8637276
  28.6321187  23.3780694  65.9938145  28.5258555  22.6099133  65.4326725
  28.1173491  24.0613747  65.5644703  31.9262188  21.0397454  26.7716542
  30.9737270  21.0902472  26.8518772  32.2067040  21.9494219  26.6714134
  73.6829519  47.6517105  49.1271925  74.4626188  47.5855923  49.6785307
  73.3374929  46.7596817  49.0929127  49.9479397  65.3711655   4.5343247
  50.7601078  65.7829430   4.8293772  49.4328888  65.2578809   5.3331509
  17.2014558  51.8743420  46.4079332  17.7435541  52.0375061  45.6360912
  16.5711546  51.2129354  46.1224556  35.1024120  18.6743326  32.4042454
  35.9981220  18.9390631  32.1948376  34.8950260  17.9990692  31.7583027
  18.3151625  52.8829145  65.1049757  19.2520045  52.8075409  65.2862930
  18.0442046  53.6746645  65.5696774  79.8620892  23.1352329  64.5757294
  80.4994488  23.7331009  64.1851377  79.0228748  23.4006619  64.1995668
  82.2661504  57.8428807  16.6797772  82.5362739  58.5662749  16.1141243
  82.8595314  57.1269085  16.4528218  43.4736774  68.4257987  20.0425377
  42.8628549  68.8248303  19.4229450  44.3247685  68.7996771  19.8143044
  55.2153492  67.6298904  60.3786278  56.1487150  67.6625109  60.1688766
  54.7895050  68.0748558  59.6458960   6.5963181  66.3691404   2.7258959
   6.9052227  67.1364405   3.2076159   6.1307772  65.8473923   3.3795634
  68.2702446  10.6391394  58.2158136  68.8790464  11.2301421  58.6588812
  68.5620594  10.6340468  57.3041964  65.2083454  52.2954395   4.6823254
  65.9517393  52.7848639   5.0345507  64.5287213  52.3778501   5.3513184
  26.1550825  15.9686442   5.5294838  25.8696192  16.5996094   4.8687067
  26.9986313  16.3044281   5.8326473  61.0013342  51.0110092  44.5984983
  61.5051889  50.8169174  45.3888702  61.1640978  51.9395876  44.4327068
  66.4608717  57.6356697  56.2734604  67.1684599  58.0682373  56.7514086
  65.7514620  58.2782078  56.2625122  25.8848294  68.7406590   7.4818268
  26.0354432  68.1304886   6.7598572  25.4731377  68.2088544   8.1629505
  55.5902147  62.2470140  66.6471481  55.0883865  61.7955065  67.3257828
  56.5039921  62.0529127  66.8558884  63.3853778  46.8305799  16.9773617
  64.0477023  47.0089867  16.3097325  62.8573904  46.1228296  16.6078320
  70.5971107  77.5235846  17.3834553  69.6950206  77.3981645  17.0889511
  71.1255750  77.0382240  16.7499104  56.2298203  46.7528820  46.8139839
  56.0862398  46.4111233  45.9314775  56.9913197  46.2708902  47.1365309
  31.9081562  10.4930706  16.9491711  31.2763470  10.5771227  16.2350407
  32.3505228   9.6610661  16.7809048   7.0711940  43.3244915  27.5758686
   6.4810341  43.9147301  28.0444374   7.3137873  43.8063355  26.7851677
  16.0183676  48.4023740  16.9498100  16.2986144  49.3162396  16.8993988
  16.7063626  47.9683533  17.4543133  46.5171480  54.4712305  50.9185982
  46.5115976  53.5198641  50.8132267  46.1008883  54.6206141  51.7675066
  74.2899236  62.1367838   2.1735611  73.7772379  61.3625243   2.4057474
  73.7925586  62.8705385   2.5347605  19.8796042  52.2552648  13.2822743
  19.1489132  52.8727212  13.2495251  20.1736697  52.2802463  14.1928330
  36.3326567  28.6241122   2.3628893  37.2442787  28.7819691   2.6083508
  36.3735407  27.8915234   1.7481747  37.2637623  25.0557299   9.1621819
  36.7797678  24.3947001   9.6571722  36.5856283  25.5805512   8.7368193
  38.8496416   7.3475523   2.5337448  38.8447826   7.6168366   3.4522715
  39.7722500   7.3768587   2.2804346  24.4216650  13.7269135   2.6017609
  24.9618357  14.0306063   1.8722286  24.6986406  12.8218193   2.7443304
   3.3475493  43.6216497  65.2705050   3.3090686  44.5515633  65.0468779
   2.7219771  43.2064438  64.6767998  72.1456155  65.3745534  35.6940212
  73.0817899  65.3806212  35.4945889  71.8551550  66.2672951  35.5072823
  54.4147986  22.1820040  10.4048863  53.4856718  22.1083708  10.1868334
  54.4338530  22.2238798  11.3609734  62.5229948  29.1576977  23.5282459
  61.8753927  28.6918516  24.0572396  63.2592123  28.5497065  23.4607163
  14.5664271  61.0824850  28.2463684  14.3534382  60.2763560  28.7165013
  15.4520997  60.9385040  27.9130783  21.5147894  13.6598320   2.7956333
  22.4274891  13.9306565   2.6963177  21.5152710  12.7293368   2.5711003
  43.8879221  20.9619065  20.2413883  43.7513369  21.7518492  19.7183552
  44.4152182  21.2549324  20.9845772  75.7099646  21.3922711  15.4373684
  75.9816282  22.1479531  15.9583130  75.9684103  21.6128607  14.5425072
  58.4600639  30.2508926  69.1338301  58.7510204  30.3546095  70.0398207
  57.6971865  30.8243203  69.0601301   7.4373301  62.6440933  25.8067742
   7.9986866  62.0206192  26.2676277   8.0317505  63.1156828  25.2232495
  76.3009310  21.4288402  24.3162441  76.5293026  20.9550190  23.5165095
  75.9639311  22.2701430  24.0082335  21.2073088  32.3704076  52.3581266
  20.5488443  31.8501329  52.8185272  21.8763781  31.7362404  52.1004295
  12.9009875  35.0238081  18.3412972  12.3970326  35.7827278  18.0475178
  13.5510405  35.3863552  18.9431420  16.5411871  16.9870968   4.9926272
  17.4535816  16.9244404   4.7100582  16.5101021  17.7801104   5.5277815
  46.8776608  45.8341074  61.9544077  47.1652412  44.9325562  61.8104267
  47.3768234  46.1257935  62.7172899  75.6420574   1.7649024  47.4023628
  75.2122602   2.2336810  46.6869926  76.5616569   1.7195552  47.1406269
   1.8722741  15.8080359   1.9012013   2.1249597  16.6087790   1.4416495
   0.9610288  15.6631155   1.6465130  32.7127600  39.3708324  64.8529243
  31.8688226  39.2581916  64.4155312  33.3382201  38.9186907  64.2867088
  72.3788557  59.1152277  17.1329441  71.4400682  59.2934504  17.1890965
  72.4456224  58.1621482  17.1913758  59.3451500  34.5639896  66.5974569
  58.4372044  34.6404791  66.8907404  59.6400023  33.7234092  66.9477749
  29.0439423  79.4909170   3.7286988  28.9171418  78.5667756   3.5139504
  29.8655899  79.7263887   3.2977953  16.0971802  -0.2599601  11.7736759
  15.6142490   0.5164547  12.0568600  17.0139473   0.0152989  11.7728272
  60.6623888  12.5817013  32.8747702  61.3608074  11.9340146  32.7802110
  60.4288960  12.5484502  33.8024592  59.9018955  13.1689751  59.8004103
  60.5171442  13.0580711  60.5252552  59.0383959  13.0758929  60.2028227
  64.9923992  72.0985794  60.3654337  64.1037989  71.7792463  60.2084398
  64.8846579  72.8011274  61.0065603  62.7927416   7.3049040   4.3075695
  62.0873087   7.3397894   4.9536171  62.9647368   8.2212897   4.0910282
  57.0083174  69.1501501  25.5333939  56.9059858  68.2418516  25.8175602
  57.3443827  69.0850308  24.6394959  49.2215031   1.2292738   7.8046980
  50.1280945   1.1563750   8.1030359  49.0223568   2.1632738   7.8696242
  32.7295502  72.0210245   7.7537480  32.5807675  71.0755160   7.7433529
  33.5030278  72.1478250   7.2042980  72.9134369  30.9493518  61.7437935
  72.9056692  31.7108536  62.3236942  72.1676016  30.4223323  62.0305204
  44.3908804  58.1480427  19.8969212  44.9133413  57.6629658  20.5356446
  43.5834425  58.3648033  20.3630676  19.5703381  21.9289513  21.1400547
  18.7369793  21.5477915  20.8635369  20.0981825  21.1784811  21.4128151
  54.0598726  47.0784378  61.8679571  53.6738729  47.5083733  62.6311016
  53.4559345  46.3642550  61.6644192   9.6821021  48.3740139  59.7445631
   9.3806170  47.5051355  60.0098658  10.0645541  48.2403708  58.8773203
  50.7145080  71.6418698  22.3941078  51.5882287  71.7047408  22.7799740
  50.1634702  71.3081195  23.1020680  18.3925312  13.5121508   2.7193918
  18.0164688  12.8835364   3.3355561  19.3122356  13.2566662   2.6479902
  24.2435902   7.1590729   5.5913773  24.0355414   8.0480309   5.3037873
  25.1995342   7.1168490   5.5664911  81.3453621   5.8854695  35.0702610
  82.2582287   5.9204264  34.7844544  81.3339299   5.2156658  35.7539788
  56.3615379  69.4624140  16.4220181  56.7148599  69.2913606  15.5490151
  55.8793387  70.2839806  16.3285008  57.1702784   2.9380150   4.1360226
  56.6637533   3.6603422   4.5073834  56.5299528   2.2385521   4.0057841
  78.0963278  45.2005768  67.7430344  78.8029766  44.6473980  67.4100494
  77.3565722  45.0189590  67.1633720  11.7128866  11.7984076  31.0559502
  12.5388735  11.7472000  30.5749645  11.4458197  10.8864565  31.1710682
  66.2461519  11.5440869  68.2604790  65.9510183  12.3517990  68.6808729
  65.6201649  10.8805668  68.5505009   5.2743777  76.8015554   6.9607249
   5.9648188  76.4976861   7.5499525   5.6466588  76.7027214   6.0844412
  31.9061875  49.2115355  48.8989878  31.0228419  49.5257664  48.7061405
  31.8069077  48.6927748  49.6972752  40.6749313  17.4214192  20.4737797
  41.4500921  17.6341696  20.9934845  41.0216158  17.1762581  19.6159115
  32.7322453   7.5159426  28.1528416  33.1291168   7.6623268  27.2941818
  33.4735411   7.3414440  28.7327137  19.7561836  58.5876465  64.4454145
  18.9766788  59.1038942  64.6505785  20.4687095  59.0399551  64.8970270
  16.1305006  55.9468498   8.6005917  16.3969859  55.1490977   9.0575495
  15.1738938  55.9319665   8.6307564  80.6583557  72.5106075   4.4303980
  81.0557136  71.7090561   4.0900221  80.4415044  73.0205586   3.6499157
  55.1531076  15.1678002  67.0531273  55.9562492  15.6877160  67.0828867
  54.8082685  15.2084720  67.9451275  33.0070990   0.6186266  31.9497338
  32.0909470   0.3922768  31.7895355  33.0298775   0.8897610  32.8674545
  62.4207449  27.8736043  64.8109436  62.4882936  28.7907100  64.5452642
  61.9279146  27.8975344  65.6311703  11.1940044   7.0607300  12.8258553
  11.0315936   6.9426937  11.8899479  11.9697064   7.6201363  12.8656521
  80.5827865  74.2964675  55.4698410  80.6878528  73.9820125  56.3677922
  80.8794603  75.2060821  55.4983559   3.9673036  21.8101521  15.5016461
   4.2377155  20.9428997  15.2000084   4.6836370  22.3887654  15.2402916
  82.0692176  19.5949145   8.8588848  82.8105540  20.1832075   8.7154761
  81.3244409  20.1787730   9.0025845  13.2269772  73.0780652   3.7531939
  12.8459843  72.7005532   2.9603806  13.5671957  72.3255756   4.2371836
  65.4683733  26.5959740  58.6136198  65.3653193  25.6631017  58.4255838
  64.8729277  27.0305800  58.0030489  39.1148441  24.6265908  13.0127945
  39.1448896  25.5647345  12.8251305  39.5096462  24.2157145  12.2436753
  37.4067324   6.7773838  27.9601422  38.1223982   7.3669596  28.1977310
  36.8621462   7.2902365  27.3629513  53.8224905   7.8880902   2.8084984
  54.5308703   8.4929438   2.5880757  54.2595976   7.0480795   2.9483166
   2.0849617  51.1319592   8.4793225   1.5634640  51.7324176   9.0119782
   1.5237196  50.9257843   7.7318421  50.1060390  61.7402649  52.2811842
  50.8627510  62.2522354  51.9956875  49.3560266  62.1742201  51.8744898
  47.3475790  60.8976793  54.6014977  47.2846127  60.2929497  53.8621950
  46.5337658  60.7666540  55.0880909   3.1174009  39.6804543   5.0013914
   2.4136370  39.5025702   4.3774500   2.7836102  39.3560667   5.8378067
  56.3128266  40.8227864   5.8843603  57.1996150  41.0120105   5.5777111
  55.8571300  40.4922468   5.1102057  77.9915428  18.2894599  23.7073946
  77.3611975  17.6566398  24.0515375  77.6108837  18.5802388  22.8786755
   2.3946055  57.3719051  30.3764668   2.6153143  57.2009745  31.2920513
   1.4540537  57.2029533  30.3212586  65.9026241  58.9716387  69.2550135
  65.0863361  58.6737633  69.6564817  66.5527344  58.3227491  69.5243311
  30.7778614  22.2883292  19.4501629  31.3735502  22.2542115  18.7016812
  30.7944744  23.2041855  19.7279396  32.1039837  10.7108946  35.0660935
  32.2098225  10.8938570  35.9996643  31.7018288   9.8427887  35.0362435
  33.1396216   0.6832142   1.3058939  33.0256336  -0.0345497   0.6829539
  33.2959002   1.4528055   0.7585945  83.1895943  40.4473686  68.6794615
  83.4333263  41.1916399  68.1291103  82.2415573  40.5274868  68.7845278
  44.4925404  56.0282135  49.2138386  44.6897268  56.8214560  48.7157249
  45.3491926  55.6898785  49.4744205   3.4379395  75.7694795  10.3245964
   4.0798911  75.0609972  10.3712788   2.8269680  75.4944398   9.6410074
  43.6675995  20.1804943  27.3172512  43.2827395  21.0308476  27.1050873
  44.1089695  19.9097748  26.5121880  32.7494955  13.7777019  61.3807011
  32.4512315  13.7354064  60.4721403  32.8282952  12.8624845  61.6497755
  33.7821739  13.3870526   1.6568032  34.5580214  13.4604473   2.2125902
  33.6848848  12.4471112   1.5042439  77.5909901  29.4329619  58.6149263
  77.8043604  29.6654749  57.7112436  78.4349251  29.2194843  59.0129566
   6.9041341  18.7093134  17.0492020   6.5448015  18.1968947  16.3249531
   6.2198012  18.6910219  17.7182236  22.4584644   4.4878359   4.8556557
  23.3163517   4.6607228   4.4678869  22.4895304   4.9209185   5.7087078
  12.1597397  59.0966511  57.3226070  12.5613523  59.8254633  56.8495703
  12.5256908  58.3135509  56.9114304  49.7842264  73.8243055  56.2741709
  50.6799316  74.1574907  56.3282967  49.4757414  73.8183165  57.1802807
  10.8511790  71.0699584   8.3100786  11.4367255  71.7483666   8.6464253
  10.5288418  71.4216592   7.4802389  71.5752802  77.2784975   7.5651636
  72.0058879  77.6785972   8.3206263  70.7934770  77.8125598   7.4244728
  14.0995091   5.7458706  11.2763729  14.8054998   6.1821909  11.7532768
  13.9234989   6.3199826  10.5309525  41.8688458   7.6151724  29.3400421
  42.0621269   8.4967966  29.6587982  41.5839069   7.1362181  30.1182690
  32.1469086   7.0959873  17.3502197  31.8901938   6.9418927  16.4410439
  33.0577152   7.3853560  17.2961560  23.3052414  35.5398579  19.1488495
  22.8941124  36.0643454  18.4617367  22.6729029  35.5484123  19.8673954
  37.1615475  10.1049967  24.9564877  37.8464239  10.3412695  24.3309059
  36.5418833  10.8336277  24.9197617  67.9749918  34.8208404  58.5932636
  67.8733492  35.6912374  58.2081556  67.0910883  34.4534922  58.5916185
  64.1845053  14.6491213  35.2996960  64.3084734  15.4544182  34.7973385
  64.6900766  13.9899559  34.8241749  51.7002535  37.4278760  65.8520079
  51.1259699  38.0071402  65.3511238  52.5783443  37.6162291  65.5207825
  48.7265682  66.3374376  63.1376600  49.1711044  65.6583881  62.6302052
  47.9091978  66.4934826  62.6645994  18.3367460   6.5380116   4.8648730
  19.0102356   6.3830443   4.2025795  18.4749144   7.4445219   5.1394263
  71.1588049  32.5625563  58.3050632  70.6917524  32.9303432  59.0552807
  70.5820131  32.7279663  57.5592899  30.1386078  56.7298486  30.7042732
  30.7488450  56.7162123  31.4416065  29.2720040  56.7373576  31.1107006
  79.8530063  71.1720731  29.4513645  79.0959701  71.7555358  29.5032635
  80.6055126  71.7607357  29.3926277  43.0884235   0.6283541  12.5938454
  43.8483542   0.1877280  12.2136059  43.2470911   1.5589400  12.4355259
  36.1784952   3.8415451  20.0476780  36.5141504   4.3406410  20.7923069
  36.0274141   4.4981690  19.3677941  52.9833326  58.3475485  18.5470810
  53.1302247  57.4134579  18.3983174  52.3096284  58.3788707  19.2263260
  47.7141771  61.9636943  11.5972176  47.2711560  62.6937296  12.0296612
  47.7528188  62.2190812  10.6755200  37.6355931  65.3079441  17.1208229
  37.8927031  66.2161305  16.9616833  37.4391201  64.9588039  16.2514916
  38.2042854   1.3481589  38.4649887  38.3411806   0.8213921  37.6775875
  37.7122229   2.1106501  38.1604996  78.5712156  56.2876322  23.2296696
  78.2084427  57.1534457  23.4167328  79.0832004  56.0691216  24.0083542
   0.1248749  69.2761304   4.0646496  -0.5214969  68.6029937   3.8517513
   0.5621012  69.4598391   3.2331982  43.8422173  26.4726372   4.0972176
  44.3294352  26.2278910   3.3104887  44.4702404  26.9672652   4.6236840
  79.9737367  54.6006682  10.3242150  80.7810697  54.8580732  10.7693997
  79.2869100  54.7346320  10.9773197  12.5357064  79.6658614  12.5120392
  13.3349379  80.1869061  12.5893059  12.4859198  79.4399741  11.5831986
  12.0050161  12.7326508   6.2063160  12.8618639  12.8312226   5.7911911
  11.6791266  13.6279364   6.2985077  20.1185721   2.1228476  41.2521019
  19.4133490   1.6589184  40.8008137  19.6855038   2.8649540  41.6739598
  13.4110793  72.3409655  22.3596134  13.2267483  72.4485948  23.2927075
  12.7355345  71.7375996  22.0500603  36.3529500  65.4113152   7.6439419
  35.7151135  65.6990483   6.9907990  36.1028012  64.5087841   7.8416481
  30.4470396  31.0736656  54.4172525  31.1737728  31.5946555  54.0756989
  30.8443809  30.5200481  55.0894547  13.8776453  63.4717491   4.2498484
  14.0984257  63.3763530   5.1763382  13.4413298  64.3218853   4.1939059
  70.1792448   6.5842219   4.4833269  71.1321467   6.6118927   4.5695534
  69.9734324   5.6533356   4.3977061   4.1790097  19.2343493  14.1695061
   4.9759644  18.8301344  14.5125904   3.4665554  18.7673111  14.6059933
  54.1935652   5.5321665  19.7063580  54.9382227   5.8922930  19.2246762
  53.6577242   5.1075144  19.0364495   1.0919093  32.3140574  67.7209425
   1.0098075  33.2621670  67.6180887   1.6326140  32.2039223  68.5030842
   6.9804867  68.9714029   3.6336317   6.1267622  69.2210677   3.9872637
   7.5121077  69.7637918   3.7093201  80.0209236  31.7432380  58.1338978
  79.3737221  31.5066791  57.4695158  80.8428192  31.3752890  57.8093386
   7.8174265  46.2194642   2.1133270   7.0571717  46.0716721   2.6758232
   8.5530194  46.2984195   2.7207031  46.8633699  67.1382380  66.3405037
  47.4801350  67.4311256  65.6696415  47.2826767  67.3703527  67.1690798
  61.4417952   2.4122544   0.8554688  60.5103415   2.5791617   0.9995499
  61.6336268   2.8327866   0.0172606  72.2859010  63.0066111  11.4670506
  71.4160356  62.6243808  11.3510361  72.1943912  63.9082077  11.1588612
  76.8223524  57.0591497  46.6366386  76.6548252  57.2933054  47.5495148
  76.1455202  56.4158010  46.4263105  50.1362236  57.9321339   5.5974331
  51.0186490  57.5906422   5.4527083  50.1398667  58.7915280   5.1759329
  26.1259382  19.7118302  19.4817391  26.1865156  19.5611687  20.4250565
  26.2995022  20.6473179  19.3769684  72.6432848  37.4579120  59.5154953
  72.7419090  38.2276320  60.0758886  71.7126226  37.2405243  59.5687675
  78.6492777  49.5995426  56.8166685  79.1294289  50.3768110  57.1022224
  79.3239927  49.0141535  56.4726973  85.1546192  45.3337288  42.9268551
  84.4343281  45.9629774  42.9650640  84.7663116  44.5483017  42.5414276
  47.3347300   0.8183832  19.4873657  46.9139069   1.2690420  18.7552109
  47.2476595  -0.1115970  19.2781105   8.1850784  11.0426398  33.1463757
   8.7158173  11.4360733  33.8390198   8.0760639  10.1309223  33.4167805
  34.5275848   1.0134812  10.9973469  34.8020142   0.7375307  10.1228371
  35.1742714   1.6704197  11.2551537  66.4011478  51.3836575  63.3141184
  66.2731886  52.2934437  63.0455065  67.2828817  51.3655376  63.6862087
  76.0310125  24.9960399  64.9744749  75.5022049  25.7900453  64.8960638
  76.4687443  25.0824618  65.8213282  43.2446179  80.4677989  28.9560929
  42.3432538  80.1717331  29.0830460  43.5569999  79.9677684  28.2020226
  38.9299553   8.3898754  11.5575257  38.3465498   8.2694121  12.3067608
  38.8024633   9.3026467  11.2990227  32.1683510  60.3333690  10.9938183
  31.3470753  60.7464554  11.2604561  31.9033631  59.6461382  10.3824845
  68.2563686  14.0011513  62.1066046  68.4234190  13.1198657  62.4407625
  67.3059368  14.0407419  62.0000696  13.6217802   6.3014908  27.7722588
  14.1907518   6.8899460  27.2760430  12.8381317   6.2122460  27.2298947
  83.7295017  69.7817352   1.2508145  83.4746465  68.9615157   0.8282986
  84.2464027  70.2414443   0.5892124  61.0629559  13.8131011  67.6414156
  61.4762068  13.9325297  68.4965134  61.6005945  14.3298614  67.0413017
  75.3065080   6.4228173   5.5962887  75.7093841   7.1526690   6.0666504
  76.0300309   6.0171767   5.1185885  82.3679274   1.9961663   0.4851713
  82.7000635   2.8928061   0.4409638  81.8342321   1.9773312   1.2795582
  27.2548693  30.0768013  22.7312222  27.5938099  29.4117804  22.1319809
  28.0146092  30.3413935  23.2498875  32.3706444  44.5674809   2.3098316
  31.8674954  45.3625586   2.4857083  33.1622990  44.8774039   1.8699970
  10.1308244  20.5268736   3.9034929   9.8775404  19.6037979   3.9058819
  11.0734957  20.5170079   4.0693417  39.4622486   2.0370884  20.2453747
  39.1978233   2.1907110  21.1524048  38.6856955   1.6623802  19.8296871
  78.3132219  55.7808971  39.9329209  79.1435337  55.7998228  40.4087877
  78.2936859  54.9177742  39.5195603  41.7700299  79.7039106   7.8067579
  42.7106293  79.8814085   7.8042164  41.7023858  78.7738397   8.0226889
   9.0119084  51.1755731   9.2706051   9.2042693  52.1057143   9.3892088
   9.8133095  50.7286205   9.5430508  14.1182040  29.4012523  60.2312708
  14.8600577  28.8926458  60.5586958  13.5560702  28.7560129  59.8024368
  55.5216599  51.3933420  51.3000822  54.6645403  51.7445326  51.5414095
  55.9623766  51.2416363  52.1361351  78.1244812  54.0790381   3.3356419
  77.3788223  54.6280518   3.5781517  78.5710678  53.9022663   4.1636172
  72.2991428  70.7126191   8.7048521  71.9489822  70.3750803   7.8804245
  73.2491312  70.6528261   8.6039248  19.3850630  41.8541451  19.5304527
  18.9281195  41.4861222  18.7741509  20.2985399  41.9164772  19.2513504
  66.2397099  35.7144904  60.7003069  65.3450775  35.9948277  60.5072355
  66.7680168  36.1020970  60.0025368  14.0355366   5.0884362  16.0844650
  13.5903805   4.9365254  15.2508011  14.1991680   6.0314150  16.1002674
  52.8594511   8.2449694  20.3106251  53.6338156   7.6926728  20.2030411
  52.5943106   8.4623928  19.4169464  69.3054867  57.2088051  57.9737711
  69.3331718  58.0978489  57.6201344  69.2879486  56.6441202  57.2010756
  57.6520746  22.6317854  12.2852936  57.0254248  21.9300528  12.4617138
  58.4927385  22.1839733  12.1905937  34.1121357  22.8990097   2.1256151
  33.3961361  23.3149786   2.6057615  33.6848372  22.4641152   1.3877001
  42.1785038  19.0420170   5.5013170  42.4773567  19.5440407   6.2595310
  42.3199528  19.6262236   4.7563830  83.1324920  32.3944800  53.7910366
  82.4053583  32.9418128  54.0875673  83.2277593  32.6053756  52.8622293
  69.9856663  47.0932817  51.8849659  69.7352600  47.4312258  51.0251284
  70.8903742  47.3831463  52.0020533   4.7795065   0.6313746  63.1570816
   5.4771002   0.3021853  62.5903034   5.1161059   0.5120700  64.0451670
  59.2131662  64.5889139  64.4896793  58.5204983  64.8198891  65.1086235
  58.9485550  63.7377501  64.1407824  20.8535021  33.0589648  22.1431389
  20.3207796  32.3598500  21.7641010  21.0118979  33.6605997  21.4156952
  64.7556686  57.5433445  63.2083464  64.9636698  56.9168234  62.5152063
  65.0006866  57.0950651  64.0178204  52.0851374  43.4860563  34.9267936
  52.9990864  43.3362532  35.1686406  51.6144848  42.7377939  35.2939701
  14.2738163  61.2425375  57.1698761  14.4343972  62.1575689  57.4004507
  15.0029266  61.0087919  56.5954256   0.0383757  62.1915388  54.3145657
   0.1890563  61.8038940  55.1766872   0.6031798  61.6916990  53.7251711
   3.1412028  60.4619884  49.1524076   3.9671992  60.5618191  49.6257019
   3.3125972  60.8388948  48.2893944  84.7714060   8.6345978  19.1020050
  83.9758604   8.5308619  18.5799160  84.4838064   9.1013975  19.8866215
  50.8509605  16.9859238  18.2385197  51.5721148  17.3870964  17.7535095
  51.0862558  17.1040554  19.1587963  17.8725680  78.4817460   8.6665526
  18.5676392  78.4035828   9.3200102  17.6549252  79.4138434   8.6587038
  78.9243126  66.9561243  41.2594700  79.6635485  67.2164917  41.8089962
  79.0206528  66.0088396  41.1615086  21.7679213  69.5066214  57.7434349
  22.0161723  70.2358913  58.3115578  21.6826056  68.7597084  58.3359480
  64.3921804  72.1275282  63.3569860  63.7232828  72.1818590  64.0395260
  64.2516518  71.2719297  62.9514790  49.7685528  50.6194925  52.1106720
  49.6219015  51.3281488  52.7371931  49.3510246  49.8563957  52.5101471
  15.2745026  21.6902705  11.9661083  14.7265499  21.6794319  12.7508774
  16.1058443  22.0630570  12.2595921   6.2396487  71.6303017  34.2455616
   6.0654171  71.1204722  35.0367298   6.8778046  71.1078956  33.7596836
  39.5801514  12.3899575  27.5373783  40.1998728  13.0238743  27.8983822
  39.2321890  11.9325514  28.3028450  29.5142572  11.5799017   8.5197296
  29.2835014  10.7841368   8.9990463  29.6952599  11.2791319   7.6292219
  31.7226809   3.9865608  32.4851742  31.6175335   4.9352045  32.5576439
  32.3981350   3.8708039  31.8168965  83.2157993  44.6826649  63.9354324
  84.1427708  44.7930145  63.7238121  83.1084728  43.7392616  64.0566969
  25.5502956  29.3169661  19.7539654  25.9712666  29.3380041  18.8945618
  24.6127670  29.3375702  19.5620003  47.8595942   7.2235317   9.0900412
  47.7812880   7.4743862  10.0104561  47.8678339   8.0545874   8.6151591
  65.9125948  35.4177499  63.9282513  65.5935144  35.9346533  64.6680021
  65.1493979  35.3173018  63.3593321  18.7881535  43.1104012  30.8945790
  19.2435997  42.3432656  31.2414303  18.7474220  43.7187119  31.6325035
  79.2220396   7.4815626   7.3683634  79.8657006   6.9341774   7.8181401
  79.6809763   7.8020401   6.5918961  26.6767757   8.7312050  14.7124615
  27.2607439   9.3354149  15.1708832  27.0366543   7.8637095  14.8973026
   3.1097086   2.6434462  62.1918631   3.7611874   1.9787162  61.9683790
   3.6251219   3.3952277  62.4841022  20.6474408   9.6489184  67.1905184
  20.3987559  10.5102389  66.8550825  21.5203007   9.7791140  67.5611830
  51.2209194  61.0822697   5.6328621  50.3395145  60.8786030   5.3200140
  51.7630022  61.0737725   4.8439970  13.8257121  62.1141386  63.7025404
  13.7604808  62.8960371  63.1542587  13.2602214  61.4724302  63.2728195
  19.9848669  26.3485403  27.7082958  20.5717104  25.6253214  27.4873772
  19.3996399  26.4209814  26.9543114  11.4524882  17.1173783   5.6253615
  10.8428543  16.8384953   4.9421301  10.9673136  17.7731533   6.1261502
  40.3401288  73.8009169   6.4338246  40.7249649  74.0335610   7.2788182
  40.9145077  74.2119148   5.7877627  22.2189301  12.8038664  19.1073933
  22.3914259  11.8996258  19.3697491  22.4068564  13.3205862  19.8909130
   1.5427111  63.8029051  67.7376175   1.2804602  64.0100718  68.6345816
   1.6725921  62.8545570  67.7390289  31.4683836  16.2924786  26.3201752
  32.0903605  15.5738707  26.4341011  30.8360689  16.1766596  27.0294037
  21.6544366  59.7518921  66.2992001  22.0437098  60.6120682  66.1417198
  21.4038825  59.7678614  67.2228861  65.8318615  64.2018938  25.3376102
  65.5685520  63.8017750  24.5088744  65.6060791  63.5497093  26.0008645
  45.7130822  11.9122737  55.2162600  46.2990674  12.0335334  54.4691610
  45.3700455  11.0249942  55.1100492  55.6778526  58.9071560  60.3591490
  55.6938887  58.1067276  60.8838272  55.0021553  58.7480402  59.7001028
   2.7610534  30.1875468  -0.0597343   2.4992841  29.7192688   0.7329931
   1.9431608  30.3256054  -0.5374632  24.7450519  69.4927979  67.2707605
  25.5144715  68.9245987  67.3078346  24.3122005  69.2566109  66.4503431
  52.0504492  25.5195160   4.8354044  52.0524042  25.3619547   5.7795468
  51.6323011  24.7427864   4.4638243   1.4767646  18.3515358  50.8541918
   1.5326117  19.0269053  51.5302038   2.3869609  18.1749165  50.6163073
  52.5059414  56.6398191  32.6343822  52.0125055  56.4676142  31.8324471
  51.8919659  57.1122313  33.1966043  74.6495828  58.3521500  12.8961220
  74.2762193  59.2294862  12.9804650  74.1938266  57.9689290  12.1466770
   4.0928363  72.4221802  42.8371954   4.6396731  72.4490976  43.6223555
   3.2568835  72.7969790  43.1145620  41.1167669  52.5469017  60.4861784
  40.4895878  51.8380737  60.6291485  41.4316034  52.7685261  61.3625288
   6.5932177  70.0864124  46.8497419   7.3775386  70.4534817  47.2575855
   6.0312652  69.8446131  47.5859261  68.2511172  26.5559810  42.2305679
  68.5509786  25.6474250  42.2014570  67.3341283  26.4970725  42.4986982
  78.7515697  20.3314917  32.6351404  77.9018602  19.8989241  32.5507808
  79.3654308  19.7407573  32.1987343  76.6362047  62.0753860  66.8509769
  76.6168118  62.8028250  66.2291336  77.3853922  62.2634554  67.4162960
  49.9854439  57.7645226  36.6551056  49.5631569  57.6602097  37.5077667
  49.6935146  58.6223145  36.3465824  72.7986258   3.6747999  16.6331806
  72.1085184   3.3845873  16.0367241  73.1888121   4.4324990  16.1974373
  50.0204437  42.9603596  17.6810017  50.3254669  43.4669514  16.9283047
  49.9414032  43.6029549  18.3860340  23.3042630  68.5312560  22.6515045
  22.6870593  69.1021826  22.1939697  24.1512688  68.9660146  22.5525036
  76.2646866  57.0468855  42.7724981  75.7965612  57.1796513  41.9481993
  75.7241201  56.4230680  43.2571363   7.5807093  38.8943577  52.6346350
   7.9753493  39.0806866  51.7827082   8.2604979  39.1228294  53.2686090
  76.6630697  24.9231386  59.1474628  76.6892481  25.3825188  59.9868155
  77.3643064  25.3234100  58.6333799   4.4887542  45.0318813  51.4031267
   4.5007514  45.9683943  51.6007042   3.5934066  44.8600864  51.1114407
  18.5108279  74.8827839  17.3061609  17.8725814  74.3451786  17.7750516
  18.0832862  75.0926256  16.4758563  54.9009531  27.2701664   7.2392502
  54.1889780  27.0483609   7.8393545  55.4576033  26.4915247   7.2298422
  42.4630022  49.3559790  61.1503363  43.2718277  49.3371153  61.6618872
  42.1202040  48.4643507  61.2112951  81.2046203  77.1003988   0.5055990
  81.0882864  76.2511327   0.0796356  81.0809860  76.9198992   1.4374581
  69.5788019  23.8653488   1.3015738  70.3245943  23.7461872   1.8896427
  69.2678755  22.9772253   1.1260786  33.3846062  62.4604244   8.2101670
  33.3619707  62.8594799   7.3404112  32.5465935  62.0041485   8.2862177
  48.6167687  20.8758374   4.1270581  48.1720608  20.4349108   4.8509684
  49.2526739  20.2343483   3.8102808  43.5103815   2.6326771  10.8654442
  42.7052992   3.1394167  10.9717026  43.4956377   2.3484726   9.9515238
  76.2008247   3.1980460  65.6561089  76.5044746   3.8369315  65.0112438
  75.3825054   3.5653823  65.9902430  52.6789808  47.8212786  69.8006868
  52.0125008  47.2999096  70.2481413  52.3535013  47.9081345  68.9047241
  66.4440250  40.3005552  45.6253386  66.5045214  40.8592844  44.8504877
  65.5485582  40.4238892  45.9402323  67.5774050  68.9607620  59.6395445
  67.5176620  68.1384087  60.1257563  67.3791456  69.6369696  60.2873659
  70.0245190  68.2898092  38.3535624  69.2173243  68.0653667  38.8164878
  69.7304916  68.6090803  37.5004220  14.4141158  66.4566519  37.8655472
  14.5009907  67.2284868  37.3061218  13.5065850  66.4816024  38.1688442
  75.3935909  61.2090397  50.8241081  74.5462227  61.0907888  51.2533045
  75.1792765  61.5855598  49.9705648  61.1582678  27.4091311  28.9542904
  60.7099741  28.1239481  28.5022869  61.7934435  27.0834751  28.3165302
   9.2012270  51.4157894  28.2495728   9.5235976  50.5157711  28.2018700
   8.8339623  51.4923027  29.1301861  72.3471355  78.5652876  48.9771891
  72.1059322  77.6394367  48.9479828  71.5487909  79.0120077  49.2588329
  81.6591034   8.6300414  60.3948593  81.0290727   9.0779536  59.8303556
  82.2139845   8.1370108  59.7904968  19.8352822   0.1991122  54.7668552
  20.2102478   0.9565966  55.2161407  20.4916485  -0.0404031  54.1126060
  14.0235108  21.3236828   5.8016720  14.7980993  21.8553562   5.6184712
  13.3964556  21.9377013   6.1837998  72.3749733  60.1713896   2.4020743
  71.6549015  60.6073523   2.8577712  72.1113586  60.1719427   1.4818907
  57.8726149  61.5837812  51.1469889  58.7965965  61.7278051  51.3513136
  57.4704266  61.3757753  51.9903183  72.9485759  76.5156295  15.5847874
  73.1952724  77.2248032  14.9911156  73.4932956  75.7764604  15.3143349
  37.8134831  77.2989228  23.5842648  37.5039013  77.2270658  24.4871655
  38.6993035  76.9368079  23.6052551  77.2885618  58.4971931  13.5976544
  76.6724739  58.6995258  12.8935662  76.7367944  58.3689871  14.3692341
  66.1910456  50.6643601  15.2808418  66.9851320  51.0588665  14.9202481
  65.5370730  51.3621254  15.2398625  47.2595995  21.8418904   7.6214400
  47.3369806  20.9481402   7.9552832  46.3175839  22.0109720   7.6057186
  11.8133315   3.0229419  54.2289829  11.9198855   3.0224555  53.2777309
  12.6693734   3.2875579  54.5657396  52.9553335   8.7493868   8.0054560
  52.3958128   8.1391688   8.4858742  52.4792784   9.5795031   8.0282107
   1.7762088  61.1049175  63.0614567   2.4367427  60.8647823  63.7112713
   1.5985297  60.2917624  62.5887632  83.2495594  47.3806429  61.6294241
  82.5203609  47.1170664  61.0681534  83.4110546  46.6187286  62.1858740
  14.3120669  63.8287354  57.8611565  14.4650077  64.7466612  57.6369810
  15.1328563  63.5395765  58.2598066  22.4916905  27.3111029  21.4069786
  22.0700472  26.6761942  21.9860687  22.5459831  28.1118698  21.9285717
  71.5073793  64.6702214   3.0744114  70.9683436  64.2670555   2.3938837
  70.9639662  64.6365567   3.8616839  28.3827084  36.3217898  51.1851158
  28.5747688  37.2102232  50.8850613  29.2284983  35.8740588  51.1648598
  76.2040728  59.5748158  17.5268498  76.9935339  59.2992039  17.0609989
  75.6133860  58.8243981  17.4619522  84.1382164  56.3050289   1.8100062
  84.2361898  56.3156338   2.7621212  85.0350541  56.2698574   1.4773264
   6.4191397  68.3688691  29.0264263   6.9498404  67.6907160  28.6084595
   5.5225714  68.0377748  28.9737549  28.2817524  21.9012804  31.6893521
  27.5325602  22.3627444  32.0661774  28.9618652  22.5705595  31.6135445
  71.4367580  46.4161634  69.7259712  71.8687391  45.8554506  70.3703499
  72.0228863  46.4069796  68.9692640  42.5981920  41.7704029  19.7080174
  41.7852800  41.6271134  19.2233887  42.5783175  42.6988716  19.9399128
  76.2109518  21.0883760  37.7501059  76.8137550  21.8196416  37.6155400
  76.7424297  20.4148436  38.1745028   0.3958662   8.5747187  56.2932730
   1.2667473   8.2363074  56.0852337   0.1018246   8.9929526  55.4840422
  46.5986937  33.7530966   8.8330355  46.1737173  33.1760569   9.4675865
  45.8827656  34.0758248   8.2857456   6.1938112  25.5042000  13.1095829
   7.0412987  25.3234263  12.7029934   5.5901759  25.5995388  12.3728600
  63.2328528   5.3462477  15.9121933  62.8172319   5.3277226  15.0501290
  63.7309568   6.1635943  15.9204235   4.0869387  63.3275344  31.7330590
   3.1999024  63.0296853  31.9347611   4.1675433  63.2157495  30.7858315
  10.1484402  75.0073054  12.8470650   9.6735581  74.2204692  12.5794735
  10.9659918  74.9741914  12.3503247  50.6381083  78.0640411  67.5442886
  50.1334620  77.5682354  66.8995094  50.0660038  78.7917089  67.7880716
  54.8745108  70.4434824  60.0908089  55.6795263  70.2272606  60.5613756
  55.0629520  71.2801361  59.6656799  52.3585814  24.5499392  10.2723732
  52.1187609  23.7076016  10.6586113  51.5735643  24.8296995   9.8015013
   6.6824435  21.8730855  60.0900412   7.1156119  21.1725926  59.6022844
   6.9348239  22.6750541  59.6324587  62.0503061   4.9499722   3.1244793
  62.3290365   5.7513542   3.5675659  61.3607424   4.5939226   3.6848059
  22.8689440  74.1009381  12.1120873  23.8012227  74.0354111  12.3189392
  22.6896151  75.0411870  12.1098271  34.0784615  30.1843424  19.5053139
  34.4466513  30.9948654  19.8570481  33.3738440  30.4732247  18.9254132
  59.5101278  29.3424340   0.3956642  58.5671919  29.1796751   0.3710022
  59.6923750  29.5565148   1.3106480  39.6393784  48.8482609  11.5577259
  39.5764454  48.1113698  10.9500542  39.9116715  48.4531333  12.3859539
  21.4636200  25.7563944  23.0784836  20.5538958  25.9996481  23.2501164
  21.4042729  24.9291535  22.6005879  12.7576827  52.9856730  66.9894028
  13.5229777  53.0537748  67.5602961  12.0219993  53.2480860  67.5427055
  44.5454168  52.3249722  59.3100023  43.5939741  52.4297285  59.3145514
  44.8069096  52.4719810  60.2189779  80.5688190  80.5757141  46.3724184
  80.1217461  80.2867985  47.1679592  79.8686028  80.6778145  45.7278156
  59.2381716  46.6688156  31.4807940  58.3511400  46.3206148  31.3904095
  59.7803068  46.0834217  30.9519887  22.0140131   8.9439147  53.4587431
  21.8694743   9.7311538  52.9337835  21.1520155   8.7340873  53.8181400
   3.8603171  74.9525549  16.3023129   3.5353144  75.8316114  16.4969006
   4.4841870  74.7670438  17.0041695  23.9842868  68.6751604  62.0963860
  24.0974164  69.1529322  61.2746954  23.7155533  67.7966595  61.8275928
  47.1986168  35.8779974   2.1731653  46.6150730  35.9354229   1.4165869
  47.7852409  36.6287012   2.0807114  49.3157404  43.7049122  11.8892708
  48.8519781  42.9358311  11.5580979  49.2568319  44.3442364  11.1793175
  24.5997542  21.0868426  33.3768692  24.9004763  20.6732674  34.1860333
  24.8339527  20.4644509  32.6883831  15.1349410  14.8866790  66.5512180
  14.6319779  14.3580478  67.1707487  14.4789942  15.4240649  66.1071682
  41.5053528   3.8832255  24.4379654  41.7621105   3.6391802  23.5487309
  42.3146980   3.8243361  24.9456349  51.4425772  48.2207985  19.4611206
  51.4976328  48.5259838  18.5555496  50.8952826  48.8717575  19.9003926
  83.5953999  54.6502256  44.6976995  83.4894753  55.5604029  44.4209576
  82.7471447  54.4137001  45.0728798  36.2721642  73.1045988  44.3776360
  36.5924939  73.7579324  43.7557259  35.3189381  73.1505063  44.3035164
  62.2935185   3.6252539  52.3346710  62.7854571   3.1306117  51.6792679
  61.4678964   3.1492369  52.4240351  26.9270619  70.0139215  34.1212788
  26.9720086  69.1307690  33.7548771  25.9919175  70.1724460  34.2501679
  81.8708897  18.7843823  66.8888760  82.3820019  18.1305969  66.4118433
  81.8886280  19.5590019  66.3268423  53.0277079   5.8235092  31.4525833
  53.9841192   5.8425064  31.4866390  52.8255861   5.5152054  30.5692234
  60.5939596  26.8176813  15.9326973  60.5898016  27.7359076  16.2030163
  60.0043028  26.3837977  16.5493717  26.9565504  41.4922734   2.9001942
  26.8073052  41.8920822   2.0433941  27.2348135  42.2185250   3.4581938
  58.2947540  71.9099998  66.5179157  58.2231140  71.3077545  67.2584581
  58.0725670  72.7663708  66.8832827  61.1897486   7.8928299   6.7612639
  61.1807745   6.9358607   6.7804423  60.3633898   8.1483622   7.1712198
  11.4426803  65.5615854  59.5187521  11.1379622  64.7322655  59.1505098
  11.8662547  66.0079527  58.7855625  36.3233154   8.2668228   1.0660210
  37.2705095   8.1287642   1.0662022  36.0136479   7.8038807   1.8444958
  74.0948695   1.8894882  12.0772782  74.7326619   1.6438122  11.4071312
  74.4144422   1.4713402  12.8768101  48.6490631  51.5760946  48.6487007
  49.3963051  51.5076780  49.2429876  48.9420843  52.1770048  47.9636621
  69.7233599   0.6621237   3.3012905  69.3238943   0.2770729   4.0812865
  69.1313093   0.4255266   2.5873413  16.0600107  29.8629780  16.8824234
  16.9964712  29.7047682  16.7630902  15.7170218  29.0326519  17.2128144
   3.5629939  73.7003708  46.5166187   3.0524825  72.9187775  46.3051367
   4.0789889  73.4493637  47.2827673  33.6383694   9.0326805  31.9441357
  34.2192667   8.9060993  31.1939564  33.0831497   9.7715779  31.6951409
  14.9695461  55.8073349  28.5440865  14.2578858  55.9326382  29.1718426
  15.4866188  56.6105767  28.6047306   2.3921164  65.6328537  10.4166928
   2.8167685  65.9041193   9.6028605   1.4839753  65.9195163  10.3200760
  19.9372070  23.8950653  35.6383648  19.9689167  23.3046026  36.3910809
  19.0102881  23.9329262  35.4025402  45.5639124  37.7925086  65.8243418
  45.5144119  37.0525646  65.2191401  46.4667225  37.7819443  66.1422300
  21.6631659   3.3457034  57.5815773  21.7098959   2.8047984  56.7932367
  22.1909483   4.1169398  57.3745155  65.3142023  73.8557482  49.9564505
  65.2924538  73.3816862  49.1251707  66.1996174  74.2163944  50.0034094
  66.5502453  27.8735328  60.8774853  66.0458517  28.6869907  60.8671856
  66.2916660  27.4211907  60.0745201  70.4466360  57.3297329   7.7710953
  70.5744474  58.2258721   8.0822697  71.3299101  57.0142956   7.5799170
  -0.0171853  58.4957933  42.1591282   0.6564998  57.8182793  42.1011591
   0.4716777  59.3184710  42.1801519  41.1719912  53.2681675  18.9192906
  40.2829807  53.1359024  19.2485371  41.0936611  53.9976425  18.3045140
  81.3181696  76.5918066   3.1687918  80.8630380  76.9112709   3.9479151
  82.2335205  76.8333938   3.3101883  28.5456847  76.3335323  68.1801510
  29.4795512  76.1548328  68.0697584  28.1203269  75.4904985  68.0233145
  70.9661692  40.4751320  11.8609657  70.7425802  40.9524651  11.0619679
  71.5815085  39.8008938  11.5728989  26.0261648  34.6611233   3.7561884
  25.1431387  34.3168850   3.6220350  26.1359089  35.3147526   3.0655661
   0.6230505  79.6377423  48.1539097   1.0315045  80.1522162  48.8501206
   1.3205965  79.5077517  47.5114384  28.8106602   7.6553793  47.1126309
  28.9317911   7.0215578  46.4056435  27.8628224   7.7787037  47.1639481
  61.1222696  74.8000717  56.3490438  61.3278723  74.9370718  57.2738123
  61.1484146  75.6766605  55.9654617  21.5938376  75.2435827  55.5305719
  21.3957309  75.9371328  56.1598396  22.1672915  75.6603813  54.8874092
  36.1344241  63.0389452  63.5255098  35.6687735  63.6441708  62.9483604
  36.7514895  62.5864792  62.9504061  68.0988121  63.9315701  42.4779749
  69.0029287  63.6868429  42.2807264  68.1729078  64.5715094  43.1859446
  13.2312583  75.0611019  21.5337658  12.4508475  75.1345778  20.9844089
  13.3527945  74.1190958  21.6524482  23.6674603  11.4675753  51.2825727
  24.0109166  12.1388762  50.6929779  23.5283669  10.7045501  50.7216120
  65.1657772  55.7796907  60.5157995  66.0280704  56.1927605  60.4705048
  64.6926212  56.1296225  59.7608805  54.0738106  56.2224817  64.4329786
  53.5211372  55.8390570  65.1139832  53.4980202  56.8332672  63.9729357
  39.0776318  24.0116520  17.3400822  38.7980717  24.4064541  18.1660404
  38.8902872  23.0788441  17.4449768  38.1694906  53.1763001   8.6452332
  38.0985516  53.2495423   7.6934805  38.1828802  52.2339363   8.8125982
  16.5239047  48.7105751  48.1923008  15.9864711  48.1889629  47.5962162
  17.2887133  48.9566994  47.6719904  29.8067855  59.9077272  62.2369623
  29.1268729  60.1356030  61.6029072  30.1571559  60.7504082  62.5256872
  29.9576920   9.1588040   6.2565127  29.4206923   9.3140145   5.4794874
  29.8356169   8.2294054   6.4502850   6.8248709   3.7642329  66.3178921
   6.0192831   4.2691081  66.4290810   7.3770960   4.0292971  67.0534325
   1.3974284  73.3362436  53.1742287   0.7997512  72.8325653  52.6216698
   0.9393882  74.1617823  53.3320761  32.2643488  27.0202847   4.5591345
  32.8305500  27.7855845   4.4593420  32.0974176  26.9669218   5.5001536
  63.8158529  12.0594902  16.7733040  63.4806555  12.3599835  17.6180306
  63.9790552  12.8637333  16.2805691  43.7542391  60.5777359  36.7046475
  43.8642168  60.2509069  35.8117199  42.9748487  60.1274252  37.0302272
  28.9024275  39.7915383  12.1260681  28.9522188  40.7160778  12.3689213
  29.7967356  39.5616360  11.8738976  48.1678885  19.1498299   9.6741715
  48.5136383  18.3174153   9.9963083  48.9190643  19.5785589   9.2641010
  17.7510460  14.6756785  60.9087467  16.8962868  14.2479651  60.8570004
  17.9307517  14.7390788  61.8467855   5.8964213  18.8939994  61.5857744
   5.1119383  18.7003939  62.0989466   5.6104859  18.8228267  60.6750584
  59.0107658  19.6202720   3.7352123  59.3768003  20.3599227   4.2201605
  58.0740669  19.6457637   3.9305821  24.8624133  78.8860798  58.0293226
  25.7499026  78.6952686  58.3329487  24.4597625  78.0258465  57.9105854
  70.2399271  54.2887802   6.1892929  70.5832213  54.6300431   7.0150748
  70.8798616  53.6308689   5.9175101  41.9301241  47.2545834   1.6817322
  42.5520342  47.7931805   2.1709862  41.4091890  46.8181248   2.3557940
  25.4314717   3.5069125  65.7786369  25.4380330   4.4607299  65.6985044
  26.1838349   3.2179969  65.2622032  45.7165592  19.6964093   8.5015764
  46.4427059  19.3301029   9.0063181  45.3242319  20.3469582   9.0838995
  51.1945200  73.3759832  53.3964682  50.2968073  73.1173468  53.6049271
  51.4177036  72.8621817  52.6203060  66.9481659  66.5014267  53.9399242
  66.2322044  65.8663607  53.9220572  66.6513968  67.2129631  53.3725834
  73.3740720  13.6562198  58.9983654  72.7326355  14.1489833  59.5101976
  73.0975732  13.7748854  58.0896854  44.9602509  76.0553312  58.1208134
  44.4409704  75.2908611  57.8714800  44.3354893  76.6394329  58.5506105
  74.1060877  70.7179213  54.5195961  74.2758703  71.5513515  54.9586868
  73.9194822  70.1058149  55.2314520  76.0592565  12.6249354  64.3021917
  75.5166874  12.6983207  63.5170364  76.9554910  12.7372020  63.9853525
  14.8304366  78.3969545  34.5155525  14.8636435  77.5032997  34.8568821
  13.9683913  78.4646797  34.1050434  26.6838359  74.3255424  54.4924212
  27.5127982  74.1940498  54.9525976  26.9253539  74.7926998  53.6926317
   9.8576926  62.7991390  66.5773201  10.0371169  62.0965767  67.2021723
  10.6506442  62.8535891  66.0439444  29.8589724   7.1145792  27.3178997
  29.6220940   6.5558405  28.0581227  30.7727068   7.3502512  27.4784699
  39.3892487  24.8852485  38.3540511  38.8440712  25.1209300  39.1046977
  40.2338799  25.2988665  38.5322022  71.2901926  76.9204950  22.4679565
  72.1748209  77.2573614  22.6100183  70.7874155  77.6820755  22.1790862
  56.5745354  79.0365601  56.0975885  57.5260782  79.1400242  56.1071491
  56.3000202  79.2632961  56.9861078  80.9628773  68.7215471  67.2540379
  80.8082104  69.2817879  66.4934826  81.8584633  68.4037685  67.1392679
   3.3764669   3.1591144  47.2843933   2.4663451   3.4547517  47.2618484
   3.3959341   2.4962030  47.9746103  52.9645285  19.6756675   3.0439797
  53.5691270  20.1509454   2.4740639  52.7255234  20.3089275   3.7208023
  81.7200247  68.9095504  55.8581638  82.1962205  68.5817320  56.6210556
  80.8531968  68.5093803  55.9267664  31.3818836  18.5331571  62.7310705
  31.8051338  17.6849353  62.8637838  31.9771028  19.0099406  62.1526051
  32.1337706  35.5946981  10.5343285  31.5810961  35.5818128   9.7529068
  31.8490127  34.8345884  11.0416546  12.4678936  68.1087286  31.7761588
  13.2480994  68.6629946  31.7933822  12.7099934  67.3717315  31.2153983
  32.7153292  68.2861561  41.9839954  32.5553599  67.3446567  42.0489740
  33.6114445  68.3546681  41.6545725  56.2190375  40.0169778  15.2428284
  56.4615640  39.4991545  14.4751873  57.0201287  40.0609889  15.7648888
  20.9187260  27.5420816  31.6908979  21.5259972  26.8995292  32.0577502
  21.4681902  28.1094320  31.1501241  10.6644025  53.6831100  18.9238274
  10.5474034  52.7489431  19.0966725  10.9437027  53.7243182  18.0092096
   5.1029601  75.7071350  45.3212452   4.6869269  74.9559654  45.7442045
   5.2471724  76.3323967  46.0315180  20.4748335  75.0481583  26.6184998
  20.6481543  75.3466375  25.7256937  19.6594563  74.5513452  26.5509081
  85.1770464  67.6767499  56.2930822  85.0996248  67.2682721  55.4308844
  85.8346097  67.1513040  56.7488766  74.9693737  21.3520648   0.6853905
  75.5010852  21.0909703   1.4372864  75.6013212  21.6906311   0.0511589
  31.7189446  79.6416406  53.2237339  32.3051730  79.7323743  52.4725103
  32.1659317  79.0246805  53.8032103  18.7848225  52.7966268  61.9831944
  18.4951964  52.4709732  61.1309624  18.1244746  52.4778135  62.5984430
  68.1030044  67.9276969   6.0668316  67.5466857  68.2880547   6.7574015
  68.8961515  67.6443508   6.5216580  30.4035497   6.6669983  52.6103830
  29.6206069   7.0126355  52.1817064  30.6504011   7.3441279  53.2402992
  71.4156160  25.3759172  22.7304497  71.7960558  26.1205735  23.1962719
  70.9497938  24.8833325  23.4061756  34.5799532  68.5982151  57.5523090
  34.3332234  68.2682068  58.4162855  34.0577021  68.0800922  56.9399118
  14.2628231  47.4675328  14.8036432  14.9084082  47.7749760  15.4399848
  13.6011067  48.1587894  14.7807169  74.0670833  43.4658872   6.8523541
  73.4768781  44.1330918   7.2026768  73.9689693  42.7228569   7.4477616
  75.8134667  75.3395773  62.9796553  76.7047111  75.0817163  63.2150793
  75.7372490  75.1179374  62.0515966  51.4182481  79.2551711  20.1890221
  51.4067731  80.1790407  19.9388828  52.1761260  78.8923075  19.7305622
  10.3639379  67.3704345  42.5310135  10.0509372  67.9699428  41.8536282
  10.3123584  67.8769500  43.3415794  59.6401534  51.7093053   8.4821263
  59.3905005  52.5210848   8.0406323  59.9150405  51.1264780   7.7743283
  46.2353134  32.1142673  16.4680338  46.0218859  32.9066253  16.9608331
  46.2913132  31.4270639  17.1319973  32.8950810   9.7738332  48.1211090
  32.2653246   9.9058312  47.4124336  33.5245800   9.1450649  47.7681017
  27.2014570  13.4949446  69.2902136  26.4475822  14.0842414  69.2650652
  27.9449654  14.0466893  69.0472984  28.9288068  47.2606202   9.7227469
  29.5943947  46.6220244   9.9785223  29.3305975  48.1105372   9.9028483
  71.4914791  58.3285839  36.5193534  71.8172828  57.5180967  36.1279511
  71.9401030  59.0240462  36.0384154  68.5794696  29.7241642   9.5143738
  69.4077739  29.9314215   9.9470368  68.1960091  29.0304091  10.0509300
  69.1806898  32.7483585  24.4495716  69.5470008  32.1688154  25.1175442
  69.3446502  33.6308410  24.7820988  17.3100129  49.2488010  32.5583148
  17.5229969  48.8741357  31.7036247  16.3534346  49.2405374  32.5918055
   6.0459843  51.8868620  63.8871288   5.8641234  50.9492571  63.9508200
   5.5710497  52.2734697  64.6227932  23.1997719  77.1771640  44.9360847
  23.5232201  76.6279472  44.2219639  22.6672354  77.8442327  44.5028925
  73.7260685  40.7963944   8.6096087  74.5832595  41.0774753   8.9296904
  73.9234743  40.2147168   7.8754988  41.8463182  26.2263417  61.7920542
  42.1515226  25.8175611  60.9821272  41.5494823  25.4943490  62.3327112
  57.4661303   6.0098690  40.2391720  56.6562986   6.5171117  40.1833439
  57.8011560   6.1894608  41.1176538  40.5990124   3.3505556  44.4089746
  41.4156580   3.4685755  43.9238071  40.2602530   2.5080022  44.1063547
  51.1290646   7.9017061  13.2388794  51.9597435   8.3593732  13.3682632
  50.8472633   8.1603146  12.3614156   4.1741904  37.8375421  10.8757344
   4.4860180  36.9856521  10.5703202   3.2653626  37.8805938  10.5783978
  58.9976844  31.3752665   3.8285389  58.5540518  31.6703608   4.6237364
  58.9321003  30.4207661   3.8578549   3.3026376  43.9783318  30.6655312
   3.4971347  44.9078448  30.5454850   3.7353697  43.7472923  31.4874768
  35.6140471  36.9533181  49.1265011  35.5827570  36.0870409  48.7205219
  35.6643629  37.5616813  48.3892107  62.3534155  33.3928800  34.3014240
  62.9289675  33.8593268  34.9075580  62.9040766  33.2117200  33.5397243
   9.2264470  63.1962111  31.7137184   9.2863568  63.0918028  30.7641163
   9.8664673  63.8772275  31.9206467  25.0323980  13.9176007  20.6716290
  25.8210438  14.4549532  20.7459011  25.2582758  13.2487841  20.0251808
   7.7829039  10.8836174  48.4716415   8.3150333  11.2454867  49.1802454
   8.4159160  10.4741168  47.8818655  32.5997963  69.1234035  18.6958182
  32.4668494  69.4130535  17.7932334  33.5499707  69.0520436  18.7869656
  49.8892164  15.3765368  58.2368803  50.6950951  15.7218611  58.6209965
  50.1748753  14.9366570  57.4361658  16.6779146  26.3192477  31.8212929
  17.4058661  25.7025888  31.8990841  15.8972845  25.7660058  31.7935124
  74.4411413  80.3608388  51.7770481  75.1826505  79.9075187  51.3759279
  74.3720249  79.9791902  52.6521444  10.1989284  71.9117976  40.0641870
  10.5447140  72.4818302  39.3773651   9.8326459  72.5131101  40.7126427
  56.4323717  75.7137615  38.2914972  56.3331841  74.7695173  38.4131384
  55.6588981  76.0917185  38.7099695  36.6791892  32.5135589  46.4808226
  37.0678949  31.6634941  46.6870499  36.2112761  32.3697424  45.6582642
  12.3878136  47.8948433  43.7877703  11.7696896  47.1709830  43.6868811
  13.2466164  47.4988134  43.6399603  18.9746085  79.3424568  22.8746200
  19.1983452  80.2707588  22.9411840  19.0835562  79.0054662  23.7638903
  60.8788919  10.6107688  63.2632589  61.1163044  10.2393508  64.1129160
  61.4336634  11.3860583  63.1773233  50.0205660   0.3902572  63.8817072
  49.1352177   0.5190190  63.5414028  50.5053902   1.1606214  63.5855389
   3.9535275  65.1932783  67.7809858   3.1532612  64.7888858  67.4459171
   4.4698992  64.4604177  68.1164074  30.8326712  75.2214296  43.9559031
  31.3476935  74.9157686  44.7025967  30.6927719  74.4376577  43.4245253
  42.5095930  77.6041351  57.6791859  42.3965063  76.9264586  57.0127058
  42.5914231  78.4178939  57.1818638   3.8879695  79.5163199  54.2273998
   3.1233969  78.9404646  54.2202330   3.8021698  80.0182691  55.0379038
  60.4948950  20.6710863  45.7952356  59.5629072  20.6596303  45.5773067
  60.5702019  20.0944138  46.5555048  83.2949648  43.0539864  25.9891834
  83.3495483  43.3878591  26.8846073  82.5273046  43.4887570  25.6178322
   3.5149439  57.5914147   0.0985613   3.4942921  58.5113683   0.3621664
   3.1867751  57.1161165   0.8618584  62.2394046  19.0202453   6.0213890
  62.3223266  19.8572519   5.5644694  63.1240472  18.8286545   6.3327255
  18.2077992  25.9834838  23.0764866  18.6345243  25.5357456  22.3459601
  17.4686694  26.4423728  22.6773119  81.0906086  63.9700129  25.3829041
  80.6354389  64.8079469  25.2997437  81.7242298  63.9693882  24.6654453
  60.9162712  21.6067076  52.7524137  61.7612982  21.9000626  53.0931473
  60.3454542  21.5776181  53.5202360  62.7838135  19.0599072  50.6213474
  63.2051611  18.6985207  49.8415422  62.9778337  18.4275472  51.3132381
  25.2962103  74.7352923  43.6487579  24.5228520  74.4727320  44.1479635
  25.5465498  73.9489532  43.1637526  40.6267357  25.5866289  69.1436338
  41.3579655  25.1589227  68.6979818  39.8490620  25.1356697  68.8148594
  82.4214134  64.2233422   7.3992911  82.2323236  63.8922670   6.5213003
  82.9696760  64.9939706   7.2517433  64.5279789  50.4687738  36.7002368
  64.1765308  51.1842775  36.1703563  65.3399372  50.2200699  36.2585354
  11.0254848  32.4656916  45.2210379  11.8185151  32.9980397  45.2838182
  10.5196810  32.8715467  44.5169926  64.8769188  30.8010554  56.2346172
  65.7989645  30.6809616  56.4618731  64.8351526  31.6810346  55.8602858
  34.5408535   3.9060757  63.1125927  34.3374467   4.6385157  63.6943054
  33.6989903   3.6674261  62.7245903   1.3200822  70.3879351  41.2910032
   1.7805424  70.8339549  42.0018291   1.8440118  70.5745829  40.5119705
  10.5073079  61.3572409  12.4154988  10.9696969  61.0718205  11.6274872
  10.0068959  60.5891802  12.6909962  35.7038474  31.2516236  22.0921564
  36.1396813  30.4461789  21.8137026  35.7905841  31.8419552  21.3436818
  45.0463724   4.0290320  28.0584693  46.0034323   4.0169325  28.0692720
  44.7911930   3.3279556  28.6581421  70.6067991   8.9149940  39.8455763
  69.9490929   8.7906456  39.1613317  70.1136303   9.2523879  40.5933619
  47.0693588  22.1029663  68.4128094  46.3342905  22.6920462  68.5827875
  47.0870495  21.5174198  69.1698122  43.5045481   1.4244737  48.3836508
  43.4276152   1.5291847  47.4353123  42.9947090   2.1486819  48.7467241
   8.2101741  57.3114545  68.8373089   8.1331840  57.2534020  67.8849792
   7.8529373  56.4831192  69.1574240  55.6393576  22.2242951  47.0415783
  56.3804150  22.8191543  46.9266367  55.8923388  21.6657639  47.7766132
  34.1865110  26.0093737  64.7268915  34.4286680  26.2898636  65.6094551
  33.2813597  26.3026166  64.6222830   6.7967206  47.9775606  63.3429435
   6.9372302  47.0713727  63.6173723   6.2197858  47.9106782  62.5820849
  36.8131042  13.9157498  11.8282902  36.3794684  14.6938109  12.1787369
  37.7015710  14.2079735  11.6246641  54.4998726  16.2407663  18.7038079
  54.2802415  15.4463556  18.2170716  55.4505500  16.3166287  18.6220303
  25.7532540  44.3182118  43.4286451  24.8330441  44.0630347  43.4945059
  26.1910572  43.5456307  43.0713272  37.3425007   3.7357643  43.9101458
  37.2548413   4.0948349  43.0271864  38.2863688   3.7162384  44.0681505
   5.3021335  20.3582287  64.8754263   4.5107077  20.8871579  64.9759960
   5.7784556  20.7741237  64.1568327  41.5466404  26.0444045  22.9088664
  41.2274265  25.2093220  23.2508755  42.4402666  26.1148405  23.2445836
  60.9381819   7.9912758  25.3189611  60.1501226   7.7253836  25.7927752
  61.6140270   8.0532360  25.9939575  41.8302676  64.6971109  11.7190972
  42.3791632  65.3364565  12.1731701  42.2790978  64.5436718  10.8876839
   3.8818732  76.1238513  30.4014683   3.1155172  75.6721629  30.0480485
   3.6252036  77.0455954  30.4286861  65.1408991  44.4966727   3.8913336
  64.5181617  44.1497614   4.5301476  64.8746023  45.4077204   3.7676039
  22.9814148   3.3410978  67.0364523  23.8811684   3.3335102  66.7099285
  23.0652666   3.5598290  67.9645491  71.7486668  13.7675464  47.6164770
  71.4486647  13.5994697  48.5097742  72.5975370  14.1962039  47.7255678
   6.5306225  78.5117071  47.9948711   6.3846698  79.4575879  47.9794025
   7.2468272  78.3697195  47.3759031  58.5115433  19.9497557  49.7489071
  58.3660793  20.8824801  49.5904827  59.4154167  19.7980320  49.4728088
  12.3602810  62.7660675  51.4254141  12.2706070  63.6112005  51.8658018
  11.4817324  62.5717182  51.0988998  45.5764470  38.9473095  11.4124909
  44.8819635  39.2539061  10.8294621  45.9314022  39.7459526  11.8028870
  25.8578482  57.1250589  29.8824286  26.1672583  57.9069955  29.4251823
  25.7946244  57.3929674  30.7991934  68.9119539  23.0031242   6.9143477
  68.8869629  23.1941309   7.8519669  68.0175314  22.7379873   6.7000094
  29.2252564  19.1187048  47.3699951  30.0719547  19.4786370  47.6341629
  29.0064740  18.4909534  48.0586863  83.2782460   5.9222227  49.0455532
  84.1991932   6.0559523  48.8214874  83.2959686   5.2907950  49.7647285
  27.8364602  57.9795558  49.5437002  28.0136004  58.1218798  48.6138630
  28.0183449  58.8248737  49.9542999  61.1212912  59.6362955  51.8270254
  61.6831293  60.3562600  51.5402842  61.5350237  58.8516981  51.4672136
  52.7835646  71.9186170  44.7505760  53.3735266  72.4183578  44.1862822
  53.1677428  71.0424818  44.7826052  77.1247951  32.6104934  60.6875658
  76.7048172  32.3414333  61.5045452  76.6834418  32.0970351  60.0109625
  79.8818771  70.5865104  36.6832614  79.8312203  71.4697511  37.0487070
  80.0454418  70.0233168  37.4397588  79.3335454  61.7037649  37.3483610
  80.1092354  61.5048260  36.8239951  78.8753358  60.8668871  37.4252534
  22.6685500  29.4531751  67.0689297  21.9402122  29.8353100  66.5793037
  22.2703505  28.7478662  67.5790358  77.4290571  74.0355136   2.9778233
  78.2735977  74.0562036   2.5277605  77.6252279  74.3255808   3.8686695
  41.2063751  32.8040739   2.2272148  41.1037812  32.2555103   1.4495316
  41.3730619  32.1841934   2.9372778  57.3466072  59.9702635  12.6758232
  57.5371537  59.6885982  11.7810669  57.6907978  60.8621075  12.7246037
  11.8133028  61.0533192   3.8587084  12.5460299  61.6572001   3.7375727
  11.4951619  60.8818963   2.9723540  38.9808795  46.9309505   1.5301409
  39.1824660  47.8603020   1.6392269  38.2844898  46.9123682   0.8736935
  47.6715755   1.5089679  62.6665068  47.0221758   0.8746391  62.3629665
  47.5773239   2.2520621  62.0705557  32.6833630   3.0595997  50.6906796
  32.4804854   3.9947563  50.7142258  32.5362515   2.7599421  51.5877867
  23.6830872   2.2985764   6.6932955  23.1153219   3.0620833   6.5887680
  23.2126301   1.7321987   7.3049488  75.7184092  74.2293395  57.4159670
  75.8888535  73.7287659  56.6180897  74.9096314  73.8550950  57.7653265
  21.7594767  34.3980336  67.0853472  21.4267778  35.2741337  67.2802734
  22.3855686  34.2180705  67.7866650  68.1203747  39.5326567  22.1171308
  67.8816414  38.6886215  21.7339301  69.0536833  39.6268082  21.9265914
  64.0342808  17.9055190  48.4097052  63.9473391  18.3448327  47.5637293
  64.6467733  17.1885133  48.2454205  65.0573301   4.6838206  57.2678232
  65.5406141   4.2270386  56.5793324  65.6116915   5.4304820  57.4945688
  17.7978411  77.2110201  41.8255758  16.9093981  77.1373675  42.1741056
  18.3607664  77.1961964  42.5996113  73.7683153  18.8844752  59.1727734
  74.4992352  18.3090436  58.9472342  73.7515020  18.8864255  60.1298237
  29.9145436  36.2186790  59.1524172  30.7729173  36.1536455  58.7338543
  30.0807381  36.6924906  59.9673510  63.8876677  20.8120418  13.6507857
  64.7250748  21.2354970  13.8396370  63.5109329  20.6315613  14.5120239
  12.4259892  77.2242514  41.9703341  12.0346203  77.9830698  41.5376043
  11.6784802  76.6930325  42.2446823  23.4568062  74.9070008  47.1003819
  23.0857220  74.0929074  46.7601156  23.0285111  75.5961121  46.5925264
  67.7971649  38.5823321  62.4473286  67.9457760  38.3937240  61.5207338
  67.1643686  39.3005204  62.4470711  19.6490708  68.9051444  39.6302390
  18.8064661  69.3153150  39.8252034  19.9494496  69.3420679  38.8333058
  37.3872128  75.9346486  49.4626045  38.1315937  76.3973386  49.8473787
  37.5251093  75.0181944  49.7020388  41.4408443  25.3196039   4.2871180
  42.1803186  25.9222403   4.2081204  40.7222089  25.7617357   3.8351050
  24.7329783  37.2924423  56.9825745  23.9330292  37.2210288  56.4617920
  25.1672602  36.4466667  56.8717003  18.4416604   6.8448502  64.1971540
  18.9008093   6.2404859  64.7803879  17.8801918   7.3582155  64.7780514
  30.9430170  19.5755959  57.8157902  31.1875367  20.2448130  58.4549999
  30.3710985  20.0316668  57.1984243  43.0352631  56.0291035  58.0277109
  43.9647189  56.1329682  58.2315636  42.5814000  56.3745982  58.7963915
  15.4161223  50.4642155   5.8786192  15.7962044  51.1748793   5.3621569
  15.4223593  49.7099849   5.2892723  20.0336161  61.6869588  39.4396639
  19.2123881  61.4296717  39.8587322  19.8447838  62.5384743  39.0453362
  20.0184145  41.7712528  50.0210810  19.6060791  42.3834188  50.6305599
  20.3259077  42.3212464  49.3005323  16.9694415  74.4811399  38.6476016
  16.1630097  74.7900725  39.0604711  17.6704684  74.8754955  39.1665173
  73.0020723  72.0663264   6.1610165  73.4787759  71.5666797   5.4981938
  72.2510109  71.5155604   6.3819161  28.9423266  75.8624093  27.4440169
  29.6674815  75.2682037  27.2508717  28.1638184  75.3981430  27.1364307
  47.8303528   6.5511018  52.7179718  48.1718731   5.7524979  52.3156977
  47.7895546   6.3497996  53.6528778   1.4308014  72.1029134  19.0880609
   0.6056395  71.8786813  18.6578763   1.2356415  72.0487238  20.0235868
  78.9176647  48.6043770  24.6202683  79.3535964  48.9744289  23.8526368
  78.9061610  49.3190605  25.2569222  30.5337658  67.8957040  68.1649160
  31.2898150  68.3326227  68.5569954  30.7003966  67.9279954  67.2228813
  42.9026482  40.1574993  32.3436680  42.9615376  40.0516386  33.2931748
  41.9916269  39.9501801  32.1356049  19.8917475  48.4015925  33.9319015
  19.0754357  48.7609012  33.5843825  20.5189219  48.4948761  33.2148385
  77.8647915  80.2862969  33.0666804  76.9772235  80.3210437  33.4233999
  77.7412597  80.1122940  32.1335721  84.7816459  66.2655766  43.3441687
  84.6063963  66.8392021  44.0901375  85.4774944  66.7092068  42.8591728
  32.3148847  35.6740379  43.5014105  31.6230273  35.6222486  44.1608667
  33.1129098  35.8380914  44.0038776   5.2384677  79.3175618  57.0922661
   4.2994514  79.1398693  57.1461725   5.5468693  79.2522212  57.9960632
  25.8796334  15.0227797  36.6749549  26.1006951  15.9446144  36.8075633
  26.5677810  14.5427787  37.1356988  71.3557577  11.7856991  45.5111551
  71.9000387  11.0140634  45.6679010  71.0971880  12.0779729  46.3851976
  46.5096712   1.4403307  46.8789577  46.7876482   1.3115694  45.9721041
  45.5596638   1.3253337  46.8568897  35.6037116   8.7858236  40.5950975
  35.3681517   8.4569168  41.4626026  35.9509730   8.0214661  40.1353168
  49.8458910  11.8128371  53.5756922  49.8806858  11.0026646  54.0842581
  49.0168715  11.7615712  53.0999517  11.6957035  71.1875153  59.7803402
  11.2704196  70.3676207  59.5290661  11.5049925  71.7871291  59.0590048
  67.6839218  53.2143214   5.4480877  68.4531746  53.7818685   5.3994026
  68.0228219  52.3785343   5.7687702  38.6277810  70.8114023  51.6861582
  39.1309872  71.2518449  52.3710155  39.2842379  70.3437752  51.1698055
  42.6359797  22.1887541  51.6021824  42.6514292  21.6661835  52.4040031
  42.9406500  23.0543423  51.8745136  61.8553209  31.0323334  21.4955831
  60.9242344  30.9277225  21.2997103  62.0458508  30.3409815  22.1295881
  81.8732945  65.2820785  56.5817213  82.0424906  64.9263425  55.7093382
  82.6461808  65.0413997  57.0925617  41.4835461  41.8053176   7.0677319
  42.3805817  42.1075171   7.2100105  41.1274823  41.6888865   7.9485789
  80.9650230  14.4985080  61.4738131  81.4016724  15.2696013  61.1118937
  80.0312614  14.6969020  61.4033937  29.9695992  12.5936699  53.6489773
  30.2533460  12.1460283  54.4460535  29.2278314  12.0765412  53.3349848
  50.6754351   3.0344856  63.0228710  50.1747608   3.7791538  63.3560801
  51.5196609   3.4076524  62.7693796  85.3639097   0.7310104  36.2548256
  84.4426113   0.9675961  36.1477351  85.7580402   1.4907628  36.6833901
  68.4880218  66.5797999   3.7272825  68.3707461  66.9459512   4.6038714
  68.5665331  65.6365945   3.8702240  71.2861547  23.3105793  27.5802269
  70.8038673  23.7248185  28.2957878  70.6508455  23.2497587  26.8668499
  26.2409106  63.6022289  16.5987849  26.6829958  63.4150583  15.7706785
  25.8040991  62.7818913  16.8278563  41.7283010  13.3968580  54.9718046
  42.1607828  12.5705326  54.7564507  42.4028158  14.0624881  54.8369026
  23.8265713  48.0819871   2.8702059  24.1045197  48.2334092   1.9668522
  24.5176419  48.4758689   3.4026518  27.7114144  73.0265290  37.2045851
  26.8414441  72.6273228  37.2085476  27.5558367  73.9421643  37.4361873
   8.8572129  56.2287512   4.7806778   7.9104622  56.2155428   4.9211016
   8.9588746  56.1891463   3.8297167  55.2522650  74.4916851  45.4084969
  56.1800661  74.3812717  45.6164026  55.0298872  73.7196554  44.8881626
  66.0961732  39.0837147   5.7295456  65.6935010  39.5781481   6.4434233
  65.7278070  39.4683758   4.9342003  47.2658157  19.8558354  32.9480958
  46.3662910  20.1427913  33.1053948  47.6118946  20.4874063  32.3175597
  18.9966669  62.0920570  30.4753947  19.3442335  61.4208836  29.8880625
  19.3054667  61.8336398  31.3437796  42.4564457  20.2110410  49.7704363
  41.6864824  20.2799010  49.2059517  42.4367523  21.0077453  50.3006268
  39.5623302   7.5024366  34.9649119  40.0632906   7.9744279  34.2997098
  38.6530614   7.5716984  34.6739411   3.9735189  41.6038139  51.6389322
   3.6542359  41.8403012  50.7680941   3.3840194  42.0573075  52.2414827
  65.1214448  69.9478275  55.1342154  65.8176307  70.4096372  54.6670008
  65.1892940  70.2614648  56.0360241  71.7643785  18.5984325  54.3194437
  72.6073360  18.1449509  54.3227530  71.9124842  19.3831444  54.8472023
  29.5186973  41.4584112  63.5577965  28.6052608  41.1974001  63.6749935
  29.4997382  42.0741653  62.8251791  15.5583381   7.7525002  26.0459948
  15.0097274   7.1956015  25.4936123  16.1829661   8.1503749  25.4395533
  24.3705750   5.7008362  20.0322342  25.0994611   5.9467614  19.4626057
  23.8168311   5.1434427  19.4855070   9.5247298  69.6785764  67.8752485
   9.4323617  68.8384037  68.3244773   8.6260014  69.9831562  67.7497505
  83.2699935  25.5181892  57.2013521  82.5033871  25.2549989  56.6921568
  83.0035011  25.4012544  58.1132412  73.3150825  38.5994821  10.5467835
  73.3566913  39.3145658   9.9118319  74.2034111  38.5391884  10.8981552
  21.8675971   8.2377088  30.0934148  21.1582851   8.7086654  29.6560287
  21.9159961   8.6324227  30.9640980  42.8397274  16.5148270  42.3140097
  42.5071049  16.0244608  41.5622520  43.7835407  16.5710270  42.1647215
   7.7098599  76.9936092  52.8596354   7.2121635  77.7910794  52.6791573
   7.0432535  76.3315643  53.0428505  23.5239410   4.5700526  69.5592070
  23.5985851   5.4409838  69.1691589  24.3344617   4.4600123  70.0563812
  36.4271202  70.0246103  43.7211132  36.3918867  69.7153325  44.6262884
  36.4139214  70.9789849  43.7934113  55.1091194  13.5613418  65.0652790
  55.2847815  14.3596017  65.5634308  54.6381950  13.8626397  64.2883110
   8.7323060  49.9937803  45.4403353   8.3544531  49.9959762  44.5608759
   9.6751395  50.0744350  45.2961445   0.7555007   8.8333184  53.3224964
   1.6565226   8.6155069  53.0838490   0.6768798   9.7682709  53.1329823
  37.2730055  63.8464160  53.2381725  37.5345507  64.6346087  53.7141752
  38.0454722  63.2818801  53.2668829   6.4040676  79.2818096  39.9195266
   6.5376439  79.6780370  39.0584850   5.7383361  78.6097688  39.7732544
  57.9568243  18.1587112  45.6934118  57.9524803  19.1105533  45.5923700
  57.1213293  17.9588532  46.1155844  26.1915865  76.5355624  41.9101715
  26.1989203  76.2731031  42.8306532  26.0685816  75.7174019  41.4287996
  42.0568752  42.2628069  30.5040932  42.9286385  42.3526049  30.1191282
  42.1864939  41.6892099  31.2593508   1.1916121  56.9909861   7.1678200
   0.2647265  56.8980470   7.3879996   1.2895592  56.5202000   6.3401737
  30.9232893  68.3692140  54.6558285  31.6279736  68.1170864  55.2525568
  30.1888028  67.8066237  54.9012899  48.7139606  19.2528772  47.1247673
  48.5412788  19.9980354  47.7002239  47.9290438  18.7094808  47.1944761
  26.9196051   6.4750119   5.4395571  27.2847431   6.3262673   4.5673313
  26.5188139   5.6388779   5.6772127  54.5193148  18.5913658  48.9256859
  54.8660278  19.3960977  49.3109465  54.1169310  18.1281245  49.6603489
  81.7405033  50.8228683   1.0948523  82.3270798  50.2626991   1.6031542
  82.0213223  51.7141867   1.3020176  30.8564099  41.9710191  15.6735459
  31.6621788  42.4868632  15.7031384  31.0539254  41.2525243  15.0727310
  75.1904544  44.3130096   4.3140450  74.5535144  44.1060054   4.9979248
  74.7367439  44.1122349   3.4954682  20.1013851  35.6827354  34.6705532
  20.0116491  34.9445319  34.0678620  19.9872363  35.2977729  35.5394626
  83.3505241  64.3251974  67.2968388  83.2347194  64.8895414  68.0612564
  83.6349479  64.9187369  66.6018248  40.4390517  62.6937480  51.4475060
  41.0231343  61.9521327  51.2891102  39.8284903  62.6794417  50.7104540
  78.6293793   6.1237085  61.6685486  78.5513115   6.7910475  60.9867907
  79.5459843   6.1658472  61.9411182  64.5934820   0.6734730  44.3389893
  65.0572824  -0.1603420  44.4156075  63.6964989   0.4285957  44.1116333
  80.9337807  23.1435275  67.5781870  80.8865929  22.1954322  67.7011633
  81.6380978  23.4259558  68.1616259  68.1062651  19.8309302  38.3591270
  67.4986649  20.3106284  37.7961445  67.7012300  18.9708471  38.4706378
  68.7437201  10.0185227  41.6152763  69.2802525  10.5298185  42.2210312
  68.4486198   9.2683381  42.1313858  58.7989416  69.6422822  37.0221734
  59.2096701  68.8587136  36.6567326  59.1036501  70.3559560  36.4617729
  27.1456948  75.3033353  57.4409962  27.6230660  75.7270820  56.7277002
  27.8194895  74.8386897  57.9373121  24.0422320  20.3445792  63.0986929
  24.4584775  19.8923755  62.3648787  24.7685242  20.5900812  63.6718082
  66.3274908  23.4674001  61.0174274  66.5626669  23.9168763  60.2057028
  66.4888477  24.1139126  61.7046070  35.8134890  34.7340322  68.5095215
  34.8754096  34.5461655  68.4787655  35.9381580  35.1961589  69.3384504
  64.2218256  37.3001027  20.9168601  64.5518923  37.4240541  20.0269604
  64.5095110  38.0809069  21.3899469  75.7611752   7.6426661  60.1712179
  75.0369930   7.3223704  60.7089949  76.0078621   6.8924797  59.6302938
   3.9714971  67.6181466  28.0062294   3.0835715  67.3562462  28.2495952
   4.0872231  67.2770805  27.1193743  47.4363518  38.6794472  25.5740833
  48.3802986  38.5285616  25.5248332  47.3537683  39.5777535  25.8941722
  42.1850720  64.9176724  60.8635473  42.3117581  64.0016658  60.6163359
  42.3994198  65.4112465  60.0719213  46.1265507  74.8431940  33.3261728
  46.7754498  74.3465955  32.8276253  46.4554587  75.7420809  33.3187556
  52.4110126  10.4262018  52.9967022  51.7336464  11.0974371  53.0794621
  52.6673508  10.4569829  52.0749760  17.9638155  50.8276691   6.8299570
  17.3174342  50.3535297   6.3068714  18.7934979  50.3897884   6.6399040
   7.0807427   7.7086659  13.2192364   6.9120210   7.6959105  12.2771111
   7.1453136   8.6381932  13.4384289  82.5710487  28.6352277  57.2617912
  82.5789642  28.5124564  58.2110500  83.2189846  28.0114508  56.9341946
  31.2796402  22.0672178  36.3190103  31.2728930  22.0409203  37.2758245
  31.8471956  22.8073382  36.1037469  51.8473244  19.1879714  60.8789444
  52.6676083  18.7897563  61.1701298  51.5284872  19.6664870  61.6441917
   8.0876406  78.6459711   9.6237698   7.8815754  79.5439699   9.3642178
   8.2454260  78.6993196  10.5663624  42.8916454  10.6075394  44.8312473
  42.5358582  10.0472009  45.5209351  42.1209526  10.9924901  44.4140148
  51.7413712   6.1617911  44.7326851  52.1267462   6.8807298  44.2318392
  50.8385563   6.4374131  44.8914051   0.5335711  21.1644745  64.8938370
   1.0168361  21.7515802  65.4752159  -0.0546170  21.7410493  64.4061661
   5.5832258  79.7595935  66.9214153   5.6213370  78.9306881  67.3985863
   4.9634757  80.2937048  67.4182653  49.9861002  15.3415132  68.2542610
  49.8346043  14.4457865  68.5558510  50.9256506  15.3782034  68.0750084
  80.0095281  46.5341952  27.1237602  80.6731853  47.2048786  26.9625988
  79.7641716  46.6555520  28.0409851  47.9724884  31.5129185  12.7827311
  47.6491404  31.7833114  13.6421287  48.1955814  30.5883741  12.8907907
  20.2471423   5.4761255  22.2240567  19.3663907   5.3038013  22.5569415
  20.7086802   4.6437144  22.3255801  48.3344563  70.0734999  10.2082052
  47.3897179  69.9197772  10.2158060  48.4944733  70.6195118  10.9779396
  75.7337675  75.9869864   6.9353476  74.8632345  76.2074521   6.6039887
  76.3328895  76.2823203   6.2497368  83.9428425  13.9125121  32.6167178
  84.4989395  13.5355830  31.9348693  84.4125462  14.6958864  32.9029703
  11.6319045  64.6052959  31.3181629  12.4147757  64.5304992  30.7724991
  11.9676932  64.6564200  32.2130718  74.5475149  27.5766039  69.4571400
  75.4177475  27.4463296  69.0803766  74.0760374  28.0882335  68.7997389
  24.2072400  66.4559724   3.7604609  24.5357617  65.5745389   3.9376011
  23.4346589  66.3179901   3.2124558  57.6337051  53.2990122  38.5384226
  56.8708134  52.7460814  38.3696175  58.3523846  52.8613615  38.0821395
  83.7630996  37.7887719   1.6707459  83.7606392  38.7188640   1.8969193
  83.9099512  37.7726447   0.7250157  30.2408066  77.2355557  52.3667574
  30.3675070  77.2822473  53.3143854  29.7355070  76.4338593  52.2318840
  47.3883057   4.5150957  48.5961390  48.1892872   4.7100985  48.1096935
  47.4841404   3.5994682  48.8581944  80.6860447  36.1222172  69.7860432
  80.0226974  35.4487371  69.6356440  81.3841820  35.9136200  69.1652966
  52.9727459  33.7558746  69.8082685  53.8465929  33.8625956  69.4324541
  52.4075842  33.5834241  69.0552139  30.0599232  58.7370951  28.8116860
  30.2626696  58.4075219  27.9361820  30.1035872  57.9641587  29.3746209
  46.9976225  60.7063729  48.3831596  47.9065934  60.6809337  48.6820936
  46.8821516  61.5935523  48.0428505  54.8387423  70.2446110  50.0917292
  55.7233229  70.3959853  49.7588015  54.5335665  69.4710071  49.6177721
  65.4869357  49.2607052  40.5029774  66.1358538  48.5597880  40.4409313
  65.9060851  49.9277098  41.0467196  68.0708838  15.2023208  68.9328384
  68.9103508  15.3494060  69.3686056  67.9282331  14.2582107  69.0002060
  71.1236811  28.2736945  51.7413616  71.2065315  27.3521566  51.4961338
  71.4718771  28.3167887  52.6319408  26.0113230  67.1143419  14.2367458
  26.4628401  66.4269824  14.7265446  25.8302298  67.7925951  14.8874450
  55.6979832  65.0276282   3.9091196  56.1522731  65.7480934   3.4723320
  55.3647384  65.4113104   4.7202721  22.4242535  71.4409662  38.2335949
  22.7758255  70.5529053  38.2966733  22.0453301  71.4867658  37.3557878
  52.5761557  16.2775028  33.0112123  51.9943857  16.7832708  32.4437857
  53.4103775  16.2576783  32.5422668  81.6690445   3.8174027  54.3126059
  81.0268116   4.4510710  53.9928579  81.7752266   4.0309906  55.2396107
   7.4043940  43.1326056  19.7659791   6.8411063  42.3614168  19.7011483
   7.6725291  43.1568193  20.6845403  58.9552197  40.2069081  16.0749474
  59.4220123  40.5842383  15.3293171  58.9619479  40.8985374  16.7366352
  55.6268692  10.2873039  58.7264872  55.4917812  10.8146906  57.9391861
  55.9496307   9.4474864  58.3997393  18.2584818  50.1334079  17.3877659
  17.9575356  50.3064206  18.2798043  19.1827973  49.9052515  17.4868431
  57.1599674   3.6081472  61.5999794  58.0218363   3.7808412  61.2210464
  56.7244244   3.0468071  60.9585524  10.0574120  51.3725927   6.7459336
   9.6446379  51.4350619   7.6072970  10.2547177  52.2786727   6.5086117
  45.8532476   3.4546265  41.7199039  46.4801168   3.3349365  41.0065031
  45.8448219   2.6126441  42.1751261  77.1006060  18.6355543  49.4534254
  77.3788118  19.3898368  48.9339161  76.6735649  19.0173125  50.2203226
  77.7485180   5.8964020  40.4366589  77.0112944   6.4984322  40.5380964
  77.9241848   5.5813134  41.3232756  70.5953789  41.2493610  62.5319290
  70.3719473  42.1345949  62.8194571  70.0393200  41.0982895  61.7675972
   7.4132155  16.2906933  63.3161211   7.7816295  17.0370698  62.8434420
   7.6915549  15.5264926  62.8113890  68.2522154  20.1790929  32.3161268
  68.9547014  19.6050858  32.6215148  68.1407261  19.9510324  31.3932014
  81.7587480  70.2342083   2.8830948  82.6679525  70.2090456   2.5848618
  81.4294633  69.3498781   2.7225819  27.5792971  75.5179501  37.9560351
  27.2520533  76.2447865  37.4260807  28.3786717  75.8564738  38.3593178
  50.2252405   4.5458718   6.2574568  50.3283613   4.2777128   5.3443899
  51.1180895   4.7090645   6.5614548  39.2260971  79.1705478  59.1554070
  39.5668402  78.3240310  58.8663816  39.9590197  79.7754833  59.0409184
  79.0778122  28.4488549  20.6572380  79.8418245  28.0931702  21.1111202
  78.3968649  28.4877195  21.3288250  64.7840643  46.6155481  42.5447989
  63.9277029  46.2539768  42.7731562  64.6410847  47.0607376  41.7095757
  31.5654772  34.8500080  18.3036556  31.8913620  35.7173176  18.5440769
  30.6203859  34.9674292  18.2075062  61.3911343  79.2300749  33.9281249
  61.3799238  78.8892031  33.0337453  62.3003149  79.1312551  34.2107224
  66.6054010  50.4904747  55.2601910  65.7711220  50.3883410  55.7182074
  66.4290285  51.1449432  54.5843220  65.7599401  16.4804721  69.2016506
  66.0714722  17.3185503  69.5434189  66.5570116  16.0107481  68.9561462
  67.3595476  21.2787342  49.0259838  66.6353321  21.0562873  49.6110106
  68.0301857  20.6223416  49.2147160  78.8791847  12.9411852  67.2167730
  78.6775398  12.4038982  66.4506817  78.3583164  12.5574708  67.9222441
   4.8330687  21.7404056  52.2755432   5.0903796  21.2068653  51.5236425
   3.9692401  22.0810223  52.0431376  69.9190235  20.2967334  41.6903639
  70.5574656  20.3665185  40.9806108  69.1982460  20.8660865  41.4210081
  37.9723158  68.5228402  48.6636496  38.7569609  68.7739260  49.1510105
  37.3982277  69.2863793  48.7241459  12.5567817  23.0789113  60.3300667
  13.3316420  23.2074404  60.8771515  12.3038577  23.9622259  60.0617075
  50.6513309  36.0003901   5.9977466  49.9270010  35.6312752   6.5030527
  50.2349806  36.6239548   5.4027236  18.5479068  37.2951102  57.8882647
  18.6441802  37.3656011  58.8380003  17.6071071  37.3837113  57.7356625
  70.6551951   5.5655308  12.2599640  71.3768499   5.2191706  11.7351094
  70.1837462   4.7888155  12.5611153  40.7620335  44.7733688  68.1023073
  40.5326271  45.1969862  68.9294434  41.1259413  43.9263344  68.3598661
  82.9792881  32.6822114  68.5785246  83.3433914  32.6334071  69.4624233
  82.2010231  32.1257782  68.6090183  78.4492970  29.0195632  64.2252302
  77.9991817  28.9466929  63.3836174  78.8885164  28.1762934  64.3357468
   1.7696380  50.6171942  65.3662205   1.0264968  50.3695202  65.9163332
   1.4328097  50.5666018  64.4716692  80.5331039  56.4574766  41.9601154
  81.4756489  56.5487337  42.0998096  80.2194214  55.9952211  42.7373886
   3.9292144  48.7933159  56.4198971   4.5115374  48.0341625  56.3914633
   4.4895839  49.5144224  56.7066336  12.6045521  33.7360116  20.9547653
  13.4167489  33.9504572  21.4136543  12.6104172  34.2998656  20.1812878
  12.6741790  35.6076694  48.2415247  12.4558162  35.4733229  47.3192978
  13.4829329  35.1122475  48.3708000  22.0589360  51.8688657   2.2845783
  21.3889369  51.5959372   2.9113474  21.9292553  51.2943735   1.5300074
  23.8329991  80.1058485  27.7281609  24.7438343  80.0935605  28.0221787
  23.8818367  79.9245241  26.7895546  68.8549185  16.0103130  57.3754454
  68.1299019  16.4627957  56.9443512  68.9389420  16.4462173  58.2234764
  60.1307392  39.2726755  58.0390596  60.0407553  39.8468971  58.7995911
  59.3866968  39.4969964  57.4802113  19.0797042  37.6053786  38.7726712
  19.9875544  37.4295378  38.5254169  18.5784911  36.9022393  38.3596230
  85.2244568  39.5692778  58.4873104  84.6609116  39.2870378  57.7669096
  84.6683025  40.1408195  59.0166998  33.3524998  67.2572591   0.9746924
  33.2754048  66.3782814   0.6036320  34.2909726  67.4445298   0.9539547
  83.4423733  26.9699693  52.8191423  83.6084366  27.8681254  53.1054401
  83.2211494  27.0513344  51.8914175  34.6239861  45.3235611   0.8400526
  34.8328789  46.0079088   1.4758673  34.6653851  45.7643803  -0.0085888
  68.0156153  36.1645003  17.0898476  67.3854082  35.7830401  17.7010384
  67.8063887  35.7612438  16.2473240   5.9153183  46.1849722   3.9118376
   5.3485020  46.9485434   3.8027182   5.3254899  45.4879107   4.1989603
  18.8820132  62.5988486   9.4610825  19.1199215  63.0837967  10.2513066
  17.9297074  62.6796963   9.4080534  69.7712717  32.7886441  11.4812889
  68.9855108  33.2973357  11.2811794  70.4563770  33.1842467  10.9424343
  57.2015762  21.7161036  67.6428127  57.7596951  20.9433436  67.7298737
  57.4845362  22.1249986  66.8249035  70.1751757  29.2054391  48.6574316
  70.5232430  29.3927598  47.7856588  69.3320465  28.7831330  48.4930420
  52.9097088  68.8777306  27.8865566  53.3322533  68.9300444  28.7438526
  52.1726712  68.2814743  28.0187836  55.2016068  59.2516804  17.1970999
  54.8730659  59.7260761  16.4333963  54.4156504  59.0226603  17.6931453
  36.8151560  78.6724805  60.1205063  37.6690236  78.7960162  59.7059107
  36.8531027  77.7896959  60.4885864  84.5767879  46.2240171  32.1886802
  83.9845276  46.7720461  32.7035761  84.4500732  46.5166807  31.2861705
  76.8533564  57.8509569  53.6337996  77.2670555  57.5041914  54.4242620
  77.5609827  58.2982397  53.1696415  65.6653786  26.9233823  42.6105070
  65.4235983  25.9973311  42.5961876  65.0905323  27.3108292  43.2705593
  79.4300899  53.3450057   8.0035486  79.5169553  54.0307906   8.6656561
  79.1120062  52.5832214   8.4880438  65.7726717   8.3657444  66.6927910
  65.0718832   8.8322449  66.2372732  65.6099081   7.4422443  66.5007305
   5.8749579   9.8373139  23.9165783   6.1961173   9.0832907  24.4110847
   5.6915282   9.4906068  23.0434370  61.6658163  44.3281698  19.8574209
  61.7854977  43.8349819  20.6690097  62.5206232  44.7250557  19.6900594
  61.4136124  14.8489356  58.1837130  60.8791733  15.0848901  57.4254704
  60.8151102  14.3736506  58.7600183  21.0073718  58.0070283  31.0317650
  21.0170182  57.2870674  31.6624680  21.6050585  58.6570706  31.4011517
  81.2215710  13.4477282  31.8267727  81.3723850  12.5732172  31.4679980
  82.0959091  13.7722456  32.0423055  10.1903971  77.9082825   5.7825508
  11.1320075  77.9541614   5.6167259   9.8541554  78.7554481   5.4901781
  80.5327988  51.2457561  62.4247789  80.1951122  52.1410036  62.3977470
  80.0779915  50.8404112  63.1630754  77.4904728  32.0595551  43.9071512
  76.6486168  32.2117186  43.4777880  77.2604752  31.7863297  44.7952318
  16.3655661  52.1210718  34.1057634  15.8527087  52.5280666  34.8040223
  16.2390899  51.1807823  34.2326093  45.8453243  23.3436747  11.4305916
  45.3146666  23.7047406  12.1407070  46.5157288  22.8233023  11.8733063
  74.1899538  26.9538617  43.4460688  74.6248436  27.4014401  42.7202797
  74.8452091  26.3385725  43.7751436   5.0298556  70.0682905   5.9549608
   4.1482314  69.6981552   5.9105721   5.0964030  70.6224396   5.1773205
  60.6254578  68.4275436  67.3607922  59.8383331  68.3276129  66.8253613
  61.1619091  67.6654148  67.1425867   4.4324969  30.6160545  42.0762968
   4.1485785  30.9495282  42.9274225   3.6806296  30.1217723  41.7497873
  70.4458570  76.4601040  64.4045258  70.3128433  76.8831921  63.5562706
  71.3193798  76.0732794  64.3448830  20.0751017  66.4654112  47.1124935
  19.2511653  66.9306564  47.2570562  20.2124785  65.9658337  47.9173422
  38.0078515  61.8681552  31.7438069  37.2495659  62.4099209  31.5253582
  38.4324654  62.3306324  32.4663391  39.4995499  50.5663300  61.5532970
  39.7607088  49.6926594  61.2622023  39.6942472  50.5746937  62.4904490
  78.7862492  12.6773942  38.8272429  78.8294506  13.3425629  38.1402802
  78.9536858  13.1586838  39.6375251  25.0381850   9.4499701  40.1158476
  25.2978228   9.1247243  39.2538500  24.1163348   9.2051977  40.1964998
  60.4496584   4.7180693  68.9251852  61.0142073   4.0545123  69.3216801
  60.3303728   5.3730433  69.6129465  52.9538107  31.1104441  32.1613288
  53.4777594  30.3095651  32.1786523  52.0525646  30.8096051  32.2774696
  73.7795496  43.9865589  55.0849009  74.2714357  44.6129704  54.5539665
  74.3909264  43.2647943  55.2315617   1.1123370  49.2771149  51.9940329
   0.4275607  49.2468643  52.6621628   0.7154559  48.8670540  51.2255526
   1.9941424  38.3497262  50.8223057   1.5468310  38.8332963  51.5167809
   2.9099559  38.6185193  50.8949089  72.8561974  38.6494207  33.6104679
  73.2014275  37.9710197  34.1908312  73.5898161  38.8695669  33.0363798
  60.1736879  28.8850260   6.3211554  59.3384695  28.8887978   6.7887366
  59.9299574  28.8809991   5.3955144   0.3253230  60.9205964  17.1828499
   0.7006510  61.7830446  17.3604527   1.0801562  60.3680446  16.9800129
  21.6158294  40.6006384  52.2934484  21.8163298  41.5350246  52.3477793
  21.1460399  40.5042553  51.4650536  73.7945327  17.3683493  49.9984646
  73.0175218  17.7189963  50.4338217  73.5375938  17.2853320  49.0801430
  15.6905459  21.7235065  43.9818382  16.5040873  22.1414900  44.2641115
  15.1139068  21.7829633  44.7435331  55.0794714  62.2730084   0.0589409
  55.6836145  62.9761334  -0.1795015  54.7331160  62.5339337   0.9122792
  26.2570324  65.8339483  29.4150996  26.3407030  65.1621790  30.0918245
  26.3907519  65.3631777  28.5924649  19.4068908  52.1577597  35.7212806
  20.3019523  52.3893881  35.9691644  19.3117808  52.4905539  34.8288512
  84.5259190  13.0295885  46.4470387  84.5119858  12.9292321  45.4952145
  83.9228439  13.7523901  46.6205215  83.2903957   5.2710885  64.6370602
  82.6056671   4.6202165  64.4829941  83.5854244   5.1011920  65.5316687
  62.7097511  54.6872139  48.6092281  62.0918655  53.9927292  48.8375854
  63.4218264  54.5917797  49.2417431  52.3211565  22.1076033  69.9939880
  53.0614558  21.8720553  69.4347793  51.6468897  22.4082253  69.3847153
  21.3131779  10.9946604   2.6256218  20.6713694  10.4838248   3.1189337
  21.5011280  10.4614325   1.8532410  76.2940359  27.0594907  47.6492310
  75.9273291  26.1773610  47.5891781  77.2340965  26.9376445  47.5163078
   0.8701800  22.2519851  54.4249678   1.1426638  21.3496876  54.2580938
  -0.0428964  22.2831488  54.1394186  67.6704168  10.8238661  51.2294436
  66.8380880  10.3580558  51.1489105  67.8783083  11.0989523  50.3365040
  60.5127144  60.3123188  46.3825893  61.3034630  60.1247549  46.8883228
  60.4853821  59.6249008  45.7170486  21.8172463  65.6717517   5.1468935
  21.2884482  65.6336334   5.9438601  22.3204478  64.8575237   5.1541653
  33.9586037  10.6888743   1.4874640  33.9268129  10.2755089   2.3502197
  34.7920769  10.4014273   1.1147251  41.0383081  22.1132708  41.0263538
  40.9651852  21.3578534  41.6096449  41.8070412  21.9263005  40.4875374
  10.6071948  11.0682631  44.4412994  10.8725070  11.9420135  44.7283554
  10.4526519  11.1616266  43.5012817  63.5290909  14.3114388  47.3768330
  63.3431339  15.0930142  47.8972101  63.9732218  13.7195361  47.9839802
  74.5728397  59.2189693  54.4788694  74.1682148  58.5622787  55.0456715
  75.4398251  58.8641548  54.2822170  54.5645323  72.8502990  42.8118944
  55.5006876  72.9009623  42.6188231  54.1862002  72.4117608  42.0498037
  76.0382938  25.2776480  29.2498612  75.3731012  24.9347353  28.6530709
  75.5444002  25.5732489  30.0146651  62.5269335  26.5536423   3.6675015
  61.6609018  26.1459990   3.6608687  62.4921053  27.2014923   2.9637232
  63.3321207   7.1470042  35.0453797  62.5469702   6.9478483  35.5553856
  63.7887304   7.8133030  35.5589810  50.1766205  41.0904646  69.8885536
  49.7192144  40.6272936  69.1867781  50.9871292  40.5966520  70.0128794
   2.5069331  12.1051109  58.9909744   2.5370692  13.0549526  58.8764143
   1.6096972  11.9261456  59.2723370  38.0373693   6.9470823  67.0510435
  38.7047005   7.4879837  66.6287565  37.3111558   6.9324929  66.4276409
  24.2322062  16.9406378  66.3392735  25.0676631  17.4020886  66.2663746
  23.7888717  17.1153247  65.5091143  81.5255642   3.0444038  16.0667884
  80.9089947   2.3203921  15.9577847  81.4986134   3.5098740  15.2308202
  15.6280907  77.6420333  17.3881378  14.8427065  78.1846359  17.3175278
  15.3545483  76.8923547  17.9167118  40.1074704  63.0559733   3.9209929
  40.0351532  62.3852828   4.6000900  39.2329033  63.1007698   3.5345116
  62.4291325  62.1823072  51.8752718  61.9604206  63.0078411  51.9978952
  63.0647850  62.3681545  51.1841536  11.7033347  52.7311828  16.5945378
  11.4934739  51.9152763  16.1401310  11.9076260  53.3500698  15.8934822
  29.5288199   6.6332026   7.0738592  29.9903792   6.1867209   6.3640394
  29.4537800   5.9732886   7.7631417   4.2680835  15.0588500  55.1759958
   3.3782958  14.7898114  54.9476814   4.7643565  14.2410433  55.2097511
  74.9350739  27.3452830  64.3056345  75.3609085  28.0539751  64.7879791
  74.1044807  27.7202058  64.0127468  49.1403484  48.2003212  11.1626017
  49.7622871  47.6937246  11.6848862  48.3809996  48.3105946  11.7348444
   7.7439212   8.8239408  56.1049366   7.0316981   9.3450236  55.7341957
   7.3888682   8.4826571  56.9257259  66.5587282   7.0318907  61.7432308
  66.6606426   7.5274187  60.9306431  65.6512976   7.1863985  62.0057774
  54.5974970  67.2294760  54.0016890  53.8614416  67.7785063  54.2719078
  54.5397472  67.2045708  53.0465555  56.6987150   0.4517336   0.9462681
  57.4580877   0.1933403   0.4239359  55.9449022   0.1590605   0.4340735
  70.0730562  36.6354704  68.5986614  70.3600073  37.5344419  68.4382248
  69.4942331  36.7007637  69.3582249  33.7908848  71.4677217  10.2035799
  33.6448296  72.2019126  10.8001175  33.7781533  71.8616703   9.3312969
  76.6089743  13.3287449  12.7153912  75.9278505  12.8647633  13.2022419
  76.1523932  13.7019749  11.9614258  45.7545757  27.9080558  21.2031460
  45.2337599  28.4312940  21.8124127  46.6622829  28.0907989  21.4458442
  65.7332134  36.8524361  37.5116181  66.3910675  37.1425056  38.1435370
  64.9020815  36.9246435  37.9809141  32.9952803  59.8799188  51.4089155
  32.4357787  60.3131110  52.0535374  33.3799067  60.5971760  50.9050989
   5.3197764  14.2926896  59.4867706   6.1970710  14.1760826  59.1220951
   5.4665088  14.7137272  60.3337812  73.1734094  76.5906169   2.3308888
  73.8492736  76.9459870   1.7536965  73.0657539  75.6838658   2.0437613
  70.9758815  49.5488580  28.5207119  71.7314348  49.4621911  27.9394570
  71.3462219  49.8441150  29.3525162   2.0787238  12.6780832  49.0499449
   2.4874591  13.1650364  48.3343697   1.2370108  12.3921704  48.6949873
  47.0502853  23.6240816  45.8130264  46.6886187  22.7703500  45.5751801
  47.9962254  23.5207891  45.7092953   0.4319571   7.4351430  33.4150839
   1.3652610   7.2226363  33.4194374   0.2824878   7.8400493  32.5607157
   5.1285552  52.6908064  68.4981346   4.2284106  52.9338264  68.7147522
   5.0387286  51.9621181  67.8839874  75.4091072  42.1468925  56.7025757
  76.3265371  42.2288227  56.9630432  75.0777483  41.4131498  57.2203159
  68.2466745  29.6225595  68.1349516  67.5391960  30.2446699  67.9655743
  67.9569244  28.8110471  67.7181482  42.3708630   9.7864139  67.9021502
  42.6860189   9.2134285  68.6011457  43.0745649   9.7820312  67.2532940
  45.8966112   9.3025714  36.7264509  46.5393162   9.6256799  37.3579264
  46.4194393   8.8609749  36.0572195  59.3858910  33.7689090  34.0988803
  60.3430843  33.7665415  34.0956521  59.1479301  33.3031583  34.9005532
  71.3018942  12.0176458  40.7133293  71.0686493  11.9095039  41.6353559
  72.2584677  12.0521677  40.7107115  52.9059553  50.6128931  37.0859671
  52.6554966  51.2420750  36.4094830  52.0840836  50.1913500  37.3370862
  68.9906836  31.0714722  64.9880123  69.6092463  31.3880706  64.3296957
  68.6539793  31.8660998  65.4020500  53.3900156  75.1171256  41.4994812
  52.7487650  74.4341547  41.3030386  53.9539996  74.7305942  42.1693611
  66.9354296  31.6690683  42.3252439  66.4851856  32.4763322  42.0765591
  67.0653105  31.7486238  43.2702446  21.4054402  46.3849636   8.0718270
  21.3770541  45.8129051   7.3049011  21.8731888  45.8754375   8.7335148
  51.2056914  79.4898426  13.9029253  51.4491215  80.1634561  14.5379186
  50.6146994  78.9101175  14.3834281  63.7448835  55.9676695  46.1317301
  63.2842350  55.5212641  46.8421936  64.3973970  55.3338432  45.8338642
  21.8704890  56.6832352  46.4856529  21.4870070  57.5518322  46.3643503
  21.7949485  56.5171623  47.4253082  28.3740529  57.1989622  11.1220398
  28.4051617  56.3572123  11.5767040  28.0705269  56.9837453  10.2401200
  62.8224707  26.4848852  69.5767450  63.0207348  26.3696480  70.5060720
  63.1906414  25.7083607  69.1552114   2.0847701  11.8510604  33.0569506
   2.8299331  12.3916686  32.7948427   1.8830298  11.3286746  32.2806478
  49.7303312   1.9296665  20.1375237  49.9943131   2.7755089  19.7754612
  48.8054436   1.8477125  19.9049320  68.2881880   1.9539092  48.8341856
  68.9973927   2.5711989  49.0136576  68.6359358   1.3819057  48.1499958
  78.1810284  32.2466588  18.5071194  77.3187065  32.3488402  18.9098430
  78.0044746  31.8223786  17.6674485  17.2835913  22.9349968  60.3021434
  17.3690644  22.0087550  60.5279830  17.4541273  23.3982155  61.1222539
  14.3040942  55.1202154  21.9764614  14.6728419  54.9137068  21.1176181
  14.8701953  54.6610260  22.5968719   3.1860732  56.6828156  32.7471733
   2.4863528  56.0764313  32.9899096   3.1265067  57.3877382  33.3919764
  17.0082187  75.1420593  45.7600832  17.8324031  75.4486132  46.1381960
  16.8225383  74.3242407  46.2215233  14.8246287  46.5951252  43.2627821
  14.4239329  45.8097887  42.8900576  15.7155417  46.3261795  43.4867668
  66.1768293  20.4921532  67.9399967  66.4610052  21.1856651  67.3445797
  66.1933804  19.6972227  67.4070406  53.8895910  12.1454306   1.7074099
  54.4495218  12.0292588   2.4750080  54.3150061  11.6319437   1.0206928
   1.3396357  24.7027540   4.0118349   1.7266177  24.7786355   4.8840278
   0.9060000  25.5439186   3.8681951  68.4636879  44.1694069  69.0733004
  68.8509417  43.8809443  68.2468271  67.7991104  43.5091209  69.2697573
  40.1017197  18.1781047  45.0610065  40.2079209  19.1229384  45.1716328
  39.1544255  18.0465644  45.0214815  55.7671213  57.4390221  26.6385412
  56.4388990  58.1159973  26.7200947  56.2562466  56.6162968  26.6278195
  83.5883045  48.2819939  53.1504011  82.7710152  48.3389902  52.6554012
  83.9813995  47.4557161  52.8693676  74.3990534  28.8639374  15.3871861
  73.5914534  28.6693020  14.9116364  74.2649286  28.4806080  16.2539616
  68.7449312  60.2421093  66.4143515  68.4906006  61.0746193  66.0162592
  69.4206572  59.8947525  65.8321381  71.2378740  56.6078520  29.1111684
  71.8028975  56.1011887  28.5278392  70.6521845  55.9586716  29.5007396
  50.0627279  45.5599737  23.4792709  49.6761608  45.8521557  24.3047571
  50.8420372  46.1055803  23.3733654  19.8865422   7.7017348  41.2314129
  20.6349429   7.3356574  41.7027092  19.1943320   7.7606051  41.8899059
  79.9635363  54.0708256  51.4228153  80.2159882  54.8490143  51.9197321
  79.5881462  53.4807014  52.0763159  83.0045605  61.5818119  66.8195820
  83.3524227  62.4516821  67.0159388  82.1239471  61.7465019  66.4824915
  66.1381483  48.4874058  52.6856327  66.3905430  49.1627073  53.3153105
  65.9430742  48.9698982  51.8822765  61.5327406  56.4753675  36.9633627
  61.5692425  56.7762566  36.0554171  60.6005478  56.3401842  37.1335888
  67.8887606  53.9131737  42.6387691  68.1418371  53.3126688  43.3398962
  68.7178564  54.2612982  42.3106813   4.7332000  12.1734655  47.4529266
   4.1336631  12.5521326  46.8099689   5.3296756  12.8885663  47.6744604
   3.6008738  63.3234119  52.9405975   3.4001063  62.4769115  53.3397961
   3.9817332  63.8391161  53.6513901  80.7551289  65.7177019  42.8993559
  79.9074364  65.2743196  42.8668022  81.3888931  65.0404739  42.6628304
   3.1251811  38.5286474  36.8331599   3.3728026  37.7185750  36.3874030
   3.8671874  38.7234712  37.4056196  85.1011562  51.7359638  30.9714293
  85.1403141  51.8381977  31.9223475  84.9057198  52.6139259  30.6439924
  80.4762476   5.2533598   8.8161650  81.1002081   5.8728571   9.1944924
  79.7966879   5.1600333   9.4837847  68.2947245   9.1980908  66.1972613
  68.5124770   9.9960253  66.6790483  67.6490775   8.7547181  66.7475298
  68.5892916  35.9476185  61.9238424  68.4794807  36.6959715  62.5104761
  67.7011967  35.7370090  61.6354609  62.1995497  70.0348806  44.4055939
  62.0692301  69.6953773  45.2910233  62.4206161  69.2636633  43.8834953
  25.2494114  11.9144221  12.0803681  25.4693478  12.6715203  11.5375366
  25.0535362  11.2186165  11.4528980   2.3127173  48.5475063  41.7009878
   2.6432322  47.8866720  42.3095036   2.9981326  49.2152309  41.6770840
  42.1716993  11.5241595   6.2409058  41.4294737  12.1195622   6.1368265
  42.9392069  12.0961399   6.2423840  69.7225493  39.2363234   1.5598240
  69.8269671  39.8667069   0.8471194  69.3316572  39.7425480   2.2719851
  13.1240558  44.5785236  42.1792555  13.4267234  43.9785480  42.8609085
  12.1730327  44.4703436  42.1699858  26.1747017  75.2331234  47.5308037
  26.6093912  74.3817944  47.5809526  25.2432719  75.0321920  47.6218605
  24.0435408  46.1627626  60.7747841  23.7374305  46.0127592  61.6692257
  24.9744796  46.3637114  60.8707666   9.4308184  23.1442714  61.4289331
   9.6879386  23.1545305  60.5069685   8.4791945  23.2462549  61.4133358
  54.1567715  79.7885134   0.4436102  53.8269719  80.5670478  -0.0051079
  55.1074513  79.8395874   0.3444281  18.3282440  14.3898220  17.4275913
  17.9213350  14.9320336  18.1033554  18.0016249  14.7496720  16.6029301
   5.3418921  44.5003796  48.9269066   4.6220206  44.0028906  48.5389423
   5.0580596  44.6716738  49.8248625  59.0884781  25.1205277  68.8856125
  58.9356327  26.0375047  68.6575317  58.2163668  24.7260165  68.8891363
  19.8812865  77.9941654  58.6140919  18.9760875  78.2922363  58.5247040
  19.8312663  77.2548389  59.2200041   0.2190017  17.1551561  55.3757238
   1.0974692  17.4607289  55.1495695   0.3664492  16.4330840  55.9865475
  72.4338055  33.7560463  19.1364896  72.6163578  34.5349264  19.6620846
  73.0022717  33.8446856  18.3714950  78.8502178  75.0319912  10.1755800
  78.6500558  75.9554436  10.0225964  78.1954059  74.7474148  10.8131256
   1.9598674  43.0571651  53.5750771   1.8613528  42.8419590  54.5025539
   2.5481128  43.8122129  53.5655689  15.6230353  58.1925058  48.5132122
  15.3264045  58.4977102  47.6558352  16.2528228  58.8545322  48.7983847
  39.4466751  16.5239830  30.7469502  38.7346476  16.9185658  30.2434101
  39.3972033  15.5905648  30.5407658  66.8000793  69.8745632  69.7611570
  66.3813257  69.0778160  70.0868464  66.1422873  70.2759027  69.1932917
  73.3823919  55.9596157  47.8135252  73.3619785  56.9048929  47.9627466
  72.6901340  55.6132460  48.3765888  23.2409638  19.3864460   4.7452202
  22.7221506  18.6589356   5.0884285  22.8162544  19.6143027   3.9182177
  74.9473009  75.0630500  14.3937340  75.4553947  75.5911257  13.7779370
  75.6053600  74.5941474  14.9068871  81.3596782   3.2763617  64.2293644
  81.2647924   2.4642890  63.7315941  80.7651434   3.1727164  64.9723434
  57.4761486  65.0574684  57.9020214  57.1535015  64.1802073  58.1082869
  57.4611998  65.5211592  58.7392807  28.5655220   8.2191985  61.2045288
  28.5266980   7.6520961  60.4343891  29.1108330   8.9569705  60.9314585
  72.1480864  40.7761879  29.2501583  71.4794939  41.1631413  28.6849346
  72.9749697  41.1227722  28.9149418  63.4158754  51.3099051  49.1416645
  62.5663328  51.1321497  49.5452881  63.7101126  52.1234703  49.5512676
  57.9520529  45.3754540   1.3973179  57.5068205  46.0447712   0.8776989
  57.9900950  45.7435532   2.2800865  37.7791803   4.6630450  13.0890122
  37.4006003   3.8522835  13.4289780  37.4209040   5.3492136  13.6520806
  21.2733229   0.4016154  51.9516659  20.9270867   1.2034552  51.5599966
  22.1874484   0.6064551  52.1482706  83.1993883   7.1425839   6.2908783
  83.3167952   6.7170496   5.4415455  84.0600222   7.0893498   6.7064514
  66.7273474  51.0477495  42.0192719  67.6579332  50.8734846  41.8782854
  66.6828823  51.9887733  42.1887541   0.1185416  40.2785254  52.0337725
   0.5068873  39.9192715  52.8314924  -0.4686929  40.9683228  52.3429108
  69.9043703  47.3278522  29.5759749  70.1357031  48.1043386  29.0662861
  68.9989614  47.1399927  29.3286467  61.8223667  62.1841478  48.4071636
  61.8664885  61.8578911  47.5083637  62.0061874  61.4172363  48.9496469
  11.5732573  54.5180464  23.7476563  12.2600364  53.9162254  24.0346861
  11.9249820  54.9220133  22.9543519  67.9296064  56.6969109  47.3901320
  67.9298258  56.1040640  48.1416416  67.3755407  56.2618971  46.7420578
  14.5733165  50.5689335  49.0614653  15.2976035  49.9498701  49.1530704
  14.1085528  50.5191135  49.8967743  41.9845295  56.2652636  66.5899086
  42.1768570  55.3901577  66.2531137  42.5378323  56.3500118  67.3663807
   9.8431777  72.9580355  61.7337227   9.2782592  72.2991514  61.3300323
   9.3066596  73.3406258  62.4279881  58.1870270  36.2540889  28.3388281
  58.2900190  35.5067229  28.9279532  59.0382671  36.3397789  27.9095602
  31.8320369  44.8817825  64.8590422  32.6325892  44.5174646  64.4813776
  32.0405005  45.8019876  65.0202894  41.7325028   3.3051150  29.6397471
  41.0520943   2.6613181  29.4427800  41.7641743   3.8650649  28.8640642
  70.6073999  23.4513640  66.4594173  71.1186361  23.0314183  65.7676697
  70.9680033  24.3359470  66.5203333  82.9050541  27.8274941  22.7165079
  82.6468658  26.9217920  22.8876114  82.5005436  28.3295894  23.4239745
  67.5117111  50.7133102  35.8087111  67.2247410  50.3074312  34.9906993
  68.3265400  50.2611685  36.0274649  80.2241611  34.9400449  48.1730223
  80.1294327  34.4457150  47.3588371  80.5836010  34.3085957  48.7961626
  57.1550846  67.7299690  20.9121895  57.5651217  66.8712854  21.0159421
  57.8186989  68.2605839  20.4713964  11.6516971  44.4153929  58.0249262
  11.9930171  45.2721739  57.7686787  11.7728614  44.3833590  58.9738894
  64.6748686  74.1481733  38.4638739  64.2021465  74.6103859  37.7716899
  64.8461294  74.8182726  39.1255927  64.4898987  33.6430311  55.4072189
  65.2405930  34.1690087  55.1314640  63.7980986  33.8684416  54.7852612
   9.6468161  57.5693703  57.3953533  10.4312705  58.0121326  57.7191114
   9.9711989  56.7498541  57.0219851  30.8677195  35.6295252  65.1339865
  30.1916980  34.9518657  65.1333094  31.0322474  35.8046341  64.2074299
  44.5136421   4.4594975  21.9999161  43.6503285   4.0603657  21.8921604
  45.1267975   3.7889166  21.6989269  78.1029701  72.1032810  26.8138099
  78.0289698  72.1560574  25.8609366  78.9333439  72.5353575  27.0138550
  83.7195692  37.1607440  42.7588177  82.8673229  36.7939418  42.9941320
  83.6137924  37.4501460  41.8525696  20.2417716  28.0144351  52.0788336
  19.7457894  27.2999041  52.4784422  20.6835993  27.6107924  51.3317776
  54.5158339  50.4929876  34.7881269  54.7680712  49.6987820  34.3171191
  54.3780899  50.2030945  35.6899142  64.4848776  27.0712590  63.1225491
  63.9436626  27.4124312  63.8345337  64.5827579  27.8095126  62.5211906
  81.1308575  73.0198383  58.0120802  80.7898235  72.5882864  58.7954712
  81.9230175  72.5288534  57.7938032  46.2246674  38.0513115  30.4230061
  46.0568731  37.6764460  31.2876168  47.1595638  38.2566757  30.4283180
  83.9204311  51.4553928  56.5851450  84.1288185  51.8075800  57.4504566
  84.3016624  52.0842648  55.9724331  59.8680267  67.6087382   9.8992815
  60.8095274  67.7645662   9.8249665  59.7995934  66.7462995  10.3088513
  79.3509636   9.6241801  40.0337696  78.5347185   9.4036525  39.5850635
  79.2171297  10.5180877  40.3488255   2.9518985  50.5592155  48.1546783
   2.2819995  51.2175179  47.9700089   3.1682776  50.6901217  49.0778637
  21.3527774  48.9730501  31.4481950  21.3413619  48.7555552  30.5161023
  20.9752177  49.8514557  31.4938188  84.7856426  53.5489845  23.5321093
  84.9291515  53.8203907  22.6254821  85.6157875  53.1535053  23.7979937
  60.0001097  32.2881746  67.7378368  59.6031523  31.5633750  68.2208729
  60.8368158  31.9405174  67.4291468   6.4455699  60.0814104  64.8611450
   6.3896655  59.3909264  64.2005873   6.8431949  60.8209276  64.4015408
  39.6389502  18.8717909   3.2514515  39.7651070  18.4381695   4.0954199
  40.2656906  19.5952435   3.2578221  51.6976166  64.4475269  34.0439153
  51.2766171  65.2027988  33.6333609  51.3000631  63.6894894  33.6154771
  65.6213045  55.6792974  42.5564432  64.8548746  55.1165676  42.4462318
  66.3518620  55.1563692  42.2261858  10.9443663  40.1384401  38.1237197
  11.8373774  39.8158264  38.2449055  10.9481810  40.5318689  37.2511196
  77.3890781  75.9057188  49.7887802  76.7230988  76.3881969  49.2989635
  77.3080540  76.2294817  50.6859112  80.8492088  17.8759646  20.4040551
  80.5393982  17.3217380  21.1203504  81.2188530  17.2623968  19.7691298
  83.1244946  39.8125529  27.5494909  82.6165962  40.1451111  26.8094349
  82.8863430  38.8872313  27.6069093  20.1439675  15.0296824  56.7017603
  20.2769621  15.6855529  56.0173798  19.7466954  15.5151217  57.4247742
  23.5818290  57.0936012  56.3269234  23.4447669  56.3810730  55.7026243
  24.0511893  57.7622032  55.8280134  79.7437494  57.4664231   3.0184450
  79.7680491  58.3764000   2.7225008  79.6091669  57.5256844   3.9642801
  72.4952793  74.1006088  53.2729721  73.3218765  74.2458868  52.8126812
  72.2380209  73.2116365  53.0284834   4.5676993  36.7007351  44.8918581
   5.0623797  37.5175285  44.8257589   4.3421267  36.6317391  45.8195353
  12.1149062  55.4062271  59.4500971  11.6684436  54.9211168  58.7561417
  12.5106429  54.7292900  59.9990797  63.7594843  80.1033401  44.8893929
  62.8902340  79.8702765  44.5633364  63.6024475  80.4369545  45.7727194
  68.5827398  48.4545279  55.2068567  68.1179190  49.2904377  55.2447367
  68.0695200  47.9224348  54.5988178   0.9624194  33.2672572  30.3572130
   1.8692206  33.2334971  30.0525761   1.0305594  33.4706974  31.2900591
   6.0960482  31.1844730  26.9451857   5.2343081  31.5341020  26.7184758
   6.3907718  31.7286611  27.6754117  56.9278288  64.6199560  47.4672222
  57.1950912  63.8129711  47.9071999  56.0727644  64.4147205  47.0891047
  61.0223501  10.2085896  23.8090935  61.0535162   9.6234436  24.5659771
  61.4898413   9.7351666  23.1209412  83.8795376  15.2973831  58.7541676
  83.8911915  15.3291416  59.7107697  82.9587460  15.4172337  58.5217476
   3.8178538  32.1048927  56.8748665   4.0883540  31.1878014  56.9196701
   2.9291438  32.0754480  56.5205193  80.7348537  47.9625177  55.4285955
  80.7079792  47.3489809  54.6943712  81.6423798  48.2657862  55.4542112
  51.7076128  11.9475575  29.7464314  52.0608919  12.4647923  30.4702320
  51.4586514  11.1144085  30.1465740  15.6576537  43.1117964  39.2303300
  15.6881808  42.8249741  40.1430368  16.5375613  42.9390526  38.8954306
  20.3342437  50.6899834  20.4058409  19.4070433  50.8053398  20.6137609
  20.4741572  49.7441864  20.4518795  17.9226073  18.5210555  55.0798464
  17.6813515  18.3239787  54.1747570  18.8373335  18.7983840  55.0289392
  43.3271512  60.8810737  26.5703144  43.7029465  60.1099637  26.1455860
  43.5280331  60.7647994  27.4989453  50.7720613  48.0436707  27.9502988
  50.4747820  48.7583160  28.5134506  51.1224222  47.3909426  28.5564566
  69.9166965  32.2120905  34.9160576  69.0443373  32.3989940  35.2628827
  69.9363565  32.6531959  34.0667820  85.2471066  40.3441954  20.5205011
  84.9611568  39.5974278  19.9943852  85.0693798  41.1069584  19.9701953
  24.2413710  29.0304971  12.1048927  24.8127459  29.1722441  12.8596568
  23.8921355  29.8984337  11.9025195  64.8255747  14.5301886  26.5257492
  65.4970568  13.9191599  26.2224331  64.4911688  14.1376086  27.3321476
   0.4520701  39.8145437  43.9406872  -0.3769685  40.2921867  43.9687252
   0.9583186  40.2533770  43.2570410  55.1512766  59.2023373  54.2492867
  55.4074097  60.0880432  53.9920855  54.4251299  59.3307066  54.8595858
  38.9904889  55.9042098   7.4107733  38.6378869  55.7583072   6.5329209
  38.5070427  55.2938762   7.9675522  68.4824896  44.5629597  60.7409000
  68.0719471  45.4173803  60.6080627  69.0718842  44.4616413  59.9935150
   5.7467173  17.2970068  15.0655341   4.8117637  17.2005606  15.2466226
   6.1295794  16.4608145  15.3309119  52.4619246  32.4358463  66.6039658
  52.1797752  33.2400870  67.0396519  51.6614008  31.9189095  66.5135670
  80.0542259  79.4032860  54.4467735  80.6898880  79.9846029  54.0293598
  79.9927235  78.6522865  53.8564730  73.6224031  56.0479021  28.0425072
  73.3033752  56.8647575  27.6588392  74.2457342  55.7089233  27.4000263
  41.0758322  31.3639660   7.3043194  41.8082016  31.4107247   6.6897621
  41.4465254  30.9587307   8.0882874   1.1118792  38.5678935  32.7029467
   0.1776122  38.6130357  32.4996305   1.4294242  39.4610000  32.5696993
  75.0930977  74.7177029  38.2727885  75.1247740  74.1987705  39.0764880
  74.1624355  74.8986626  38.1410527  75.7047939  71.3549900  62.5649595
  75.0146389  71.7992830  63.0574322  75.7901573  70.5012369  62.9892826
  74.0446472  79.0144968  45.2108908  74.3523264  79.6606874  44.5752764
  74.4134617  78.1851435  44.9069500  67.8481865  40.7605505  37.7224422
  68.5865498  40.4287338  37.2116065  67.9945946  40.4191446  38.6046195
   3.7965487  61.4833784  55.3745222   4.7098159  61.3047361  55.1503277
   3.4921454  60.6802511  55.7970810  64.4153786  52.0736265  44.2698193
  64.6001339  51.1590147  44.4833088  64.1905594  52.4748278  45.1093006
   0.7410630  76.8613174   2.4172821   0.5508336  76.4910271   1.5553465
   0.0357541  76.5379765   2.9778376  64.9728584  53.2532930  33.0060649
  65.7701874  52.7610779  32.8105593  64.5861292  52.7960157  33.7527728
  22.7814483  41.2133980  30.4229903  22.5003337  40.5819607  31.0851812
  23.3952426  40.7265091  29.8730612  15.0286387  63.0554008  44.9440384
  14.5785140  63.1071377  44.1008568  15.1832866  63.9676142  45.1893568
  77.6198578  21.6904426  44.3332195  77.6504612  22.6170063  44.0949488
  77.5940704  21.6899228  45.2900696  10.5617141  21.7889094  59.0371513
  11.3173198  22.1051955  59.5323896  10.6829356  22.1496749  58.1588650
  40.8163548  62.1488953  22.6724195  40.7073641  62.2233963  21.7243671
  41.4611769  61.4505291  22.7852297   8.9134311  26.5417218  58.2018137
   8.8335608  26.8841195  57.3115206   8.5120391  27.2130752  58.7535334
  36.1367901   3.0385249  54.0665865  36.2984475   2.4165385  54.7759724
  37.0004281   3.3957236  53.8597822  52.1284684   1.0509436  53.5920429
  52.5082978   0.6043856  54.3487072  52.4949082   1.9345515  53.6265802
  68.8512945  48.2384634  37.0932627  68.3126736  47.4472570  37.0823956
  69.1492224  48.3129501  37.9998612  16.5701865  40.3143644  68.5850906
  16.7883109  39.5307374  68.0805254  15.6584166  40.1850176  68.8461924
  17.3892211  55.9154367  63.2892847  17.9240416  56.5207434  62.7756596
  17.9966544  55.5417395  63.9277315  80.0988483  37.2570324  41.4853668
  79.7276688  36.3898063  41.6477776  80.0448990  37.3666954  40.5360031
  77.5522852  34.8723316  28.2857203  76.6161394  34.6857619  28.2145929
  77.9536676  34.0209055  28.4594893  69.5489073  54.0716600  51.5635729
  69.6189213  53.3781147  52.2195673  70.4547739  54.3222332  51.3823223
  83.8175106  62.6292849  41.5110397  84.7456646  62.4298429  41.3886166
  83.3634377  62.0280647  40.9206247  84.6903706  39.6446896  62.5206614
  83.9325428  39.5382404  63.0956459  84.3416405  40.0803995  61.7429876
  76.7817545  30.8567476  15.5497205  76.0333920  30.2681041  15.4513156
  77.4980593  30.2882767  15.8325338   5.9871672  73.5552645  61.4742279
   5.7483004  72.8105307  60.9223700   5.3802966  74.2490292  61.2160969
   2.8721349   2.7590676  10.2924290   2.5278298   1.8789215  10.4442063
   2.4476163   3.3003874  10.9580078  49.4664829  13.3513708  25.5795231
  49.9199074  12.8515692  26.2583676  48.5373228  13.2417269  25.7816830
  24.3268012  59.1762972  36.3604236  23.7986850  58.4946966  35.9448004
  23.7203215  59.9061680  36.4857221  73.7089825  59.1245794  67.3016977
  72.8296947  59.0733576  67.6764822  73.5927296  58.8794565  66.3837481
  63.9098757  46.9946308   4.1798678  63.8439005  47.4781151   3.3563843
  63.0209749  47.0037480   4.5348397   8.5438736   9.9621146  66.8292904
   7.6054200  10.1382010  66.7620087   8.7501248  10.1118605  67.7519321
  78.6582756  60.5510712  57.7100658  78.2892370  60.5764341  56.8272305
  79.2039490  61.3356400  57.7641916  74.2495775  69.3615961  22.3203540
  74.9211836  69.2674208  22.9958558  73.7731886  70.1549053  22.5652003
  75.8715534  53.7365484  18.4478271  75.2917910  53.8157845  17.6903141
  76.3273478  54.5772266  18.4895742  61.4164591  65.1921225  46.2494326
  62.1600437  65.2380419  46.8504381  61.3709497  64.2705631  45.9946871
  80.9524632  62.8300047  43.5462999  80.3300095  62.1033859  43.5179663
  81.7937660  62.4336576  43.3196926  24.5479392  40.5530119  53.7841177
  24.8207091  40.5133581  54.7007751  24.0571021  39.7430968  53.6450338
  80.2014542  21.8680358  43.0986023  80.5327797  21.1469960  42.5632906
  79.5033455  21.4758420  43.6230612  50.6181907  58.8558197  50.4643059
  51.3359450  59.4678164  50.6271505  50.4082679  58.9739132  49.5379066
  85.0259304  52.0284414  44.7837925  85.5763531  52.2779322  45.5261040
  84.3832493  52.7343845  44.7142267   4.7516125  10.3970452   1.4656248
   4.9520033  10.2697726   0.5383291   4.0872019   9.7359820   1.6600123
  25.4879397  26.6782065  48.8178864  25.1275080  27.1247216  48.0517616
  26.1536615  27.2784062  49.1537514  73.0977917  45.8939743  24.3031573
  72.1863556  46.1788273  24.3692684  73.5245562  46.2767410  25.0697041
  25.8616772  74.0361519  60.9664965  26.1108103  73.3265121  60.3744030
  25.0097075  74.3295599  60.6435585  81.2687778  68.1004858  60.7389927
  80.6173515  68.7859821  60.5907583  81.4360809  67.7369928  59.8694468
   8.8767680  13.5376017  65.1294994   9.0998896  13.2626765  66.0188007
   7.9212006  13.5935061  65.1287317  17.3421000  32.4104071  57.0297527
  16.6734027  32.0538449  57.6145220  16.9980143  33.2632518  56.7642546
  63.4921503  60.0600052  62.7777147  64.0088081  59.2542171  62.7756548
  62.8885841  59.9594069  62.0416307   8.4297045  20.2674907  58.4312201
   8.6362322  19.3566077  58.2217789   9.2634209  20.7289927  58.3408403
  26.7735203  70.7730248  11.8601742  27.1301182  70.7256486  10.9731426
  27.2726258  70.1224711  12.3540344  39.6310537   8.3390160   5.1998463
  39.4512861   9.0853043   5.7716599  40.4740875   8.0023022   5.5034056
  26.0884865   5.0777858  43.6093616  26.8201073   4.4789927  43.4596872
  26.0827836   5.6461947  42.8392267  47.3893174  15.3622763  53.2712126
  47.6184948  14.4593089  53.4911394  48.1613072  15.8719962  53.5170698
   8.4102066  -0.0410134  55.2340794   9.3222149   0.1384967  55.4626703
   7.9076155   0.6075805  55.7269764  79.0342093  51.3182116  16.0108745
  78.1335735  51.3357973  15.6871915  79.5571327  51.0644150  15.2503669
  36.0299691  30.4922622  60.8110952  35.8136281  30.6904071  61.7222309
  35.1819714  30.3641932  60.3859711  56.6661024  66.3665342  34.7918439
  56.4282322  65.9679413  33.9547229  57.2923183  67.0526981  34.5610547
  58.5871553  62.0183372  63.5805750  58.4403515  61.9166183  62.6401854
  58.0654335  61.3228798  63.9810419  72.8098679  67.9277182  50.1609039
  73.6197567  67.5537014  50.5079365  73.0403137  68.2220793  49.2797232
  66.4561939  34.3414330  27.2886515  67.2305107  33.9736438  27.7145529
  66.0013676  34.8143101  27.9856133  36.1605185  17.8889389  25.4731026
  36.7295282  17.1199389  25.5062237  36.0433500  18.1398268  26.3893738
  69.0450239  40.9789276  34.6676683  68.4014368  40.3200340  34.9282098
  68.8973999  41.1001873  33.7297249   7.2065543  38.9863634  57.7914381
   7.2134684  39.1628623  58.7321949   7.9762648  38.4364486  57.6452541
  27.3329734  63.4787321  47.7002048  28.2619094  63.2883024  47.5696230
  26.9814586  63.5748434  46.8150854  76.3486767  62.6024628  52.9976511
  76.3666439  62.0630169  52.2071409  76.6318130  63.4681702  52.7033377
  84.0935707  48.8215351  55.8560228  84.3737984  48.5723591  54.9753332
  84.1304779  49.7780228  55.8574677   0.8595427   4.6287101  44.2570925
   0.4432353   4.6125262  45.1188660   0.9784564   5.5590670  44.0659761
   3.8644122  73.0940437  49.4419146   3.3444022  73.8772202  49.6220732
   3.2677840  72.3655796  49.6139812  46.9876164  16.2041922   0.6078043
  47.9296654  16.3738318   0.6060877  46.8310946  15.7302161   1.4245548
  82.0208168  33.2297587  29.9911833  81.5522480  32.9871368  30.7898116
  82.2858715  32.3945761  29.6058989  73.3422327  76.3498592  29.6476030
  73.1973219  76.7941952  30.4829454  72.4699736  76.2781334  29.2599869
  81.8454456  72.8724146  53.6284161  82.0930481  71.9714260  53.8361168
  81.3844872  73.1800985  54.4088507  70.5958223  54.1725159  45.7579851
  71.2292862  53.6262178  45.2926731  70.4734039  54.9335766  45.1905060
  58.4228342  53.0729981  10.4363861  59.0365141  52.5341530   9.9371138
  58.7754839  53.9604779  10.3712216  68.9916372  56.3843393  62.4097490
  69.1513443  57.3129129  62.5785160  69.4954443  56.1946392  61.6182804
  59.7462654  70.9309959  33.9726472  60.2481365  71.5503216  34.5025468
  59.2344666  71.4821291  33.3805776  43.8921547  52.0624352  51.5433407
  44.8117733  51.8948317  51.3373423  43.7923002  53.0088377  51.4404821
  20.6583803   4.5044155  15.9888115  19.7943466   4.2066450  16.2734356
  21.0711210   4.8381014  16.7853871  40.5243969  32.7462697  18.2379889
  39.7064400  32.2498703  18.2656980  40.6966114  32.8722548  17.3048759
  39.7065544   2.5951499  25.8773613  39.1404128   3.2941651  26.2046146
  40.3937864   3.0511892  25.3915906  55.4147244  50.4485638  61.3724804
  55.9767001  50.3793437  62.1442509  56.0227918  50.4554732  60.6332684
  54.4305229  14.9169528  49.2726755  53.5013151  14.7531056  49.1115570
  54.4483185  15.7472539  49.7486115  48.7748948  74.1761810  29.4017696
  48.0528679  74.7825904  29.5666361  49.0622702  74.3821211  28.5122561
  23.4162798  62.7818472  39.2855000  22.9579344  61.9461472  39.3735480
  24.3445006  62.5508744  39.3214345  49.0531397   6.3380462  21.6591001
  48.1468868   6.6421050  21.6092229  49.3762159   6.3995159  20.7601690
  55.5711174   3.7550119  51.4237404  55.0101137   4.3120211  50.8840656
  56.1023331   3.2680452  50.7937384  81.6245270   6.8728924  19.6605718
  81.5916157   6.0268104  19.2141485  81.5372086   7.5176775  18.9585328
  39.0089417   2.7310380  31.7364550  39.7244906   2.1081156  31.8636799
  39.1802025   3.4256822  32.3723578  69.8905087  15.0793540  32.2409868
  69.8212671  15.5194855  33.0881715  70.7760096  15.2805090  31.9382429
  56.7634821   6.9378692  44.7897720  56.2930775   6.3786054  44.1715670
  56.7092085   6.4714414  45.6238747  15.0142630  15.2392032   8.5556975
  14.8232468  15.9773638   7.9770222  15.6924351  15.5670955   9.1462841
  48.7741327  21.6829872  54.8776817  48.4386683  22.5794744  54.8753452
  49.4472694  21.6773701  54.1971779  55.8197880   0.8377738  30.8566904
  55.2569771   0.2705568  31.3837004  55.4688215   1.7176771  30.9938931
  36.1105466  12.4975276  29.8326445  35.3333402  13.0343556  29.6777201
  36.7092919  13.0742431  30.3071260  66.3446364  42.0408908   1.9603911
  66.0728058  41.2660213   1.4685431  66.4546189  42.7203842   1.2952414
  61.5312752   5.9727218   9.8724547  61.1641488   6.8143299  10.1429072
  61.2091860   5.3502967  10.5244389  36.1181775  76.2060908  21.5428925
  36.6974678  76.6474048  22.1640968  36.0809794  76.7956282  20.7897043
  57.5850153   9.6372163  41.8488216  57.2439003  10.0800383  42.6258516
  58.4924173   9.4286478  42.0709801  76.3574266  54.7025442  37.6723576
  75.8259439  54.1497135  37.0995235  77.1695137  54.2106295  37.7938604
  22.4215451  47.1379144  42.4347496  21.6950503  47.1503694  41.8116283
  23.0696764  46.5576584  42.0354271  42.8662386  63.6516483  37.3295856
  43.3867398  64.4516844  37.4020576  42.9450026  63.3971221  36.4102149
  46.6696501   8.7708247  44.3690729  46.5304852   8.1868517  43.6235237
  46.3115025   9.6117342  44.0847635  80.5304718  18.6136961  44.2465067
  79.6448565  18.3416772  44.4871807  80.8575249  17.9033494  43.6945343
  76.4640693  67.3770733  43.5667086  76.4929859  68.0234344  42.8612900
  75.9892539  67.8147394  44.2732668  38.7516069   1.8966535  67.0879030
  38.0928922   2.5129580  66.7677546  38.3913732   1.0336266  66.8838263
  71.9125024  52.2604496  40.2859116  71.1443297  52.5065381  39.7705650
  72.5320903  51.9159729  39.6427321  47.5579262  11.8515968  41.9928932
  46.7355204  12.2615016  42.2609663  47.3420191  10.9244263  41.8930292
  42.2861814  10.5973136   3.0967113  41.3598871  10.6696844   2.8665578
  42.7214527  10.3794777   2.2725041  43.3420706  79.4507727   3.8551369
  43.6239004  79.2560563   2.9613295  42.7331400  80.1831612   3.7600794
   7.7017513  63.4990687  59.9468517   7.2479573  62.7112682  59.6473980
   7.6402178  64.1059298  59.2091751  66.4563036   4.0396228  47.2029352
  66.5614843   3.2991931  46.6055012  66.6565466   3.6803082  48.0672455
  56.4489174  19.6065068  33.6337900  57.1178579  19.6909213  32.9543614
  55.7399130  20.1808453  33.3445191  57.7065372  12.4670124  31.5774131
  58.6001730  12.1708918  31.7504978  57.8147650  13.3056426  31.1288381
  38.8647278  48.1572553   6.8266096  38.9431580  48.6763587   6.0262242
  39.6664437  47.6349583   6.8528643  66.9949579   4.1256398  41.1275482
  66.4668083   4.7697300  40.6559134  66.3542891   3.5438189  41.5365171
  66.4667034   9.6595001  29.1605878  67.0986652   9.2519397  29.7528291
  65.6341887   9.2363948  29.3706632  31.8142613  67.8509738   5.8266916
  31.8736466  67.3077705   5.0407973  30.9178456  68.1865599   5.8187237
  14.2033385  36.3975501  20.2809453  14.9183558  35.9046936  20.6835413
  14.0744208  37.1487284  20.8600330  46.0959902  66.6571600  32.1379256
  46.3471594  67.5804002  32.1657205  46.5788165  66.2557311  32.8603959
  25.4740181  76.6264532  55.2647448  25.8012429  75.7434590  55.0930548
  24.6598759  76.6816772  54.7643900  80.9450340  28.8224268  65.9328842
  81.2240887  28.2513452  65.2171850  80.0482845  29.0692139  65.7066488
  58.0347586  10.6579876  54.7554970  58.6625242  10.1511681  55.2705479
  57.1824789  10.2871656  54.9842691   1.2495898   4.6174788  31.5570641
   0.7658957   4.4924873  30.7405758   2.1576117   4.4162300  31.3307405
  72.8728151   2.2183776  30.0982761  73.0800056   1.6693369  30.8544874
  72.5745869   1.6020703  29.4293523   6.4572238  49.4973707  65.5681849
   7.2034549  50.0907755  65.6532049   6.6853713  48.9295816  64.8321152
  45.4892683  17.6975167  38.6720228  45.9376383  17.2730088  37.9405928
  44.7691011  18.1788170  38.2646585  74.9485397  21.3747573  29.4756842
  74.7413111  20.8746290  28.6862803  75.8714724  21.6081715  29.3759441
  40.6464720   5.9907442  64.9776411  41.1671162   5.3859007  65.5061579
  41.2919044   6.5640104  64.5640993  26.5187558  55.2284517   3.7757197
  25.7942208  55.0104740   4.3620291  26.7730816  54.3911972   3.3877030
  67.8800106  46.3429451  53.5302258  67.2192049  46.9357109  53.1721783
  68.7040997  46.6434002  53.1470299  14.2560290  11.6774321  29.5546150
  14.7860717  11.9482791  30.3042293  14.5055293  10.7660687  29.4016457
  66.7549229  32.2267985  16.0998893  67.3089838  31.9539785  16.8312001
  67.3658943  32.3709154  15.3772700  18.4113406   3.9589703  41.8441963
  18.1741046   4.7140872  41.3059187  18.1609534   4.2104095  42.7331924
  61.9499969  25.2853179  43.0543661  62.8383207  25.0596833  43.3304071
  61.6729307  24.5469427  42.5119019  65.2325869  10.8227670  59.5553875
  66.0508204  11.2707245  59.3407631  65.1600790  10.8992457  60.5067682
   3.9082908  26.0535526  44.4062901   4.3683719  25.9112287  43.5790634
   3.7323569  26.9942832  44.4237328  49.6229792  16.2180650  34.4063926
  50.5088902  15.9415627  34.6407914  49.2294931  15.4443991  34.0028572
  31.3956442  70.6109656  34.1868973  32.1633044  70.0972171  34.4378829
  30.6981125  69.9638576  34.0823340  20.6483325  19.7055962  22.3475208
  20.6552084  18.8264849  21.9689026  21.5602835  19.8702886  22.5871983
   4.4500350   7.4477994  38.1001520   3.9765643   6.7558354  37.6383662
   5.2049064   7.0043522  38.4871364  65.7260561  39.9794817  27.1765280
  65.1829863  40.6762600  26.8080020  66.3281393  39.7460175  26.4699745
  61.1271468  71.6735108  48.5697842  61.0666933  70.7834108  48.9166260
  60.9247485  72.2361011  49.3172836  24.0083312  13.8087511  24.7662926
  23.1109332  13.6676681  25.0679660  24.2408179  12.9957581  24.3177128
   5.3559645  40.8375146  28.8222923   6.1537608  41.2879221  28.5450211
   5.6678828  40.0454649  29.2600098  61.0520449  75.1550145  39.5395875
  60.1007262  75.1976032  39.6366596  61.2216654  74.2650665  39.2306352
  71.8839788  18.0131161  35.3536034  72.6976252  18.4053040  35.6704688
  71.8389511  17.1651101  35.7952929  36.1845613   0.9945438  61.6466999
  36.3220167   0.9026030  62.5895071  37.0535445   1.1894863  61.2958479
  75.4186926  47.2733428  51.3071766  76.2033996  46.7815455  51.0651055
  75.7505521  48.1145170  51.6210690  31.8252753  37.5621986  30.8055115
  31.8800162  38.2378602  31.4813209  31.7644976  38.0495739  29.9839258
  69.9069309  14.9159551  45.8006763  70.5190611  14.3682206  46.2921143
  70.3514433  15.0861812  44.9702168  41.6238213   7.0651031  36.7085934
  40.8638239   7.1755880  36.1372519  41.7865849   7.9394794  37.0624375
  77.4587027  57.6393993  58.4324121  77.6830689  57.6693685  59.3624592
  76.8882088  58.3963735  58.2991457  44.8204821   2.8185482   7.3717776
  45.4432076   3.5311337   7.5155630  44.9549120   2.5635214   6.4590206
  14.6403208  47.3921044  46.3685989  15.0756874  48.1105835  45.9098244
  14.6285334  46.6752178  45.7344341   6.8864742  79.7955652  31.7530632
   5.9759560  80.0892883  31.7228270   7.3988357  80.6040607  31.7603445
  40.6878193  17.0540025   5.4048624  41.4165314  17.6744893   5.3904572
  40.9937485  16.3130786   4.8817291  62.4674940   1.1821418  49.8447561
  63.0783463   1.9016582  49.6854162  62.7642870   0.4826330  49.2626619
  62.2656107  18.9510596  39.0377998  61.7710257  19.1864181  39.8227978
  62.1939278  17.9979348  38.9863515  36.1276045  80.1972336  62.4559259
  36.6815272  80.0471350  63.2220030  36.3312188  79.4705898  61.8670607
   6.9106196  18.2716823  56.3008165   6.6209697  18.4173393  55.4001951
   7.8661441  18.3017838  56.2529325  71.3548422   9.1420937  35.3377891
  71.6695118   9.9972749  35.0447345  70.6002331   9.3415457  35.8918738
  78.9445877  21.1598349  39.9089932  79.6226454  21.6023684  40.4195166
  78.5442209  20.5454755  40.5242205  67.9976845  10.9061551  21.7671752
  67.6802349  11.7243373  22.1493220  67.6739693  10.2250195  22.3566651
   9.9423846  51.5414407   1.9296684   9.0432175  51.8677881   1.8945208
  10.0174054  51.1388173   2.7948275  80.3292656  29.8945594  47.7602243
  80.9577370  29.9172735  48.4818506  80.0009823  30.7916999  47.7001905
   2.1522244  64.4169548   6.5038576   1.5536650  64.1571906   5.8035126
   1.6959246  64.1767552   7.3102846  78.0851889  24.0554380  42.1064329
  79.0046501  23.7942624  42.0553303  77.8263903  24.2002153  41.1963272
  84.5260725  71.4425590  18.1352082  84.3003473  71.7993071  17.2761288
  83.6832389  71.2236335  18.5326138  45.8510017  30.7187152  39.3768811
  45.0323820  30.3455234  39.0500402  45.8094549  30.5938172  40.3249884
  44.3635645  76.0278473  44.6890306  43.6524954  75.5913557  44.2198992
  45.0373354  76.1700431  44.0241671  38.7805977  66.1970098  24.5637894
  38.2702818  65.8494301  25.2952242  39.6901122  66.1357004  24.8557782
  84.3088913  11.1945474  38.0965400  83.3683205  11.1151469  38.2554150
  84.3786240  11.8295240  37.3836780  58.5220709  78.5727490  31.3717842
  59.2891016  78.6609518  30.8059883  58.2804003  79.4729395  31.5896845
  51.0884419  64.0853197  42.8742313  50.6579295  63.2972629  43.2056856
  52.0116415  63.8423903  42.8040695  82.0407772   6.8623263  42.7955532
  82.7426720   6.4582127  42.2853899  81.4303589   7.1980983  42.1391392
  77.0724010   9.2893952  25.9672785  78.0099535   9.1446620  25.8396769
  76.6684055   8.4498090  25.7479286  25.5392616  24.7101040   3.9332428
  25.2320021  25.4166003   4.5012989  26.4720314  24.6307202   4.1329231
   2.7833365  33.1044650  34.6267366   3.1792544  32.3696566  35.0952816
   3.5275935  33.5955644  34.2787123   5.3024958  26.2753105  59.6550131
   4.4189929  26.3376784  59.2920208   5.3224658  25.4237580  60.0916958
  56.1683655   7.2905183  27.1104431  55.6809473   8.1028086  26.9731903
  56.4110279   7.0050561  26.2296152  30.5888214  63.6397237  32.7425885
  30.0983754  64.4540174  32.8549266  29.9205389  62.9824168  32.5487447
  75.3169680  16.9817364  44.7153997  75.1820183  17.8305531  44.2940569
  75.7646656  17.1898842  45.5354500  68.5044765   7.2951901  50.1343012
  68.6367750   8.1633484  49.7534704  67.7737713   7.4090523  50.7420301
  79.8399115  37.3160887  47.2083616  78.9535046  36.9712043  47.1008062
  80.3352451  36.5897179  47.5868607  45.0626412  75.4256208  68.3942795
  45.0244561  75.7891328  69.2789459  44.4092265  74.7261352  68.3943462
  78.8981906  65.1004655  31.6948605  78.8966719  65.9996981  32.0229006
  79.8240129  64.8599810  31.6594911  79.3387222   0.6758519   0.9706937
  78.7988520  -0.0299294   1.3265681  79.9940395   0.8411971   1.6485226
   0.5885305  55.9824235  50.1453686   0.8880510  56.7190606  49.6125603
  -0.1695262  55.6379254  49.6732330  74.5053339  31.1856890  49.8454046
  75.2413797  31.0707045  50.4464436  73.7975359  30.6702423  50.2321434
  60.6861115   3.5729402  55.6617355  61.6304922   3.6409843  55.5212259
  60.3492785   3.1980842  54.8479414  56.4962101   6.9132036  48.4600163
  57.3038721   6.6036743  48.8700294  56.2963533   6.2531322  47.7962446
  10.3718909  62.7573922   8.2792416   9.6138295  62.2667339   8.5967770
  10.3213032  62.6859357   7.3260536  22.1050175  50.2917447   7.6375284
  23.0481251  50.2411672   7.4818936  21.7834815  50.8938684   6.9664898
  79.2637539  50.6540155  26.4259529  79.8285341  50.4051399  27.1576071
  79.3865728  51.5993452  26.3393617  35.1055217   3.0136847  40.2977133
  35.2214217   2.1924460  40.7755899  34.5613790   3.5510367  40.8733845
  43.2752266  75.1379831  48.8876963  42.5555697  75.4241676  48.3251810
  44.0655508  75.4242469  48.4297943  85.1166534  11.8621612  56.2364006
  85.7403469  11.2271047  56.5884542  85.4968357  12.7144766  56.4491177
  40.2783862  75.8468080  23.6235619  40.6447354  75.2870692  24.3081856
  40.9346810  76.5321524  23.4978271  17.4552002  64.7889478  48.1926346
  16.5069619  64.6583087  48.1958628  17.5859919  65.5816455  47.6722908
  14.0511950  46.0697767   4.4859877  14.6591338  45.6713524   3.8631716
  13.3714875  45.4080662   4.6139279  70.9471798  18.4327757  39.0143561
  71.3527489  19.1055477  38.4674335  70.2765036  18.0413473  38.4547091
  74.2286959  80.2825953  47.6378250  73.5716715  79.8385900  48.1739378
  74.2319003  79.7977018  46.8125391  43.2977476  78.5580311  36.2115407
  43.4528056  79.0575452  37.0132113  42.4049750  78.7885995  35.9545732
  65.1892138  20.8993578  50.5351067  64.4278002  20.4194713  50.8609772
  65.1926231  21.7135048  51.0384798   5.7178973  25.2530885  29.6230865
   6.6411017  25.4212022  29.8119473   5.2433204  25.7330203  30.3018188
  68.1419945   1.7412521  51.5603304  68.0483055   1.7415828  50.6077290
  68.2578802   0.8190895  51.7892790  45.3355074  35.3231835  37.9019880
  46.2414503  35.0639033  38.0701232  44.8893595  34.5055294  37.6814747
  54.4383707  60.9073205  58.3355618  53.7563029  60.8464141  59.0043783
  54.6414271  59.9977929  58.1170368  72.5274801  41.2126875  35.9801483
  72.5368738  41.5997648  35.1047540  71.6152334  40.9587479  36.1199665
  33.9671078  79.6402066  13.8776815  33.8271513  78.7660641  13.5136497
  34.4208613  79.4848539  14.7060573  16.7136391  29.0382888   7.5552120
  16.9839819  28.6807563   6.7094460  16.9417342  28.3566585   8.1873408
  47.2094145  71.4744217  38.4362864  47.7057305  71.7682637  37.6723766
  47.8773775  71.2051387  39.0667987   7.8168486  25.0491142  23.0609608
   7.0423411  24.5434189  22.8146958   7.5467204  25.5374789  23.8386250
  60.0943756  48.5885525  41.3314056  60.8912039  48.7365627  41.8407106
  60.2749777  48.9907980  40.4818106   2.1082583  68.7146873  18.9517295
   2.9896918  68.7231333  19.3248725   1.5437236  69.0148742  19.6640635
  66.2517881  15.6309950  30.0757074  66.1870909  14.8271418  29.5600867
  66.4924622  15.3339434  30.9532428  69.5805788  36.6669607  48.3554316
  69.0197134  35.8924556  48.3130312  70.4718876  36.3181472  48.3439541
  51.7692995   9.8055917  42.3188591  52.5063753  10.0067186  41.7422295
  51.4431143  10.6611395  42.5979137  65.1777735  76.5903775  15.3809512
  64.7126189  77.2468222  15.8995533  64.8242274  76.6890095  14.4969213
  64.5555019  12.9373431  49.7039080  63.7564611  13.1700706  50.1767826
  64.3095970  12.1761847  49.1781712   3.3477869  59.1977961  68.9468145
   3.5034528  58.9057023  69.8449707   3.4493723  58.4072048  68.4168386
  71.6312551  25.2603149  51.7133951  71.5183020  25.0648189  50.7832050
  70.9743118  24.7205591  52.1530724  59.7197142  58.2186968  55.8915186
  59.4402876  58.4219057  54.9988508  60.2944651  57.4592979  55.7955599
   5.0726452  58.7073142  41.8919659   4.5694390  58.7986595  42.7010822
   4.5255151  59.1173203  41.2220573   6.1788097  71.6270287  50.3597927
   6.3775936  71.8735732  51.2630844   5.4561582  72.2020436  50.1080751
  23.0566414  17.1702697   2.5057402  23.8804539  17.6115921   2.7126065
  22.6604899  16.9906046   3.3583918  53.0975303  34.2671462   5.8337441
  53.0315504  33.7187591   6.6155091  52.2647795  34.7379442   5.8004561
  81.7782211  20.4628253  41.4063978  82.3509598  20.9257960  40.7949591
  81.9954872  19.5385432  41.2850142   2.4553870   5.9213090  28.3353734
   2.8417968   5.6217355  29.1582775   1.6678141   5.3871697  28.2321453
  82.6605225  11.2501895  50.8800459  82.7324009  10.6439233  50.1428127
  82.6732635  12.1187627  50.4779863  84.0283298   3.7910256  32.5616503
  84.1411686   4.3795380  33.3080769  84.9203396   3.5837889  32.2830558
  75.7273951  73.5734696  48.0608273  75.5646029  72.9915608  47.3184586
  75.6646815  74.4547749  47.6925898  38.4133044  65.7610841  44.5797729
  38.9474383  65.7157857  45.3727913  37.5109139  65.7167489  44.8959398
  77.5776815   2.0701770  52.1141243  77.1987295   1.2207240  52.3400831
  77.7768612   2.0028113  51.1803007  80.7255268  60.5597210  40.3168774
  80.4043102  59.8595905  39.7486663  81.6115570  60.2871180  40.5553627
  79.7031298  69.4101150  39.3568587  79.2436686  68.7357802  39.8572588
  80.3850832  69.7255141  39.9498987  25.4002570  39.2080212  25.8830810
  25.7899474  40.0437260  25.6262255  26.0670947  38.7902451  26.4280748
  17.0443820  30.3134942  34.5866895  16.2224292  30.7771873  34.7467184
  16.8827914  29.4240427  34.9013209  37.3898649  32.6254439  31.2000299
  37.8511167  32.1806526  30.4889464  37.8441381  33.4627962  31.2933373
  39.9578610  78.7582473  38.1565285  39.7672358  79.5237202  38.6986947
  40.5968609  78.2582080  38.6643410  24.5708218  65.8141858  66.2895823
  24.8609486  64.9026532  66.2554455  24.9046030  66.2022264  65.4807281
  71.6429806  47.0190716  59.8375273  71.8393660  47.7656126  59.2715454
  70.9290171  47.3241949  60.3973341  67.0174217  30.3654099  38.3238244
  67.5692034  31.1474037  38.3078289  66.9470215  30.1408887  39.2516518
  50.5642986  31.4076114  38.0529928  49.6423149  31.3799047  37.7972364
  50.9224749  32.1568799  37.5770330   5.6487559  28.7552524  65.2878952
   4.8643683  28.3303475  65.6349277   5.3411006  29.2342901  64.5184135
  25.5486608   9.7100025  17.9451060  24.7688508   9.5182782  17.4241757
  26.1014009  10.2336800  17.3650420   4.7639560  19.8075330  43.7166977
   3.9949416  20.3094411  43.4466457   4.5987605  18.9225996  43.3913755
  18.5200556  50.3438034  -0.2064380  18.2839306  50.5038717   0.7072678
  19.1110238  51.0626605  -0.4305658  53.0465937   9.5356214  59.6066380
  53.8326693   9.8074293  59.1328907  52.7184486   8.7831450  59.1143656
  13.9881619  56.0117521  11.0663262  13.4770926  56.2409904  11.8425217
  13.4583815  55.3535273  10.6165352  48.8695192   8.1597865  50.0923634
  49.4478846   7.3970753  50.0919008  47.9865742   7.7908230  50.1147795
  70.6637859  38.8621402  36.8477917  70.5763006  38.6317348  35.9228635
  70.5901575  38.0274749  37.3105478   3.2765960  13.6356413  44.3024254
   3.0743502  13.4981096  43.3769989   4.2273616  13.5390306  44.3567324
  70.4994965  25.6062889  46.4783001  71.0373211  26.0239053  45.8055639
  70.2829552  24.7482944  46.1133480  63.9753342   7.6653284  61.8130732
  63.9314365   7.5711268  60.8615303  63.1836224   8.1520045  62.0423508
   3.5182681  56.7445404  47.0551395   4.3528142  56.9388539  47.4817610
   2.8607979  57.1546085  47.6171064  85.0969315  27.4202275  61.1015463
  85.9218407  26.9466472  60.9944153  85.3020954  28.1219363  61.7193985
  68.8834476  12.2945309  47.5152111  68.8973331  12.9615307  48.2016134
  68.6116982  12.7665198  46.7280579  13.6651316  68.7152309  14.7764146
  14.6084299  68.8285775  14.6599245  13.3652535  69.5523567  15.1307106
  80.1000690  50.0138044  50.9508038  80.3750038  49.1307068  51.1973476
  79.9476767  50.4587269  51.7845011  54.4338226  23.6561918  40.7310534
  54.8937035  24.4880867  40.6183958  53.6458206  23.7435889  40.1947355
  78.6777830  23.5324621  48.5861540  77.9197025  23.8781691  49.0573597
  79.4272709  23.7667131  49.1335392  65.7641935   9.6274102  42.5278282
  66.1317205  10.4321814  42.1624517  65.7914114   9.7603011  43.4753704
   5.9449004  15.4773462  27.3397493   5.5782317  16.1414266  27.9235125
   5.3077983  14.7632408  27.3591948  35.3843093   4.1204777  16.1211991
  34.6086526   3.6628962  15.7968402  36.1161542   3.7028244  15.6671059
   2.8680896  22.3108101  18.0932891   3.7214278  22.6204562  18.3968818
   2.9954718  22.1330214  17.1614110  80.9301949  14.8559010  40.2713680
  81.2702274  15.0784969  39.4047284  80.0004864  15.0795913  40.2285814
  35.9767523  67.8992147  61.8938541  36.8556490  67.9483766  61.5178728
  36.1208763  67.8962929  62.8401375  52.6443663  67.0141084  22.6332784
  52.2159949  66.8581457  23.4749436  53.5802832  66.9688327  22.8288460
  63.8908768  65.5761862  49.2847300  63.6647463  65.7552958  50.1974249
  63.8478851  64.6228790  49.2099667   6.3850363  42.1281728   6.8845263
   6.1288269  41.8071231   6.0199347   5.8975705  42.9450648   6.9908085
  76.0709438  31.8829110   7.2312584  75.5136404  31.8025162   6.4571896
  76.3462982  32.7996465   7.2339764  63.0485535   0.0979728  32.8365278
  62.4371958   0.6673779  32.3693490  63.1961203   0.5398412  33.6727142
  52.3845282  69.7742409  67.8834248  52.1287527  68.8610894  67.7531624
  52.3172179  70.1682300  67.0136690  66.8567619  18.0108860   0.7238713
  67.6137981  17.4697258   0.9480801  66.4590487  17.5676753  -0.0255451
  12.1720370  48.0158969  11.1019268  11.9124230  47.1032473  10.9758225
  13.0656680  47.9660048  11.4412918  58.5527182  27.6358557  68.2421160
  58.5687208  28.4581470  68.7318230  57.6221275  27.4474978  68.1206512
  33.2641721   9.6217167  20.8852410  33.7498140  10.1372230  20.2413201
  33.2393646  10.1752841  21.6657400   7.5637093  72.0730800  52.9550409
   7.7484718  71.1905796  53.2764244   8.2562795  72.6153476  53.3325624
  63.8148069  28.6334419  47.3389530  64.6011496  28.8003445  47.8586054
  63.5943031  29.4836044  46.9583845  55.0008202   9.3835032  48.3590889
  55.3841305   8.5147953  48.4801245  54.9330807   9.4852537  47.4097300
  63.6150122  29.8357224  32.8502011  64.1789484  29.2645335  32.3287106
  63.8389254  30.7207918  32.5625491  18.1081810  78.7698541  37.3489237
  17.5504055  78.9627261  38.1025267  18.2354536  79.6170994  36.9220638
  31.8919953  28.7041285   8.3092919  32.6998147  29.2175689   8.3146658
  31.4636811  28.9228358   9.1369047  72.9491806  58.5682201  26.5179920
  72.5598240  59.1776514  25.8909154  73.2627296  59.1253710  27.2303820
  62.8667212  18.5057163  42.0222902  62.0998192  18.7937403  42.5173950
  62.5896502  17.6903534  41.6043854  57.8124189  13.5546243   0.9895477
  57.0430613  13.8008404   0.4760278  58.3979082  14.3087125   0.9203795
  74.7714949  30.0354338  36.1794353  75.0678492  29.3783712  36.8092585
  74.7465467  29.5711160  35.3427672  28.2429972  59.0956766  38.0117679
  28.2468310  59.4620855  38.8960528  29.1605273  58.8885719  37.8343439
  19.7754121  26.7894840  44.5182419  20.2368832  26.2377930  45.1498413
  20.2762485  26.6962361  43.7078762  70.7213974  42.2786331  14.0397096
  70.1421356  42.0434141  13.3148921  70.1295376  42.5558758  14.7390437
   1.7195033  34.5615172  55.1449728   1.3375663  35.0062156  54.3882656
   1.6952514  35.2148390  55.8441257  64.1197348   1.3500471  35.5812454
  63.6124754   2.1612233  35.5510283  63.7781572   0.8822055  36.3432693
  33.1358050  43.4005308  55.4050112  33.9717387  43.6430883  55.0067568
  33.1743049  42.4471140  55.4808235  62.3089361  11.1288464  41.5547895
  63.1316137  11.5738726  41.7582321  62.3446512  10.3166687  42.0600843
  40.7184418  50.2192851   1.9620648  41.5112027  50.0410136   1.4561072
  40.7601651  49.6067085   2.6963940   5.1323413  12.6093113  68.5454845
   5.0494384  12.2858679  67.6484108   4.7639274  13.4923053  68.5167265
  17.1290206  35.9754276  21.9413614  17.1873473  36.9092083  21.7391706
  18.0079554  35.7391906  22.2378087  81.3306236  33.7127209  55.3486347
  81.3780594  32.9824972  55.9656858  82.0573521  34.2839551  55.5972195
  76.0511112  28.3818102  37.7678967  75.5507469  27.6228094  38.0675316
  76.6290331  28.0346298  37.0884061  42.7810066  23.1923313   2.4319830
  42.2499245  23.8679858   2.8534975  43.5267609  23.0723925   3.0199423
  15.1018046  27.6608372  18.5309958  14.8102950  26.7541385  18.4353423
  14.2965983  28.1570506  18.6781323   8.2567881  26.9138670  38.7385225
   8.1385611  26.0301113  38.3903408   8.5500907  26.7790222  39.6396470
  37.2985380   2.0840092   2.7405682  37.9828804   2.6022024   3.1640949
  37.7622955   1.5683432   2.0808354  58.3123827  15.6824362  18.0703390
  59.0671253  15.9308577  18.6040819  58.6557007  15.0314116  17.4583471
  43.0793085  71.2318606  30.4843402  42.7967921  71.4639474  31.3689590
  42.3898163  71.5738619  29.9152470  50.4674911  59.8851442  47.9421854
  50.7293749  60.7648230  48.2138634  50.9168720  59.7483158  47.1081781
  38.6009701  40.0821291   6.6687432  37.8711613  40.6972312   6.5962115
  39.3712243  40.5942537   6.4224282  25.1852607  15.4277778  40.6534052
  26.1358069  15.3275442  40.7049370  24.8968123  14.6978593  40.1054573
  67.6470137  49.9000120  31.0032082  68.5584068  49.9779129  31.2852216
  67.3716164  50.8005142  30.8315206  59.7290182   0.1325935  14.3599141
  60.5806875  -0.2934428  14.4567597  59.8141241   0.6603532  13.5658991
  53.8077736  26.6786146  13.9253914  53.9444542  25.7325792  13.8747275
  54.6227360  27.0189309  14.2945158  80.9756452  56.9984941  60.0578931
  81.9183523  57.0802979  59.9135420  80.6228668  57.8585331  59.8296115
  42.5194073  36.3397431  28.4307432  42.0607758  35.5035210  28.5121298
  43.1930590  36.3105607  29.1101336  72.9895449  46.8287611  29.7733426
  72.7739525  47.0361090  28.8640809  73.7869644  47.3278236  29.9502182
  68.3793831  48.1019688  23.5654259  67.9099655  47.3714781  23.1626058
  67.7331114  48.5155201  24.1377354   7.9138659  58.7067413   9.5128411
   8.6032962  58.3744717   8.9379382   7.4079799  57.9306078   9.7535348
  18.6079558  76.3735011   6.9075051  19.4313296  76.0972478   7.3099604
  18.3033188  77.0957425   7.4568644  74.5006275  56.7473459  19.4254446
  74.4383621  56.9822836  20.3512740  75.3865004  56.3987160  19.3258595
  81.8441391  43.2420397  54.4605970  81.5345287  43.2303953  55.3662634
  82.7718830  43.0144596  54.5216942  28.5887240  18.0995691  42.0794630
  29.1721438  17.4201286  42.4174166  27.8004168  18.0277920  42.6176548
  83.8858232  63.7283685  28.3981457  82.9456958  63.9036515  28.3572808
  84.2245350  64.3801835  29.0118542  11.1047648  17.3488116  32.6017070
  10.4861449  16.8426931  33.1283855  11.9580077  17.1704149  32.9971576
  58.6970060   3.0716820   1.2475291  58.3321684   3.8284464   0.7887974
  57.9320543   2.5632544   1.5169373  20.1339625  24.0990305  47.5708866
  20.0976180  23.1789517  47.8323555  19.4431971  24.5207405  48.0819893
  78.5303774  14.2645810  54.5520720  78.5475340  14.7794125  53.7452945
  79.1685000  13.5665677  54.4043824  84.5031357   7.4182224  12.8271770
  84.5378971   8.1677675  13.4214878  85.4040337   7.3131400  12.5212622
  85.2815628  32.6523685  48.1543207  85.2807140  33.0622602  47.2893238
  84.6705627  31.9200540  48.0729532  58.8771391  25.9152198  24.6243834
  58.5010767  26.4765954  25.3023672  58.1534100  25.3511548  24.3518448
  79.2379332  42.0055866  15.8589947  79.1083288  42.0316315  16.8070221
  78.4651375  41.5508318  15.5240107   1.3127326  66.9262743  64.0900564
   0.8311557  66.4116812  64.7377539   2.2009086  66.9839191  64.4422722
  19.2723178  16.3704062  37.6118994  20.1350974  16.3218343  37.2002196
  18.7791728  15.6494975  37.2203279  79.2578268  26.4786100  64.4109344
  80.0216103  25.9114552  64.3051338  79.0676737  26.4518309  65.3486729
  73.9723253   5.2888632  41.4445877  73.9405298   4.4303024  41.8665981
  73.0711126   5.6089360  41.4845991  79.8621321  19.2478168  25.2647686
  79.2778969  19.8846936  25.6762147  79.3929386  18.9643776  24.4800687
   5.0704573  15.7449400  61.9675779   4.1840552  16.0984588  61.8931150
   5.3866385  16.0670042  62.8116989  74.0963411  20.1449299  42.0240545
  73.7789536  20.9915638  41.7098808  73.3849478  19.8100173  42.5699329
  24.4178008  30.6121516  41.1790371  25.2697562  30.9460235  40.8981037
  23.8167666  31.3445807  41.0428667  14.8017310   5.4896408  33.1399059
  14.4928931   6.0913390  33.8172626  14.2884921   5.7177550  32.3648024
  84.2293262  19.3933260  55.8572769  84.7217369  18.5886943  55.6949902
  83.9937019  19.7099423  54.9852324   9.7026156  15.5874252  55.0743008
   9.7849749  14.8344326  55.6594944  10.5467318  16.0341620  55.1385736
  79.8423338  23.7750912  25.5649281  80.2735043  24.2897677  24.8827004
  80.0348949  24.2443490  26.3766861  49.4006928  51.3181558  26.8528023
  50.1874741  51.6590216  27.2782746  49.5757969  51.4103677  25.9162846
   3.3303737  14.5368195  21.7515659   4.2042827  14.9256301  21.7881894
   3.4898089  13.5973847  21.6606045  23.3180505  57.9053752  52.8449116
  23.8167840  57.4069183  52.1975825  23.8121300  57.8032868  53.6583552
  54.1869154  79.1414032  44.7534657  54.6316901  78.9428639  43.9294577
  54.5020380  80.0132779  44.9917173  12.8385447  16.1859918  54.3634653
  13.1149291  17.0948684  54.2460537  13.0006884  15.7747555  53.5144520
  36.2411602  60.0399246   9.5607176  36.8088158  60.7414820   9.8798027
  35.4750355  60.0724652  10.1336231  83.1957340  28.8321161   9.9582773
  83.9265347  28.2327771  10.1097524  83.0210400  29.2185187  10.8164203
  52.6049899  29.7644091  34.9208593  53.5556315  29.8584914  34.9813986
  52.4752234  28.9999795  34.3595743  76.1142302  25.8060193  36.9136620
  76.5841627  25.1698494  36.3745141  75.1899767  25.6435561  36.7249894
  83.5890198  33.5974836  16.9308972  83.1778717  33.6321259  16.0671890
  83.9237499  32.7034760  17.0011377  -0.3150759  69.6691127  26.4942408
   0.1373853  68.8394541  26.3420033   0.3267755  70.3388126  26.2581062
   0.4055308   5.9120315  54.6347857   0.1950072   6.6534537  54.0671539
   1.3564776   5.9509915  54.7368765  60.8919382  33.4499621  22.6280379
  61.3386774  32.6087308  22.5332499  61.4625549  34.0757823  22.1819663
  67.8962469  22.8179169  34.9697399  67.6402044  21.9441390  35.2650118
  67.1446753  23.1302929  34.4659638  66.2202454  28.6274934  54.1636658
  66.5108633  27.8438759  53.6970663  66.9310379  29.2567372  54.0409565
  71.9915342  64.8286533  21.0551643  72.3725224  63.9910221  21.3187099
  72.6707315  65.4734945  21.2528944  -0.0529290  61.3278675  69.5558405
  -0.0860406  62.2837973  69.5193481   0.6704711  61.0909462  68.9755011
  14.9436759  59.6931028  46.1367464  14.0401362  59.7480583  45.8255529
  15.4669474  59.6102238  45.3395367   5.2578353  18.6252189  19.1414523
   4.7513961  19.4113982  19.3455946   5.3356742  18.1665301  19.9779797
  83.6301041  60.1210737  64.5568228  83.7757301  60.9324503  64.0703058
  83.5282707  60.4020548  65.4661703  51.7078867  72.9564185  32.4048471
  52.0503035  73.8495601  32.4406362  51.4388647  72.7668483  33.3036923
  55.0002241  32.2181630  28.3175874  55.3151226  32.4411392  29.1935730
  54.0503216  32.1508408  28.4144759  59.0226078  31.6714525  37.6418090
  59.3263292  31.2767124  36.8243933  59.1658163  32.6102805  37.5221205
  66.6175413   1.5724291  58.7817526  65.7197905   1.2912507  58.9584208
  66.6205502   2.5073028  58.9872599  24.6633815  32.1732950  14.4802165
  25.4388331  32.5627542  14.8842335  23.9625739  32.8024173  14.6513999
  13.1301402  34.6800399  43.5617018  13.8215827  34.6229434  42.9022551
  13.2145022  35.5630755  43.9213705  45.2138424  13.4834957  57.1593189
  45.5817175  12.8834546  56.5105915  44.4692278  13.0091774  57.5291920
  79.4239712   7.7440763  26.3993239  78.8772583   6.9586223  26.4193153
  79.8893023   7.7333558  27.2357345  51.4992714  21.7568874  10.0594115
  51.2515211  21.2941599  10.8598709  51.0158491  21.3095975   9.3648106
  15.9616383  63.2402470   9.3273249  15.7439764  64.0190198   9.8395434
  16.4251622  63.5791328   8.5614672   6.0178660  56.1140347  27.4234819
   6.1223029  55.4665709  26.7262626   6.9119929  56.3756275  27.6433182
  71.9282484  44.7445917  17.3705196  71.7278242  43.8577175  17.0713270
  72.8296471  44.6921921  17.6882744  42.6108408   9.6973413  15.9048104
  43.5504913   9.7336143  15.7260120  42.4443054   8.7810481  16.1259568
   1.0422810  49.6645077  11.6403237   0.8372172  50.5687084  11.4024105
   1.9569739  49.5505115  11.3823071  11.6843509  46.6863155  36.9811177
  11.9168185  45.8781433  36.5238976  10.9719561  46.4329958  37.5681019
  60.2121639  12.4478066  40.4725170  60.5693245  12.5725818  39.5932555
  60.9136152  12.0117629  40.9563160  51.2547818  79.3789197  45.3928089
  52.1965495  79.5481155  45.4188681  51.0564604  79.2710631  44.4626093
   1.5211867  52.0235586  52.7274418   2.0956134  52.5131083  52.1387148
   1.6194819  51.1114359  52.4543047  81.0449505  30.5475688  52.2281837
  81.8069744  30.2977562  52.7508163  80.9358692  31.4836097  52.3959923
  72.8744459  39.0773368  26.3107204  73.3402157  38.6088586  27.0034075
  73.4403944  39.8204994  26.1018109  62.5403738  38.8991165  27.7732444
  63.2997990  39.1620588  27.2532725  61.9252872  39.6270728  27.6839304
  70.5648708  50.3028584  15.0748980  70.1720476  49.8356962  15.8122456
  71.0038519  51.0541153  15.4738152  84.6560287  22.7428174  63.1150818
  84.4119072  22.5223351  62.2161818  84.5961189  23.6974168  63.1522512
  16.4584349  34.9659610  56.5264988  17.1177386  35.3744984  55.9655666
  16.0432624  35.6989288  56.9810581  56.5782404  62.2267103  48.9401293
  56.9509363  61.9765425  49.7855568  56.9027233  61.5644312  48.3299398
   5.4436969   9.0216047  29.9159527   5.1241015   9.2699385  30.7833743
   4.7103595   8.5549909  29.5150471  64.9188995  27.0171928   8.5749388
  65.8396387  27.1235633   8.3358777  64.5466948  27.8950620   8.4910136
  23.8079451  43.6623478  33.3476281  23.2634639  42.8882694  33.4910798
  24.1156100  43.9040041  34.2212272  68.4100199  15.7738149  14.7667313
  68.5716534  14.8802388  15.0694323  67.5779104  16.0172820  15.1723826
  25.7750224  51.7035341  32.8265810  26.0743522  52.6117706  32.8683162
  25.1338576  51.6299391  33.5334969  79.6579075  43.6682796  49.5867300
  80.0377464  44.5277882  49.4045353  79.7225571  43.5744381  50.5371237
  18.4794196  73.8570025   6.2503042  18.2279881  73.5083201   7.1055451
  18.4198721  74.8069193   6.3520136  61.8673372  33.6727500  28.8630414
  61.6008806  33.6633492  27.9437232  62.1946669  32.7882528  29.0265942
  71.8109179  50.5069685  66.4522457  71.3875055  50.3192091  65.6145716
  72.7418089  50.5752611  66.2400961  62.1910095  35.4918242  21.4728379
  62.9509640  36.0003400  21.1897993  61.7814159  36.0300875  22.1501374
   8.8248824  18.2582617   4.3842345   9.0955733  17.4892104   3.8827178
   8.6080645  17.9148221   5.2509952  77.2224998   9.3861496  53.0463648
  77.4067211   9.0508372  53.9237785  76.3804436   8.9955902  52.8126144
   3.9362239  21.5775442  60.6120729   4.8827266  21.6562247  60.4930449
   3.5740661  21.6909933  59.7333241  61.4379072  32.1084619  56.3160419
  61.8948078  31.9142818  55.4976463  61.0873461  32.9903674  56.1912155
   4.1940554  72.9195573  11.5823403   4.8978241  72.8513172  10.9371319
   3.6766299  72.1240070  11.4574185  74.9694443  54.9844980  45.7721758
  75.5217123  54.4959068  46.3825130  74.1733932  55.1741886  46.2687159
  80.5275059  71.2288141  33.1439781  79.9107933  70.6266928  32.7276254
  80.3211498  71.1756563  34.0771556  24.7210701  57.9942360   6.8642369
  25.3406723  57.4837377   6.3429680  24.1738518  57.3382428   7.2960320
  76.5641403  36.3034558  50.9212875  75.6330490  36.1396384  51.0711670
  76.9346523  36.3997412  51.7986059  69.3012238  27.3765302  61.1587811
  68.3949995  27.6127362  61.3567543  69.2362499  26.5349078  60.7074690
  71.6971779  33.2515693  41.1790800  71.9823027  32.6250768  41.8442392
  71.6338539  32.7354479  40.3754377  75.8275318  28.3515525  51.8939352
  75.3253126  28.0139422  51.1522961  76.3235855  29.0861893  51.5327263
  49.9933147  18.1405282  27.1242976  49.2987394  18.7797785  27.2828865
  50.0648069  17.6555943  27.9464650  10.2727126  47.3268270  21.5145850
  11.0769938  47.8437853  21.5607142  10.4928397  46.5919685  20.9420824
  77.3817015  28.6396360  61.8434429  76.5866947  28.6967468  61.3134098
  78.0862427  28.8912582  61.2463331  10.8790778  46.1550283  64.4601727
  10.2763652  46.3549328  65.1764202  11.5080642  46.8765211  64.4679928
  60.0231123   3.1637967  47.0718622  60.2066469   3.7650019  47.7937365
  59.6639776   3.7210891  46.3814449  84.1899300  11.4763212  48.6351728
  84.3368912  10.5336714  48.5574102  84.0903282  11.7784762  47.7323961
  65.7077503  12.5910008  38.0050468  65.7138634  13.5251844  38.2136011
  64.8312616  12.4292517  37.6559901   6.6083049  41.1757803   2.9040170
   6.7779445  40.3917408   3.4262547   7.3826121  41.7230415   3.0351070
  10.0032710  11.5695298  11.8045390   9.1753672  12.0390785  11.7029214
   9.9816131  11.2372875  12.7019680   0.4777335  28.2637024  55.2991867
   0.4467868  28.8587976  56.0482788  -0.1450635  28.6336684  54.6735001
  61.1767950  79.0472471  30.3139186  61.8654051  78.3830824  30.2833009
  60.8057585  79.0484212  29.4315553  69.4453478  17.6901352   1.4558849
  70.0345373  17.6050639   2.2054529  70.0038767  18.0097628   0.7472812
  61.8569040  15.1582527  45.1039314  61.2636518  15.5796802  45.7257700
  62.3587084  14.5388281  45.6337786  21.3757418  26.3105607  35.2691245
  22.2882556  26.0323501  35.1906013  20.8880233  25.4976153  35.4013252
  84.4654751  17.7645230  48.1144619  84.8584461  17.0416033  48.6035347
  84.0462875  17.3453534  47.3629236   3.7041758  19.3177748  34.2925239
   3.1160544  18.5924268  34.5028067   4.1185283  19.5396280  35.1263857
  42.6520967  60.5824041  23.2949781  42.7627707  59.6601582  23.0638099
  42.6282501  60.5882835  24.2518640  15.9787749  37.3502469  57.8360128
  15.8232020  38.2226110  57.4740601  15.4347705  37.3169088  58.6228895
  71.1989403   3.6126089  41.4934015  70.6373215   4.0497908  42.1334743
  71.3648510   4.2784303  40.8260298  84.3390656   0.0160528  23.8015985
  84.5719242   0.5529836  23.0441618  85.0891781   0.0951047  24.3909287
  79.4084215  50.0705338  64.8956442  79.4432163  49.1142178  64.8736477
  80.2164364  50.3294802  65.3386831  79.0654802  77.8803682  62.6842260
  78.3355379  77.8099346  62.0690393  79.7786856  77.3981524  62.2658539
  12.1191501  13.7768459  33.6488342  12.3154448  12.9378223  33.2320118
  11.6860293  14.2882836  32.9654050  23.0578708  34.0269494  35.2382112
  22.1301650  34.1857147  35.4125786  23.2380389  33.1823468  35.6510282
  17.8736209  37.7547479  60.6031656  18.0196093  37.0361686  61.2184381
  17.1288298  37.4693584  60.0739574  56.2978506  43.8602066  49.8119259
  56.9671345  43.8013268  49.1301489  56.7572880  44.2264462  50.5675840
  59.7849607  45.9773636  41.8249512  59.8740673  45.6243753  42.7102184
  60.0885534  46.8823385  41.8962669  72.0411110  54.4956827  49.7442245
  72.9245234  54.6326637  50.0863504  72.0626926  53.6144018  49.3712473
  74.0120363  32.1152377  37.9741073  73.3541536  31.6606545  38.5002017
  74.2423677  31.4904428  37.2864938  76.9479322  47.5119543  60.5329275
  76.0621595  47.2117996  60.7367373  77.1840906  48.0778980  61.2678909
  27.2819050  63.6170866  11.5437546  28.1094655  63.5033252  12.0111122
  27.3247250  62.9873970  10.8241120  45.2801648  68.9319617  38.0794287
  45.5136099  69.8519296  38.2034993  45.0391522  68.6259932  38.9538026
  28.8571166  17.7685773  52.1244621  28.4027003  18.6110389  52.1248245
  28.2378196  17.1622324  52.5307274   4.3352126  46.0040808  24.9633503
   3.8673686  45.4414654  25.5804491   4.9487590  46.4979792  25.5072808
  71.9340086  52.6508427  35.2118540  71.3226318  52.7481413  35.9419107
  71.4905262  52.0576429  34.6054959  63.4358311   8.7104946  18.8726234
  64.0776110   9.4143414  18.7780154  63.9217043   7.9133296  18.6612260
  68.6265469  73.3362770  11.7368078  68.1345701  73.8506937  12.3767805
  68.5860395  73.8530016  10.9320807  81.1626530  37.9595470  15.9454405
  80.2322388  37.7746248  15.8175743  81.2342739  38.9087224  15.8445907
   3.5907744  28.8205957  52.8202724   3.9693354  28.7264419  53.6943722
   3.0994986  29.6411848  52.8591490  52.9117861  62.3298187  22.8004408
  53.6045161  62.9374141  23.0596447  52.1065703  62.7310688  23.1273460
  45.4597035  72.3489631  56.2225866  44.6489849  72.6919211  56.5985441
  46.0638991  73.0912031  56.2385941  16.9220256  26.6947985  20.0778222
  16.3238047  27.0718503  19.4326854  16.3541983  26.4130497  20.7950521
  15.3487014  11.8578744  39.3600655  14.7147368  12.4888408  39.7009349
  15.2784251  11.1060870  39.9483752   3.9504527  34.5589972  53.6161995
   3.3777617  34.5551515  54.3831730   3.9055537  33.6641836  53.2792711
  67.5104094  45.7472372  36.9749284  67.3352575  45.7719517  36.0342145
  67.9824924  44.9254417  37.1091509  70.9427643  27.0821810  37.1733618
  70.0708628  26.7825055  36.9160295  71.4583063  27.0387912  36.3680291
  40.4532566  66.1696667  37.1229053  40.5563631  66.1788530  38.0744910
  40.1582089  65.2813954  36.9225264  45.8147564  80.4110335   1.4784397
  45.4892292  79.6899527   0.9396404  45.3320113  81.1777034   1.1695658
  67.4019814   8.5754383  25.6499791  67.0421934   8.2389808  26.4706993
  68.1504107   9.1088802  25.9174228  14.1364478   4.0376568  61.8953228
  14.5213603   4.6622312  62.5101280  14.5205401   4.2668971  61.0490656
  72.8062868   5.3038043  23.1120968  72.4307346   5.3204191  22.2318029
  72.0940542   4.9921283  23.6705041  57.7398443  50.5847025  36.4976621
  58.6717653  50.4161453  36.3585830  57.3325443  50.3892708  35.6537747
  68.8613367  29.2861366  54.9669170  69.7744656  29.5451212  55.0908184
  68.4790611  29.3294215  55.8434010  24.4002295  16.6828418  27.3467374
  24.7258091  15.7830620  27.3717499  24.8910522  17.1343279  28.0333853
  76.2751055  22.4274087  57.1253729  77.2081804  22.6400495  57.1450090
  76.1747456  21.7298245  57.7730894  75.2421951  23.6193800  33.5902429
  75.4632425  23.2734871  32.7255297  76.0784483  23.6558628  34.0545511
  48.4566211  34.6683478   7.1288985  47.7236747  34.2960262   7.6192027
  48.0521964  35.0624394   6.3560045   4.1757583  10.2015007  32.2419834
   3.5604953  10.0508404  31.5243554   4.3443869  11.1434531  32.2191238
  19.7827147  16.0688508   9.4640654  19.4215201  15.2003908   9.2864543
  20.6896685  16.0173273   9.1623759  46.3250494  14.7386634  47.6168537
  46.3621759  15.3894222  48.3178282  45.4300117  14.7974145  47.2826576
  79.5330620  36.7754316  50.1560831  79.3763685  36.0656476  49.5332766
  79.9797201  37.4493933  49.6437359   5.4614543   3.0466288  11.1890745
   5.8264922   3.9286828  11.1186683   4.6196269   3.0989820  10.7365108
  44.6009939   4.4589253   1.6288605  45.3229206   3.8304062   1.6245213
  43.9757031   4.1011257   2.2591152  18.2653712  48.4392166  57.8523827
  17.6815986  48.2387400  57.1207714  17.6801108  48.5558414  58.6007786
  26.6956233  40.0062180  44.1587257  25.9153651  39.4517922  44.1651726
  26.9334411  40.0957727  45.0815773  74.6569681  27.9381680  49.5724154
  75.1077366  27.8375387  48.7340164  73.8472795  27.4379063  49.4705820
  13.6714171  70.6377888  36.3080382  12.9010676  70.9779692  36.7630935
  14.0139579  71.3884926  35.8229160  23.3755111  14.3878770  36.2702417
  24.3096827  14.5791388  36.3537335  23.0120086  14.5881367  37.1327901
  22.1670340  20.6998587  43.2885408  21.9887351  20.0998998  44.0127563
  21.5297412  21.4053822  43.3995533  77.0603704  54.2318249  31.1371350
  77.5243378  54.5257187  31.9210958  76.6561317  55.0254393  30.7864213
  52.6731396  42.0011187  31.7227316  52.2915030  41.1398411  31.5530872
  52.3794079  42.2234440  32.6062059   1.0956859  59.6273136   5.4526895
   1.4538573  59.2563105   4.6462756   0.1990031  59.2946482   5.4917723
  42.9162796  59.6204832  14.1076031  43.6566170  59.8322632  14.6761837
  42.6026734  60.4696372  13.7964382  69.9352121  70.6742907  28.9683652
  69.2774677  70.0440121  28.6745167  69.8738813  71.3945627  28.3409262
   0.4118537  27.0862126  42.6597643   0.2667807  27.1740699  43.6018229
   1.3634585  27.0403385  42.5672245  75.9379435  39.5610547  18.9358425
  75.4302168  39.5266557  18.1251252  76.5037680  40.3260708  18.8318121
   2.3700713  52.0627975  40.7964230   1.7370986  52.2317505  41.4943075
   3.1727504  51.8158436  41.2557125  84.5313454  37.6958895  55.4158354
  85.1952076  37.1874499  55.8816862  84.0899277  37.0573354  54.8558140
  39.5916343  51.1409664  21.2755156  40.3717375  50.6567049  21.0050344
  39.1858244  51.4192533  20.4544759   2.4951648  57.0165348  38.8844061
   3.3217906  56.5398598  38.9599514   2.6592349  57.8514862  39.3227768
  80.2863312  73.7873602  36.3658404  79.6031666  73.7152576  35.6992698
  80.5459309  74.7084284  36.3440871   2.1375941  70.7691717  49.3145227
   1.9890403  69.8330975  49.4484043   2.4009704  70.8410740  48.3970833
  60.5665129   2.4377461  12.4877491  61.3988703   2.6387377  12.0599499
  60.0866716   3.2659407  12.4791565  48.1675737  12.6787968   6.6985741
  48.6191195  12.2157021   5.9929648  47.3321455  12.9446621   6.3143769
  63.3046436  32.1777058  58.3862638  63.8135815  31.3671303  58.3727312
  62.5088835  31.9690776  57.8969097  82.6760101  35.3087783  45.1925278
  82.3667622  34.5490193  45.6858492  82.9723072  34.9474883  44.3571186
   5.8784388  61.7040968  33.2437849   6.8180941  61.8441439  33.1268692
   5.4835318  62.5539398  33.0487275  78.2473326  15.4009807  61.5588665
  77.7031183  15.7692313  60.8628416  78.1535244  16.0155082  62.2867346
  74.9145460  63.4544325  43.0448151  74.5427418  63.1485176  42.2175264
  75.3560591  64.2735958  42.8206015  65.7274818  12.6405060  41.1923170
  66.1255264  13.3872569  41.6396999  66.2589121  12.5218654  40.4050779
  70.5970097  50.4802895  32.1004677  71.4330101  50.4960346  31.6345477
  70.6244326  49.6732569  32.6144552  21.3565444  45.0515366  17.2381485
  22.0366954  44.5851660  16.7522192  21.7274665  45.1734877  18.1120896
  74.9418688  66.3215208  33.8108397  75.5086803  66.6986752  33.1380033
  74.9693727  66.9536591  34.5290875  65.4547977  19.6767259  17.0775783
  65.5086327  19.6890342  18.0331838  66.2095928  20.1895380  16.7885399
  15.4460524  21.4321351  55.5057907  15.0927352  21.7107129  56.3506556
  14.9059485  21.8860698  54.8588991  39.8952168   6.4734144  25.4089108
  40.0799053   5.7470246  24.8135224  39.0342777   6.7921944  25.1379910
  36.6934204  65.9233427  49.1437340  37.2681189  66.5212393  48.6657476
  36.8349338  66.1405087  50.0651693  38.4573727  67.4779443  66.7412073
  38.6307412  66.7122488  66.1935842  39.3252545  67.7957039  66.9903002
  25.3084468  60.1878643  56.5217304  24.8218440  59.4698381  56.1168957
  25.8317088  60.5544281  55.8089447  71.8590060   1.7013619  65.9836165
  71.9666853   0.9625742  65.3845945  70.9421816   1.9581006  65.8848977
  39.0620995  26.5046144   3.5273218  38.8515997  27.2469068   4.0938231
  38.2114720  26.1338711   3.2923388  36.0774516  10.9749210  45.5499268
  36.8230628  10.5648243  45.9882307  35.9124946  11.7721331  46.0533905
  81.9407654  46.0479069  44.6467018  82.5724983  45.3694487  44.8851252
  81.5533066  45.7374620  43.8283348  73.1984312  35.9759973  55.4561898
  73.2461817  36.7651056  54.9165056  72.4331695  35.5056159  55.1255057
  14.8832351  33.5329382  66.9188673  15.4822331  33.2717399  67.6183036
  14.0310126  33.1957512  67.1950090  79.8647118  58.9671612  37.9244304
  80.4818630  58.7874269  37.2151732  79.1706991  58.3182573  37.8082204
  72.3651218   8.6693352  45.5491400  71.6809988   8.0985963  45.8990812
  73.1045914   8.5500717  46.1451244  83.1450367  30.8974576  16.0351336
  82.6131725  30.2418756  16.4863169  84.0479469  30.6154156  16.1815524
  76.5778112  26.4724588  33.5426593  76.7833424  25.5881357  33.8459086
  77.2383308  27.0274234  33.9573455  54.1920328   7.1110219  12.2082579
  53.7383318   6.5928680  11.5434980  54.4329214   6.4765483  12.8832734
   7.9846459  58.0506484  53.5675714   8.6146193  58.6065786  54.0261647
   8.5088664  57.3265950  53.2252631  70.6966543  14.6695352  38.8536906
  70.0569344  15.2701914  39.2360544  70.3418970  13.7980711  39.0295506
   1.7334872  66.2392311  61.3864574   1.4745789  66.7179661  62.1738658
   1.9903260  65.3741603  61.7057023  57.7216235  62.2434158   4.9828151
  58.1753626  62.6183850   4.2279977  58.0732050  62.7201445   5.7347137
  15.2599238  54.5594978  53.9889193  15.3308486  53.6588955  53.6725044
  14.9759387  54.4720125  54.8988247   0.3194522   9.3235618  26.4013004
   1.2425612   9.5751315  26.4299512  -0.0534154   9.8600912  25.7017708
  72.6232719  10.1323032  11.6648400  72.6734638   9.9104255  10.7350636
  72.3345041   9.3241006  12.0886934  52.4450874  50.0633574  30.1154351
  52.9480934  50.8219528  30.4116631  52.2785616  50.2335882  29.1883302
  56.6173163  77.2732506  67.6082897  56.2409964  76.4037425  67.7445650
  56.0897341  77.6553274  66.9069242  47.5631228  46.9760973  31.5278101
  46.7582121  46.7731244  31.0512042  47.6452532  47.9276879  31.4648747
  42.7116719   2.0145056  63.4706572  42.4412718   2.3100255  64.3400166
  43.6296168   2.2772715  63.4031359  77.8496552   8.0824554  36.3408422
  78.6152124   8.2148671  35.7817173  77.1071768   8.0932438  35.7368231
   3.8707255  28.9157987  13.9250433   3.0487822  28.4598970  13.7439752
   4.2846965  29.0129328  13.0674720   2.1827124   7.5647146  46.7011642
   2.8341674   6.8653041  46.6496038   2.5626944   8.2836598  46.1962271
  68.4751272  12.8217769  36.7578745  69.1546965  12.3887837  36.2412143
  68.4346676  12.3178720  37.5706935  80.1000023  26.4576936  13.7851310
  79.3582058  25.8558893  13.8467717  79.8710299  27.0472980  13.0666816
  47.9097825  27.8197496  65.2403993  47.0701962  27.4777214  65.5475623
  47.6795655  28.5941832  64.7270927   3.0161189   4.1100228  42.8822756
   2.1547126   4.1565657  43.2970762   3.2865046   5.0234473  42.7885866
  79.5812828  35.5985247  35.5570731  79.4448645  36.3025154  36.1911211
  79.8852045  34.8584573  36.0825858   6.4828299  19.3978345  48.2503939
   6.9121741  18.5902452  48.5326958   6.7355346  19.4951355  47.3322964
  40.6954947  80.0084252  24.2060161  41.1529246  79.2329437  23.8810277
  41.0533181  80.7311909  23.6904526  16.8439236  59.6186788   3.8363618
  16.2279072  60.2425272   3.4522137  16.3083973  58.8551743   4.0520096
  62.1898508   8.9422107  10.5682361  62.4451494   8.8609910  11.4871800
  61.4626217   9.5645547  10.5757964  47.3125505  23.3228636   3.6549303
  47.7741861  24.0939832   3.3255386  47.6277065  22.6032734   3.1080297
  83.3890152   2.3423377  52.6323271  82.7530193   2.9522061  53.0062199
  82.8671265   1.5853819  52.3660946  70.5451536  41.6295338  51.4465141
  71.0427284  41.2488699  50.7228088  70.7682323  42.5601768  51.4271641
  58.1240445  41.2672973  67.7648551  57.2696095  40.9054982  67.9999772
  58.2253438  42.0309569  68.3330048  72.9589367  28.6945367  38.4172010
  72.4448013  29.2384529  37.8205013  72.4424362  27.8949213  38.5175681
   8.7747231  69.1406555   8.9717466   9.4852915  69.6566922   8.5909194
   9.0559473  68.2317323   8.8668501  46.2653142  42.4172209  66.3413740
  45.7509213  41.6281824  66.1709398  46.4867001  42.3626462  67.2710205
  61.4141369  32.8692651  26.1972618  61.9628286  32.5258136  25.4921293
  60.5209875  32.6435137  25.9373569  62.2684288  62.3337507  57.0593214
  61.3590717  62.4187994  56.7728472  62.2097397  62.1940899  58.0044556
  60.6509209  11.0286248  11.7128205  61.2713623  11.0166836  12.4416149
  60.8706284  11.8218493  11.2241971  64.0420294  39.4956398  30.2660751
  63.7074614  39.0063906  29.5144582  63.3796597  39.3725801  30.9460425
  82.9480934  18.1626880  18.2211125  83.5688305  17.9892278  17.5134182
  82.1125126  17.8297055  17.8937733  75.7586622  15.5973041  27.7544355
  75.9011936  14.7088087  27.4281049  74.8271847  15.6256294  27.9730225
  81.5784359  35.5942559  10.0473559  80.7172966  35.1777935  10.0121152
  81.5544987  36.1269689  10.8422637  13.8636302   7.3228562  34.8188090
  14.4729232   7.5020039  35.5349755  13.2125090   8.0220026  34.8777485
  83.0044546  75.8648009  34.2485380  83.3621493  75.3206904  34.9501300
  82.4079218  75.2843935  33.7757659  71.2751436  70.4490376  39.7237539
  71.1338663  69.5939970  39.3173313  71.5287828  71.0199738  38.9985394
  37.3167935  77.1336229  26.5825796  36.7055216  77.8609026  26.6993833
  38.1112662  77.4130751  27.0375037  64.8213291  22.3250866  28.8621402
  64.9235630  21.4138293  28.5875607  64.8711348  22.2943783  29.8175502
  79.7864962  19.4539726  38.0488229  79.5213604  20.0390935  38.7584496
  80.7426643  19.4430530  38.0920029  23.7802227  48.5475942   9.3925371
  23.4960278  49.3842175   9.7606793  23.3271988  48.4898444   8.5513058
  25.6263238  54.6018426  67.8149097  25.0120717  55.2103667  68.2255492
  26.0888749  55.1306789  67.1648220  83.1188011  18.5909128   4.4816941
  82.5197124  18.5145509   5.2243179  82.9961109  17.7785850   3.9904678
  17.1987151  21.7521715   2.7172458  16.7409324  22.4299693   2.2199911
  18.1000804  21.7878318   2.3970976   1.8051051  36.2088108  26.4797163
   1.3462542  37.0218921  26.6908598   2.7272128  36.4605021  26.4285803
  14.4054889  16.4139879  35.7771015  15.0837993  15.7386291  35.7731986
  14.8781489  17.2291577  35.6088185  52.0098963  77.1810541  35.3271437
  52.0331850  76.4768327  34.6792531  52.5382986  77.8794760  34.9408484
   2.3106383  19.5808244  57.8969097   2.5464724  19.2368507  57.0353460
   2.1859835  18.8023174  58.4396982  71.0910979   1.6698048  68.7838784
  70.7956496   0.7967207  69.0420831  70.9104529   1.7158625  67.8450087
  30.4342460  39.4328284  37.8639460  31.3068866  39.0417457  37.9062176
  29.8540019  38.7014818  37.6525664   8.2492923  36.3104868  24.0975451
   9.0625857  35.8062339  24.0747881   7.6692103  35.8571553  23.4858084
   7.9084872  43.3282757  38.9846563   7.3614787  44.0853405  38.7751937
   8.7957381  43.6022568  38.7524033  69.0857506   9.8034233  36.8791032
  68.2539892   9.3803728  37.0922565  69.2503262  10.3926814  37.6152563
  56.1540508  70.9484434  13.1238163  56.4776897  70.0691175  13.3194602
  56.2638474  71.0389757  12.1772540   5.9688281  22.8299475   4.2797619
   6.9152163  22.8480458   4.4220918   5.5991458  23.2040572   5.0795174
   1.6976338  78.0650048  67.6428210   2.1703082  77.5568108  68.3020263
   1.4884883  77.4313740  66.9565261  57.7016735  25.8795810  37.1093369
  57.4275255  25.8693266  36.1922932  57.2452068  25.1365948  37.5041056
  48.2553681  80.1080873   6.4141312  47.4602040  80.1349952   6.9463101
  47.9911526  80.4740503   5.5700388  82.0095621  61.7268851   5.1537457
  81.7692552  62.2552302   4.3926039  81.2356959  61.1909082   5.3272286
  33.0779794  57.2643890  14.4576111  33.9423809  56.9418147  14.2026844
  32.5372359  57.1428397  13.6771908   8.3199352  39.5594740  41.4114380
   8.4755200  40.3018427  41.9953203   7.8474134  38.9254355  41.9508362
   7.3687515  78.4754326  22.9705277   7.0342693  79.2875411  23.3511009
   8.3168659  78.5268834  23.0916062  42.6829681  69.8796990   2.2261563
  42.1095941  70.3717926   1.6385164  43.4944615  70.3868272   2.2491732
  14.1403508  46.9254971  62.7114677  13.8777471  46.2344265  62.1034431
  13.3370280  47.4202204  62.8731871  38.9990470  76.9318297   8.7316838
  39.8529563  77.2211745   8.4102049  39.1565904  76.6879466   9.6437874
  25.2313423  59.5650768  60.4396629  24.9208188  60.2538729  59.8519850
  24.5118594  59.4349670  61.0574436  38.2332158  44.3292713  58.5029221
  38.6447763  44.7041988  57.7242804  37.4307632  43.9217520  58.1769848
  56.8104133  79.9148109  29.0285149  57.1835074  80.6869533  29.4537583
  56.1637888  79.5863225  29.6531811  47.6631880   6.5927334   4.4818011
  47.4993700   6.7932864   5.4033079  46.8211550   6.7403527   4.0511933
  41.1565110  58.5859253  46.4188233  41.6812095  58.9300718  45.6959858
  40.2535746  58.6381986  46.1054459  75.2552230  12.1320172   9.0106096
  75.3209109  12.9782219   8.5680523  75.2579028  11.4897127   8.3009091
  36.5681330  75.3596880  32.5470581  36.1058834  76.1971333  32.5118294
  36.8189493  75.1862075  31.6397419  32.5587296  74.9172640  46.1397409
  32.8600311  74.0375662  45.9126377  33.3432007  75.4623365  46.0786390
  44.0506846   5.6253357   5.1031771  44.3662280   6.1465664   4.3649521
  43.8164634   6.2712260   5.7696572  73.9154634  49.2705091  24.5642224
  73.2430086  49.8430999  24.9332371  74.6426878  49.8575118  24.3573227
  19.1381702  23.1960814  66.4370728  18.6453471  23.8497775  65.9410572
  19.4106981  22.5536769  65.7818794  11.1537123  57.1101809  67.5424671
  10.3858757  56.5519571  67.4198103  10.9410536  57.9166079  67.0726967
  13.6288309  33.3541751  51.1543274  13.6360848  33.8916326  51.9463634
  12.7926064  32.8895879  51.1877871  32.3055720  44.9921656  51.9056416
  32.1148872  44.0800953  51.6865540  32.3313904  45.4411077  51.0606480
  55.6870327  61.4753082  36.6102638  55.9263215  60.6426170  36.2033310
  55.0913653  61.2329676  37.3192635  31.1807573  64.2682126  14.5745411
  30.7712746  64.9804046  15.0658074  32.0975492  64.5306065  14.4916382
  69.3544704  20.6188078   4.4929304  69.0866203  21.3284750   5.0767603
  68.9216942  20.8158417   3.6621990  71.5055579  18.0872126  26.6329422
  72.0044035  18.2417507  27.4351254  72.1716637  17.9639311  25.9566727
  32.1029964  55.8486226  18.4798088  31.8659231  56.4275887  17.7553597
  32.9558349  56.1691489  18.7733402  82.5653705  55.3312364  24.1755619
  83.1983194  54.7061076  23.8222637  82.7160081  55.3163471  25.1207199
  61.7740926  79.2955806  19.8055592  60.9070215  79.1371539  20.1788082
  61.6157183  79.3987205  18.8672009  13.6025763  22.6435876  53.9178085
  12.9977608  23.3371329  54.1812944  13.1857657  22.2384691  53.1572962
  53.2004548  69.0802240  52.1646738  53.1256510  69.6012688  52.9641390
  54.0268112  69.3614864  51.7719173   0.3289173  45.1474142  69.6579504
  -0.4560682  44.6297646  69.8370266   0.6169260  44.8544645  68.7933922
  60.1469681  18.7697096  16.5510597  60.0011844  18.7622090  17.4970665
  61.0246420  19.1372223  16.4468899  68.6039073   7.7771015  17.1207466
  67.6539630   7.6650687  17.1566143  68.9142150   7.0290060  16.6105595
  31.9325108  43.8350021   7.6407662  32.5754267  43.8988754   6.9344988
  32.4391940  43.5486838   8.4007158   5.5585680  63.2580092  21.1147824
   5.8841285  64.1552522  21.1868706   5.9719810  62.7939942  21.8427983
  17.2239792  17.7518606  61.8058968  17.9163480  17.2971606  62.2855854
  17.1859848  17.3057008  60.9598875  22.4471489  66.7976239  36.7749348
  22.2479412  66.8245890  37.7107849  21.7345330  67.2871926  36.3641682
  29.5635748  31.7700672  48.3277559  29.5939636  31.0983276  49.0089893
  29.1303205  31.3425636  47.5889969  82.2068797  34.9071741  39.0805149
  83.0396901  35.3193545  39.3102241  81.6532273  35.6317711  38.7895489
  43.0050442  76.9606688  17.8752175  42.4129567  76.9206026  18.6262551
  43.0940005  76.0508039  17.5915470  51.1387643  58.7172761  43.6007729
  51.1592707  59.6580281  43.4252873  51.2139997  58.3108833  42.7374020
   1.2045162   5.5384465  18.7931767   1.5546291   6.4249678  18.8811150
   1.2737482   5.3452368  17.8582421  17.8036425  63.6145451  22.7163925
  17.8208372  64.1358902  23.5189762  18.3576700  62.8583839  22.9100647
  19.7883003  21.2232418  50.7899037  19.2837065  21.9712277  51.1094895
  20.0892370  21.4907856  49.9215164  51.6133953  34.8374815   9.3481102
  51.9735256  35.0274391  10.2143994  52.2467608  34.2394705   8.9512959
  19.6113944  42.3411369  65.9209347  19.5926774  43.2903910  65.7992697
  19.6011281  42.2211313  66.8705273  83.6984452  50.0296593  59.5366478
  83.5703076  50.9771729  59.4915915  82.8465981  49.6613503  59.3022585
  14.4415891  13.7907755  69.0093279  15.3443658  14.0803158  69.1412067
  13.9092839  14.4701016  69.4233274  29.6700256  20.3020163  15.6143036
  28.8655584  20.0492497  16.0672703  29.3710917  20.8152790  14.8636856
   9.4616765  56.7334461  49.3189859  10.3766656  56.9731092  49.4659138
   8.9648068  57.3316050  49.8771524  60.3300646  26.9830103   1.8571272
  60.2619929  27.3995276   0.9979906  60.2962223  26.0445566   1.6716900
  47.3135349  61.0028555  18.1000462  46.9244370  61.4619973  17.3557224
  48.1456790  61.4515569  18.2498398  10.8996308  68.2320499  64.7141886
   9.9772799  67.9885006  64.6355581  11.0477912  68.8448191  63.9939165
  28.5953441  72.5231340  22.8704109  29.2025062  72.5991108  23.6064854
  28.3388413  73.4249117  22.6774445  19.2402983  30.6535316  53.4905672
  18.5733891  30.1831269  52.9903841  20.0039864  30.0767207  53.4731436
  12.7457535  42.0238495  61.4066505  12.2589195  41.7011642  60.6482983
  12.2048938  42.7328730  61.7544842  35.4184357  68.8543704  18.6783447
  36.2317178  68.7282279  19.1671028  35.6503114  69.4689038  17.9820576
   3.3598130   3.3706541  14.5476284   3.6192148   2.6560040  13.9660683
   4.1847032   3.7855025  14.7999993  31.8684429  78.2597568  46.9578972
  31.9539100  79.2124131  46.9207993  32.1852851  77.9575255  46.1067238
   5.2343267  13.5236664  14.4841519   5.3710645  13.8991757  15.3539410
   4.3636101  13.1284972  14.5280590  36.7738006  78.3160236  40.6037083
  36.1692032  77.6021411  40.4010525  37.6259884  78.0009487  40.3024903
  53.1552133  62.9611590  29.7599831  52.7872786  62.4596598  30.4875508
  54.0931425  62.7722743  29.7889939  64.4241485  73.7790301  28.8095513
  63.7327394  73.2156327  29.1570702  64.1828427  73.9171293  27.8936234
  51.2521109  64.9402502  16.6921749  52.1442113  65.2849152  16.6522541
  51.2315974  64.2512515  16.0280266  81.7717928   8.8272066  21.2592926
  81.8834967   8.0167361  20.7624092  82.3304552   8.7155075  22.0284786
  73.2491929  15.4457016   3.6810961  73.6240250  14.9677201   2.9413214
  73.8038296  15.2095289   4.4246235  20.7593778   1.0330336  63.6135912
  20.4943016   0.1162284  63.6873341  20.6061486   1.2535041  62.6948166
   1.4013498  12.8955097  18.7569370   1.3403886  13.4923334  19.5027962
   1.5104883  12.0300455  19.1510048  42.9452705  53.0416822  63.8916111
  42.9213285  52.1249104  64.1658068  42.0346069  53.2545233  63.6875963
  58.1130831  28.8701744   8.0430641  57.2401134  28.6514254   7.7170220
  57.9711383  29.6162100   8.6257401  64.6324572  68.5602548   5.3280869
  64.9171743  69.0123155   4.5338526  65.2262387  68.8759139   6.0092678
  24.2451787  36.6821575  67.6163435  24.5654559  36.1774254  68.3639431
  23.7457681  37.3989367  68.0075598  57.8719581  10.1020880  12.1855583
  57.8165882   9.3938322  11.5440407  58.7462754  10.4709835  12.0601883
  54.9665165  42.5806379  68.3639050  54.6272469  41.8140554  67.9018641
  55.0179338  42.3052740  69.2791986  77.3864384  65.0121307  68.3011246
  77.9735829  64.2614174  68.2120991  77.7692408  65.6838465  67.7367735
  54.2157346  29.7206755   6.2276640  53.7620306  30.0998278   6.9804087
  54.5154433  28.8650341   6.5347233   1.1124270  41.8070793  50.0673485
   0.8582537  41.2666130  50.8153629   0.3061048  41.9112778  49.5621586
  83.0850279  57.3284149  43.5017920  82.8767664  57.8616858  44.2689180
  83.9460526  57.6384449  43.2211685  51.6757089  19.5409317   6.1199751
  51.0615468  19.3246527   5.4183617  52.3951644  18.9194889   6.0085240
  24.6526039  80.7355382  21.9005432  23.7018696  80.7626560  22.0082512
  24.8459006  79.8177793  21.7092743  80.5602307  15.7361479   8.8147249
  80.0966090  15.4118176   9.5867958  81.4677304  15.4622908   8.9476862
  79.8973078  29.9649687  28.0301514  79.9130124  29.0361614  27.7992668
  80.7495684  30.1255150  28.4352436  22.3330515  14.1141291  22.0029583
  23.2871168  14.1308184  21.9274178  22.1685904  14.0305920  22.9422226
   4.4881743  15.4043694   2.7934971   4.8223775  16.2917538   2.6627627
   3.5386985  15.4910965   2.7086201  27.2761059  55.7643461  54.1826916
  27.5014567  55.9072161  53.2634354  28.0796266  55.9690809  54.6608877
  70.5305299  68.9828756   9.9722471  70.0822410  69.5395377  10.6089535
  71.3140068  69.4772961   9.7315302  69.7697426  41.8875742  57.2818422
  69.7054244  42.1772242  56.3717890  69.9607803  42.6858187  57.7743244
  71.8964690  15.0682040   6.7398539  71.1396987  15.6540032   6.7590418
  71.5386910  14.2075081   6.9576397  50.4720742   4.8177929   1.0714808
  50.8838153   5.6794853   1.1362257  49.7801662   4.9313088   0.4198590
   0.9777786  36.4065742  56.9501019   0.9955613  36.3249588  57.9036522
   1.8043590  36.8367195  56.7310762  74.5428664  11.5797825  13.1650582
  73.9463324  11.3657732  13.8823929  74.1356200  11.1911841  12.3908653
  68.5008440  50.7424595   6.8124094  69.0465841  51.0677519   7.5283613
  67.6231870  50.6804385   7.1893730   6.3527021  65.9959128  19.2367115
   6.5599165  66.8368080  18.8290444   5.9588799  65.4794433  18.5335770
  68.6614138  10.9816141  13.4367409  69.1240246  11.1263390  12.6113453
  67.8276140  10.5888958  13.1783238  17.8209913  63.0918598  55.8392620
  17.8887403  62.1392012  55.9031963  16.9784939  63.2997084  56.2432766
  38.4060189  30.5092379  26.5156975  37.8399012  29.8844113  26.9688359
  39.2278883  30.0364103  26.3845577  58.2082561  32.2858687  15.6123581
  57.5522697  32.6911850  16.1794892  58.5499402  33.0090304  15.0865021
  84.8951703  79.8193121  58.4867430  85.4124243  80.6244087  58.5091257
  84.3257460  79.9215937  57.7241611  46.5611362  55.2732706  69.1823530
  46.2021446  56.0282564  69.6485615  46.6674423  54.6032000  69.8575830
  42.0975155  13.8654347  19.1841641  41.2782985  14.2707653  18.8998642
  42.0530588  12.9716654  18.8444081  32.9800114  76.8154695  16.2007656
  33.5612199  77.5759175  16.1886444  32.4056128  76.9649627  16.9517269
  75.4936690  52.5162716  44.8081627  75.8716614  52.5579949  45.6865730
  75.4516227  53.4286995  44.5219269  27.4459362  62.1490526  61.7772675
  26.7629790  61.4791727  61.7446899  27.5750542  62.3142338  62.7112246
  10.4125445  26.2120409  21.3058510   9.9207252  26.5711756  22.0443382
   9.9633997  25.3936692  21.0942688  64.6162707  20.6630917  44.7987499
  63.9389223  21.2172241  45.1865235  65.4404974  21.0700579  45.0656929
  85.4225549  56.6676559  46.6480389  85.3298196  57.6071110  46.8063393
  84.8402891  56.2583032  47.2880688   3.4608620  26.7082281   2.2186651
   3.8177722  25.9306355   2.6478377   3.1057613  27.2351761   2.9345265
  60.2912674  25.9354754   6.7470398  61.1176473  25.7822962   7.2051516
  60.2986527  26.8713398   6.5461960  27.0988529  19.5244236  22.0561352
  27.9176872  19.4615574  21.5644112  27.2993725  20.1171227  22.7805176
  54.5185933  69.7962191   0.9158459  54.4173035  68.8444569   0.9268036
  53.9036855  70.0948265   0.2458039  14.5240181   6.2125988  24.1357365
  14.9546497   6.0428543  23.2979050  14.3054026   5.3438731  24.4730129
  59.6503125  62.9270771  14.8059311  60.2574836  62.4277976  14.2597714
  59.0007935  63.2686522  14.1913738  41.5523753  64.0043166   0.5463257
  41.4348731  64.8486307   0.1109448  40.6809709  63.6082795   0.5400648
  84.5746167  72.0044756  69.7851086  84.3627634  71.2962675  69.1770077
  84.6476228  72.7818251  69.2313671  42.9708189   4.3211909  18.7653771
  43.5639137   4.4726010  19.5012799  43.5410935   4.3092032  17.9966965
  29.5869259  73.9128497  31.7678585  29.5196736  74.8658063  31.8277397
  28.8703168  73.5874608  32.3126736  18.1363886   3.7593050  17.2630730
  17.8349512   2.9462405  17.6683941  18.0724161   4.4123907  17.9599419
  65.3392190  23.4091730  34.0228119  65.9225381  24.0219422  33.5750618
  64.7372991  23.9675684  34.5148697  68.3765048  47.0670433  48.2899704
  68.9619059  46.4820309  47.8090325  68.9573950  47.7220078  48.6770287
  38.4994588  55.0171187  21.3889637  38.5158834  54.2642822  20.7980290
  38.0089811  55.6859829  20.9111634  48.2739172  71.0081794   0.4786244
  48.2415948  71.9154026   0.1750889  49.1622696  70.9008529   0.8185473
   7.6754516  27.5154801  52.7089157   8.0397099  27.8699131  51.8977871
   7.5492995  26.5840502  52.5279083  44.2347977  24.3847888  68.0468225
  44.2182800  24.7080939  68.9476204  43.3163509  24.2172377  67.8356075
  51.3433084  78.8585570  23.0383625  51.2330780  79.0189292  22.1011582
  50.7364759  78.1440999  23.2321015  46.8770251  69.3059447  13.7487545
  46.7050478  69.1142919  12.8268376  47.3104760  70.1593282  13.7391701
  63.5135032  60.0745726  49.7884607  64.0367342  59.5374537  49.1935110
  63.9132405  59.9391747  50.6475925  17.4500007   5.2067299  28.6934223
  17.6948423   5.0626536  27.7793541  18.2234830   4.9446984  29.1927185
  37.1784672  72.8956082   9.9530068  37.9316768  73.4851220   9.9158278
  36.5452466  73.2774284   9.3451586   8.9899366  32.4897070   1.8206301
   9.2928713  32.9730006   1.0519352   8.0446570  32.4073429   1.6945687
  32.7782917  68.1143332  60.7041264  32.4698472  68.3870745  59.8400068
  33.3802915  67.3916578  60.5264568  29.2281461  46.8324423  66.6739416
  28.9711142  45.9801245  66.3222075  30.0623775  47.0262575  66.2464762
  70.1883460  45.1895809  58.2867384  70.4087974  45.7067490  57.5120354
  70.5396224  45.6948328  59.0199232  20.9631619  67.5292876  27.1733799
  21.6226337  67.4731948  27.8648892  21.3073310  68.1849077  26.5667954
  65.3645310  51.6264846  10.9088268  64.5867738  51.7916121  11.4417973
  65.0476775  51.6591277  10.0061789  59.6532903   0.2516384   2.6002445
  59.9503887   1.1571331   2.6899471  60.0333596  -0.0443058   1.7730847
  31.6927862  27.2171824  64.7989130  31.9467584  28.1338160  64.6916294
  31.1962462  27.2004073  65.6170845  83.2244200  13.2974549   0.8557692
  83.1739730  13.5371514  -0.0695572  82.3474926  12.9782124   1.0686436
  45.3164956  73.0974987  39.2769661  44.4962153  72.6055553  39.2400398
  45.9377596  72.5648882  38.7803879  67.6476798   3.4547656  64.2192173
  67.8618321   2.5365012  64.3840408  66.7064080   3.5142463  64.3826151
  29.7960119   2.7392810  51.4757538  28.9137544   3.0513995  51.6768360
  30.0403890   3.2091849  50.6784487  57.2181279  29.2934151  17.8074017
  57.2233939  28.3617039  18.0267563  57.9892371  29.4133349  17.2531071
  74.7927767  27.4961062  40.2446022  74.5027811  28.0679627  39.5338955
  75.4515237  28.0099125  40.7118168  33.6570137  17.7035733  30.1476898
  33.0578058  18.4498139  30.1653328  33.0884903  16.9426508  30.0293389
  25.6561542  43.9882517  53.1672192  25.5082321  44.9336481  53.1912184
  26.4676809  43.8853407  52.6701593  75.2378291   6.9370528  31.7617169
  74.5223004   6.3714094  31.4713803  75.8058840   7.0170899  30.9954682
  20.8144096  71.2302496   8.6752072  21.4041069  71.7479017   9.2234078
  21.3672641  70.9145167   7.9604378  17.2908807  30.3505993  39.4035101
  16.5256047  30.6869531  38.9371943  16.9293988  29.9224186  40.1795387
  12.3090494  66.6742420  66.8685102  11.6045654  66.6280365  67.5148869
  11.8623447  66.8437290  66.0390759  66.9385824  70.7798078  31.2656059
  66.7832694  71.0647538  30.3650990  66.1752591  70.2445128  31.4824715
  69.8330459  66.9427755  18.1373444  69.1278944  67.0012977  18.7819901
  70.4573450  67.6178601  18.4033146  60.5123020  12.5586100   1.8953552
  60.5732349  12.3107214   2.8178873  59.6139157  12.3402090   1.6474953
  61.7411360  60.4569461   1.1869564  62.0972643  60.2670970   2.0549240
  62.2301468  59.8835626   0.5967608  12.5699243  11.3636630  57.3037100
  12.6042745  10.4698794  56.9628143  11.7213282  11.4200251  57.7429581
  31.7818642  52.5466776  43.1970119  32.0843410  52.7527618  44.0814686
  32.5800800  52.3295307  42.7154160  26.0306306  80.4639175   8.8201132
  26.6165900  80.8740976   8.1840029  26.4994972  79.6803334   9.1071501
  63.0192966  18.4751530  26.2351170  62.8958744  17.5386591  26.3899842
  62.4343265  18.6762591  25.5046406  33.5376045  50.0263532   5.1089182
  33.5608551  49.4448569   5.8688870  33.6772588  50.9008851   5.4721298
  62.3865825  22.5380726   2.3505106  63.1054467  23.0649348   2.6996317
  62.7040762  21.6364594   2.4007263  42.9832539  64.3638518   9.3529310
  43.0340025  63.5307529   8.8843146  43.0520115  65.0286653   8.6677113
  43.2018661  50.1849461  64.0934420  42.5911856  49.4760513  64.2953539
  43.9562798  49.7464085  63.7000275  80.2698440   0.9127159  42.9822006
  79.5167917   0.5365343  42.5265351  81.0284228   0.6030150  42.4873486
  24.9792183  64.2648652   4.8911228  24.2518193  63.6928132   5.1358261
  25.4892048  64.3611982   5.6954041  71.2309701   0.8629151  11.9914189
  70.5750329   1.3812228  11.5252247  72.0475978   1.3481970  11.8737164
  29.4556713  30.9880352  51.2820101  29.1026759  31.7706895  51.7051888
  30.3710365  31.2041354  51.1041355  63.7256945  52.8275986   8.7743988
  64.4089878  53.4962769   8.7274161  63.1035978  53.1656952   9.4185438
  58.0770144  76.1488464  27.3878327  57.3368773  76.7349961  27.2301617
  57.8187332  75.3220274  26.9805279  64.2720020  18.1212731  10.9892121
  64.2303509  19.0770502  10.9577694  63.4936411  17.8637381  11.4832344
  73.3505703  48.5208893  55.8464718  74.1110743  48.0347109  55.5278921
  73.3642508  49.3391609  55.3500080  53.4331498  57.4312737  27.6999893
  54.3199715  57.4107220  27.3403206  52.9720673  58.0762544  27.1636715
  83.6962074   5.1376505  14.1680470  84.0047092   5.9157105  13.7036362
  82.8030152   5.0070830  13.8496247  32.7248001  71.6038084  54.4715118
  33.4731555  72.1921873  54.5715284  32.1210504  72.0790958  53.9007044
  44.4035959  68.4280300  65.2018881  44.4853258  68.9250183  66.0158634
  45.1460505  67.8240156  65.2144766  30.6307238   0.1377459  50.5229130
  30.3037661   0.9654875  50.8752957  31.5830248   0.2342720  50.5291500
  70.3347856   2.8528948   0.1434508  70.8715517   3.5604449   0.5005017
  69.4543249   3.0296011   0.4748049  20.7800835  11.0432406  34.8821678
  20.4095715  11.8370075  34.4963207  20.1447170  10.3576393  34.6760311
   5.5124265  41.4796448  44.1596699   4.9970287  41.7417479  43.3968496
   5.4257423  42.2116613  44.7703028  69.7048253   1.7947836  22.2016468
  68.8448400   2.0545836  21.8712559  70.0857705   2.6047392  22.5408879
   5.6421631  45.2070828   8.4988919   6.2068003  45.2220269   9.2716780
   5.9386986  45.9486027   7.9712143  61.6710964  63.3911629  17.5783100
  61.2428302  62.9930420  16.8204632  60.9525815  63.6115284  18.1710949
  30.8520859  35.2878495  14.7395458  29.9808662  35.6804819  14.7947922
  31.0059755  34.9228211  15.6109276  15.4672015  73.6095905  60.4511595
  14.8561811  73.4696579  61.1745596  15.5903876  72.7401876  60.0701141
  66.4501203  78.5833263  69.5993805  65.9656621  79.1739130  69.0225506
  66.0937763  78.7543058  70.4711676  11.0289853   3.7231798   8.1408015
  11.7017859   3.5063429   8.7862101  10.8718412   2.9025955   7.6737061
  13.6450243  18.7786818  12.8297627  13.4744489  18.2710755  13.6231554
  13.7552202  19.6776128  13.1396210  72.3208580   1.6990607  61.5456867
  72.1434555   1.0089629  60.9065199  71.4545784   1.9928687  61.8275881
  74.0160424  13.6822768  20.1157131  73.5239512  14.3257876  19.6058407
  74.4893975  13.1691237  19.4608536  75.4718835  27.2581930  25.4209748
  74.6167559  27.6848049  25.3662720  75.2695114  26.3326950  25.5578270
  47.7421093  70.9919596  64.9779415  47.1745634  70.7953691  64.2326403
  48.3610725  70.2623749  65.0066566  82.3298306  24.3329878  10.4630604
  81.8163795  25.1261778  10.3099289  81.8406529  23.8568421  11.1340466
  28.4739910   7.0082324  58.8168383  29.0996079   7.5695079  58.3587837
  27.6191249   7.2801059  58.4828854  81.4848060  58.2173176  51.9362679
  82.0294470  59.0042992  51.9526806  81.5101928  57.9274483  51.0243645
  78.4170455  11.4379187  57.9117718  78.1835765  12.3532601  57.7572670
  77.5767059  10.9864445  57.9907360  72.6747717  56.7326069  69.1186905
  73.5508658  56.6334534  68.7460518  72.8180684  56.7551374  70.0648308
  36.7635059  56.8514013  58.3806324  36.9773793  57.7843761  58.3870554
  36.4847946  56.6757488  57.4819088  64.6658533   9.3947239   9.4326058
  63.7615412   9.0810700   9.4247332  64.7147005   9.9655934  10.1993885
   8.4341061  62.8849363  57.3145056   9.1653585  62.3455811  57.6155043
   8.7533563  63.2939386  56.5101242  61.3174755  25.0172920  19.4460716
  62.1200467  24.8757382  19.9481430  61.1348919  25.9517212  19.5447579
  36.6626900   5.4859228  37.0023766  37.5615471   5.1568909  37.0073929
  36.5362900   5.8507605  37.8782406  10.0529903  11.9298382  18.4245053
  10.8881133  12.1956034  18.8094368   9.9542993  12.4911614  17.6554718
  65.6392846  64.8676732  38.7767163  66.2715039  64.4018819  38.2293930
  65.5881962  64.3479278  39.5788899  62.8293586  14.6937294   1.3139715
  62.5192130  15.2915020   1.9941988  62.3015798  13.9037342   1.4305344
   5.8742702  50.6296110  56.9088650   6.7133802  50.9333754  57.2550631
   6.0810077  50.3009081  56.0339642  10.2581208  38.7268133  -0.0304422
   9.3709701  39.0068741   0.1948586  10.2015942  37.7728291  -0.0847397
  73.8168782  22.2039480  18.9881077  73.2779712  22.1089859  19.7734776
  74.5461852  21.5989514  19.1234818  13.2629316  58.5263844  28.2349529
  13.1331699  57.9028340  27.5204029  12.7965706  58.1410427  28.9767494
  84.6114740  79.3639472   2.3368778  84.8260650  79.9338677   3.0753699
  84.9408397  78.5030868   2.5950852  83.0451683  67.2010326  38.3770251
  83.2667782  66.6513586  39.1286755  83.0028875  68.0884123  38.7334085
  38.0341879  72.8621128   5.4877844  38.0281028  72.3349860   6.2867394
  38.8283655  73.3920124   5.5564919  59.8740891  62.2119923  42.1447792
  59.2739495  62.8386231  41.7405453  60.6882564  62.3070164  41.6504708
  27.1968979  13.1631394   6.1546746  26.9218702  14.0443392   6.4078036
  27.1974916  13.1780882   5.1975908  70.6453285  66.9330790   6.4533415
  70.8738384  67.3839095   7.2662153  70.9214840  67.5333407   5.7607641
  25.3787106   9.4359799  28.3642903  25.8158320   9.4377346  27.5127354
  26.0722797   9.6450968  28.9899674  34.1978094  60.1268330   3.2554093
  33.5650173  60.8181288   3.0606833  34.2512992  60.1133313   4.2110148
  82.3424492  64.1697409  22.5905361  81.7527303  64.1224101  21.8380585
  82.9267988  63.4190657  22.4844685  17.6827514  68.7948370  64.8819017
  18.1647170  69.5618534  65.1911354  17.8647172  68.1185389  65.5343914
  32.7779794  65.7328320  67.6597071  32.5174308  66.5310001  67.2000647
  33.5817027  65.9733629  68.1205845  68.6020860  31.0590880  52.2074747
  68.3659920  30.7278769  53.0739594  69.5567617  30.9958403  52.1788406
   3.3622282  11.7109604  21.5239182   2.8479307  11.3195820  20.8178368
   4.0317457  11.0566683  21.7236271  29.4767761  45.4941511  58.0899048
  30.0043464  45.5275106  57.2919130  28.5726833  45.4555988  57.7778721
   9.9929636  31.3677283   8.7507239   9.1259974  31.6492768   8.4585991
  10.5963510  31.9898720   8.3444061  31.3120118  77.5427439  26.8819180
  30.4150874  77.2194698  26.9670716  31.4421171  77.6425364  25.9388676
  12.1657675  54.1311665   2.8740206  12.2155350  53.3952542   3.4840908
  12.9536598  54.0503712   2.3364964  54.3578777   7.8754752  68.1885862
  54.8217187   7.2647994  68.7614346  54.4086990   7.4752372  67.3205614
   3.0758198  78.7703445  33.5606613   3.9642104  78.5220411  33.3050480
   2.6274880  77.9376152  33.7082901  42.3899841  66.1547470  67.6299620
  42.2319698  65.2123499  67.6861429  42.1281672  66.4929676  68.4862852
  61.3991603  10.1013606  65.8621120  60.5891690  10.5477088  66.1089182
  61.3780913   9.2789405  66.3514090  24.9191976  52.2577047  45.2505350
  24.5156980  52.5438118  44.4310474  24.2637086  51.6890478  45.6545115
  29.4082761  51.5963364  67.6793861  29.8948693  51.8281698  68.4704065
  28.9660001  52.4060059  67.4243212   8.5427659  20.2486344  21.9060269
   9.4713729  20.2150078  21.6762676   8.5258072  20.6445952  22.7773228
  11.9996556  70.1087072  21.2410584  12.5620278  69.3994548  21.5523949
  11.3747939  69.6798422  20.6563797  81.8724794  44.5724983   1.3472023
  81.0083980  44.1687413   1.4283266  81.7009491  45.4286118   0.9549275
  77.9329056  43.4323426  61.8077126  77.0406408  43.7566300  61.9298973
  77.8921050  42.5133820  62.0724240  29.4368149  67.6634600   1.1529246
  29.2924297  66.8785455   0.6244412  29.2524538  68.3901503   0.5578079
  31.7623469  74.5583274  40.8419457  30.9625857  74.1556504  40.5036202
  31.7949063  75.4171231  40.4204788  15.7233536  68.0316877  49.2522526
  14.9887669  68.5575199  49.5686674  15.4688776  67.1279716  49.4387293
  41.1443374  72.5307109  13.9577522  40.4067263  73.0756190  14.2320385
  41.1120650  72.5477746  13.0012455  70.7957226  56.4095803  33.6700287
  70.9938413  57.3131581  33.4240284  71.4800579  56.1766167  34.2974415
  12.4421757  13.4408255  36.7823639  12.3739164  13.7205239  35.8694878
  13.0183619  12.6769133  36.7563668  78.8768477  22.6320858   7.5390425
  79.7261256  23.0096360   7.7679863  78.8542361  21.7947836   8.0023422
  71.5104574  27.0595522  44.3782082  70.9419317  27.3559447  43.6674538
  72.3722846  26.9659205  43.9723530  53.2722944  39.0201159  15.3959980
  54.1798553  38.7197228  15.4442635  52.7891949  38.4139986  15.9576645
  29.3493533  75.4992151  48.5498762  30.1422668  75.8971453  48.9092827
  28.7669539  76.2390804  48.3776999  10.2552390  34.4685674  62.4546671
   9.5820683  34.4846368  61.7743635  10.1934326  35.3272414  62.8731060
   1.7636531  40.9421845  22.4374714   1.1042970  40.8602066  21.7484417
   1.7565506  40.0924511  22.8780880  63.4762106  19.5529216  54.3393946
  62.7394781  18.9618914  54.4947815  63.1597004  20.4102271  54.6241331
  42.0035839  74.6519613  55.7402039  41.3248253  75.1596498  55.2954912
  42.5948334  74.3770218  55.0394440  74.6409923  41.0213585  40.4546013
  74.6418375  40.4768009  39.6673908  73.8950390  40.7047482  40.9640541
  67.9267174  21.7973061  16.6814842  68.7172395  21.6068001  17.1864739
  68.1717951  22.5341530  16.1218205  57.6936588  16.6627162  69.6530485
  58.4984121  16.1450904  69.6787930  57.5415477  16.8228190  68.7216711
   0.9530156  20.2354069  10.8243313   0.9192651  20.6523676   9.9633827
   0.0372642  20.1713438  11.0954895  20.6156891  32.4720021   8.1880179
  20.0244349  32.3922272   8.9365425  20.1049536  32.9412289   7.5283184
   6.9059092  74.9062252  67.3347664   7.1671230  74.2479563  66.6908169
   7.4068809  74.6852493  68.1198978  21.0299063  43.6372566  41.2932634
  20.5841494  44.2717075  40.7320070  21.1429739  42.8650618  40.7390451
  27.8671568  36.3711090  20.6205693  27.6282852  35.4741736  20.8544102
  27.0506876  36.7635412  20.3113594  59.7378492  51.5389919  64.9776602
  59.9355078  52.4732494  65.0434351  60.4898214  51.1669493  64.5168352
  73.7859065  31.3200827  29.7881546  74.1874868  32.0117684  29.2622891
  74.0876824  30.5064030  29.3843117  12.3830721  76.7762830  23.5293808
  12.8503129  76.2035611  22.9211750  13.0745635  77.2074320  24.0315571
  50.8597011  27.8853770   5.0108614  51.3394565  28.5727520   4.5487156
  51.3851440  27.0962734   4.8787251  69.1580591  25.0000136  64.4530392
  68.8265476  24.4388717  65.1540709  68.4987268  24.9350112  63.7621784
  76.3394076  43.5655136  33.0084553  77.0821494  43.7209530  32.4250164
  76.5407390  42.7330704  33.4359303  49.1748112  37.7735682   4.1753187
  48.4861534  37.7027006   4.8363486  48.7270086  38.1067248   3.3976879
  59.1243442  30.4873295  39.9604264  60.0229112  30.1578350  39.9447575
  58.9099575  30.6422015  39.0404835  76.9050891  21.7654534  18.0961743
  76.6569740  20.8627339  18.2955685  77.8197712  21.7070504  17.8201618
  37.4362213  29.8180218  43.1441918  36.9092149  30.6097193  43.0359783
  37.0400423  29.3665905  43.8894978  36.2527990  63.6414719  56.2086105
  36.3198280  62.8228331  55.7171202  37.1604943  63.8998747  56.3684559
  12.2730654  49.3357678  14.2560044  12.4633043  49.7726555  13.4258404
  11.3590377  49.0622444  14.1787663  53.2667932  76.6947916  27.5358811
  52.5174937  76.1162641  27.6776066  52.8803835  77.5624301  27.4170342
  49.8121748  70.8785441  18.3341446  49.4749317  71.7727020  18.2795658
  50.3213606  70.8636620  19.1445389  83.0629749   5.3194351  51.6204300
  83.1068510   6.2616654  51.7832604  82.5404519   4.9752636  52.3448220
  73.5317976  78.1004448  17.9426041  73.7481302  77.7378197  17.0835724
  72.6018388  77.9051228  18.0577412  79.3711275  21.6188832  22.0857182
  79.6130509  22.4103947  21.6048660  80.0935930  21.0115500  21.9262734
  56.2636086  19.3531390  36.3584748  56.4654590  19.4253941  35.4256001
  56.7688400  18.5961123  36.6549244  46.6472754   4.1207259  61.3755465
  45.7705078   4.4437545  61.5832996  46.7033372   4.1766684  60.4216290
  78.5154027  22.9455204  31.4416828  78.8028235  22.1422882  31.8757858
  78.1711454  22.6518841  30.5981770  65.4726279  60.6064244   2.3850575
  65.2232653  60.5875321   3.3090105  66.0951549  59.8855229   2.2901955
  36.0348487  56.7190504  55.5279922  35.3550172  57.0295095  54.9299335
  36.3516593  55.9080935  55.1302290  28.9452856  66.9155426  21.1093655
  29.6370667  67.5133152  20.8259144  29.3264454  66.4413185  21.8483200
   0.0038641  41.3334675   6.7370882  -0.0956160  41.1994953   5.7945481
   0.1960962  40.4622479   7.0838728  80.6831640  12.3395748   0.9518900
  80.1402396  11.9073887   1.6111937  80.6088776  11.7819472   0.1774492
  32.0176476  18.1635685   1.1038771  31.7250269  18.4693833   0.2453413
  32.2472447  17.2446938   0.9653511  25.9639254  69.1884592  45.4846993
  26.3766095  69.9473693  45.0724163  25.7380265  69.4876673  46.3654270
  46.5839049  73.4552600  25.0721970  46.0124669  72.9198482  25.6226769
  47.4389288  73.4109642  25.5002251  77.6477570  39.0756674  16.5645447
  77.9532809  39.7107382  17.2122898  77.5309915  38.2652111  17.0602741
   0.8192547  23.8047545  60.1085854  -0.1037685  23.5586016  60.1691914
   1.2403878  23.0539077  59.6901178  68.0202279   1.8125384  55.3644133
  67.1070227   1.6636031  55.1192427  68.1365761   1.3105624  56.1710835
  70.3708452  38.4185667  26.2513581  70.0901384  39.1742010  25.7351723
  71.3013775  38.5724087  26.4146748  75.0626451  11.3806267   4.0840092
  75.4167444  10.5891962   3.6784401  74.4637472  11.7382498   3.4285250
  15.4622086  27.0590442  69.4812393  15.5511626  27.9972022  69.6490908
  16.2449416  26.6705554  69.8719263  61.9333181   6.4254039  41.9005394
  62.2959027   5.8011477  42.5290871  62.5923643   6.4785426  41.2083912
  51.9287116  23.8125057   7.3668137  51.0990900  23.3384867   7.3096934
  52.0726511  23.9311047   8.3056679  10.0388526  67.1025133  69.1355419
  10.6624793  66.8442297  69.8142290   9.4579028  66.3472795  69.0441418
  39.3103576  51.1833858  66.9115829  38.8639712  50.5178165  67.4350262
  40.2277231  51.1219931  67.1778584  25.2651811  68.9690399  56.9424629
  25.4122090  68.0232096  56.9374990  24.7402763  69.1339445  56.1591911
   3.3821180  54.2293978  56.9213820   3.6788803  54.8630428  56.2681866
   4.1876262  53.9075136  57.3260784   4.3237489  25.3314371  27.2318974
   4.1669505  26.2605162  27.0632115   4.3765610  25.2667256  28.1854477
  66.7917046  74.3151572  26.6258946  67.2267255  73.5982611  26.1643162
  65.8627281  74.1999414  26.4260044  31.7460203  73.1185150  37.0056581
  31.6469574  74.0037775  37.3559856  32.4651694  73.1884623  36.3778353
  31.5359181   1.3535853  24.4081822  31.9608229   2.0526047  24.9052277
  30.6072062   1.4361067  24.6247902  55.1049623  36.2933867  64.0278101
  55.8555779  36.8349879  63.7839270  54.3689761  36.9045584  64.0598965
  67.4848909  23.2972260  26.4661446  67.3753351  23.0351801  27.3802414
  67.4319774  24.2528124  26.4829388  69.4604644  78.8825061   7.5787583
  69.6583709  79.6041586   8.1756535  68.8584337  79.2602470   6.9375839
  36.0309380   6.6672011   7.8685656  36.2602060   7.5866242   8.0039730
  36.7287510   6.3262387   7.3090782  81.5750617  45.4512806   9.2200365
  81.1129040  45.1498051  10.0021830  81.6871256  44.6627064   8.6891785
  44.5644140  69.6473408  53.4939671  44.1959286  70.4926825  53.2373571
  43.9046574  69.0074110  53.2266760  13.0598009  53.8182449  61.3422060
  14.0000439  53.9159870  61.4926100  12.7217495  53.4609890  62.1633768
   6.6788569   5.6793273   0.6608858   7.3721376   5.2268851   0.1803818
   6.5410050   5.1445258   1.4426890  36.1689251  35.7322712  37.2682133
  36.0178536  36.6301365  36.9728317  35.6765907  35.6631918  38.0861798
  47.4039888  75.7827091  60.1233721  47.5871277  75.8225155  61.0620451
  46.4493322  75.7415581  60.0671291  20.5081320  18.4015334  61.5309572
  21.4428473  18.5631073  61.6591549  20.2239323  17.9822814  62.3431730
  36.1295629  54.7551584  66.6723967  36.7661810  54.2479992  66.1686659
  36.4806986  55.6456232  66.6747618  66.0233063  48.1039543  15.6862107
  65.4062707  47.8160305  15.0134506  66.1493516  49.0367241  15.5121842
  66.5015138  12.5724661  25.1641488  66.2592305  12.6730120  24.2435932
  67.4530376  12.4691546  25.1514769  67.5883562  37.7088805  -0.2476558
  68.0927688  38.1305237   0.4480591  67.2798437  36.8909283   0.1422205
  42.8797552   7.2226088  54.7675753  43.1565413   6.6304248  54.0683365
  42.6395294   6.6434710  55.4908419  41.0175452   1.0971968  27.9680753
  40.6273732   1.4454310  27.1663737  41.9370625   0.9536784  27.7441931
   7.1290844  55.4856320  35.2718678   6.7793530  55.7596035  34.4240132
   6.7638319  56.1130734  35.8956757  44.0076930  47.0013924  15.3889790
  44.6153731  47.1750756  14.6700993  43.2736522  46.5454502  14.9772396
  75.2600605  29.8260851  31.9268933  74.9895102  29.4447394  31.0916653
  76.1398525  30.1650400  31.7616406  56.0267591  54.1742802  69.1239262
  55.6020737  54.0600824  68.2737350  56.1551523  53.2832241  69.4491386
  68.8142547   0.8147281  66.2642002  68.8637647   0.2994960  65.4590130
  68.1570921   0.3656428  66.7958879  24.3883961  27.0544310  18.2045593
  24.5675772  26.5015812  18.9651337  23.4930533  27.3648234  18.3396759
   7.9439819  70.4809999  61.9615650   8.3759201  69.6357775  61.8380308
   7.1703100  70.4390192  61.3995123  35.8357882  76.7636538  65.1473522
  36.2634587  77.6199818  65.1412868  34.9014044  76.9630003  65.2058220
  60.3410086  17.7139418  59.4321775  60.3731832  16.7769854  59.6253538
  61.0267624  18.0952208  59.9804497  24.8347402  80.5284023  62.1692801
  24.5032859  79.6411943  62.3079538  25.7870650  80.4345036  62.1915340
  72.5965506  28.0162497  13.5264816  73.1719774  27.2519655  13.4951153
  71.7645342  27.7044077  13.1704846  40.6471365  44.2376919   6.6300860
  40.9982079  43.3624001   6.7939368  40.4698151  44.5916386   7.5015822
  50.7330894  62.6221609  32.2538614  50.2808809  62.1946144  31.5265751
  51.2182426  61.9168329  32.6820707  79.6717710  23.5418005  20.2895680
  78.8639468  23.9066668  19.9282780  80.0688571  23.0686112  19.5583763
   5.8433884  29.7685833   0.5724516   5.9280675  28.8260002   0.4289236
   5.1356357  30.0374098  -0.0132570  81.8314928  19.1585369  49.1440716
  82.1809286  19.7119923  49.8425141  82.5979513  18.7080832  48.7893048
  48.6314322  61.2059212  41.5147781  48.8431908  61.0503769  42.4352074
  48.8156177  62.1355772  41.3804245  83.5013456  11.5810318   6.5428868
  82.5832409  11.7326613   6.3185539  83.7312001  10.7755156   6.0797014
  21.0033560  71.3816547  55.2497196  20.9719968  70.8646202  56.0546541
  21.8398666  71.8447304  55.2949333  62.1021164  29.1124220  36.8433514
  63.0234904  29.3228836  36.6916599  62.0523996  28.9148302  37.7786103
  53.9790344  38.7621808  64.4258928  53.8347149  39.6969986  64.2791939
  54.7868443  38.5671067  63.9508963  16.1420220  45.1368542   2.8118935
  16.3672703  45.0564308   1.8850556  16.9680803  45.3606625   3.2405844
  31.2895441  77.3317909  61.6269922  31.6792560  77.8287029  60.9076643
  30.4137683  77.7044868  61.7286968  16.5771627  58.2396221  61.9758701
  16.1715651  57.9801989  62.8031635  16.1418986  59.0595627  61.7424679
  14.7592866  79.2563534  57.7684212  14.6176696  78.3299255  57.5737190
  14.4249558  79.3678904  58.6583757  38.1390875  67.8839894  16.6832295
  38.9509934  68.2858486  16.3741245  37.5644367  68.6243077  16.8779984
  24.0415114  26.0488577   1.9650498  24.6454161  25.8154507   2.6700678
  23.2465237  26.3342829   2.4153319  15.7860821  30.4732485  24.6433201
  16.6950815  30.6305571  24.3879643  15.8394831  30.1879139  25.5554333
  22.5591152  42.0544071  21.3213959  23.3120125  41.7561455  21.8316975
  21.8612116  41.4372368  21.5410843  84.0708060  49.1216584   7.9694071
  83.1830258  48.7654038   8.0035200  84.6129722  48.4543915   8.3901777
  29.6363419  24.7433157  40.2093353  30.0772589  24.6475764  41.0535279
  28.7998503  24.2922278  40.3234997  69.9119145  17.0766325  21.6244641
  70.1446325  17.9916687  21.7818871  70.1551730  16.6251726  22.4327030
  80.9671158   4.6390648   5.1388207  81.0090584   4.4466181   6.0755387
  81.6750664   5.2661629   4.9912110  13.4854811  25.1717348  14.4910183
  13.1573551  24.8157044  13.6653080  13.8205116  26.0385866  14.2617645
  67.8651414  61.7423203  16.9700852  66.9562492  61.5229919  16.7650357
  68.2263431  62.0632627  16.1437836  27.1682405   3.3296132  52.8034735
  26.5650415   4.0657148  52.7008247  27.6788950   3.5454333  53.5837841
  24.0107274   5.0781351  39.7449875  24.8571014   5.3995323  39.4342017
  24.2232060   4.2925465  40.2489090  29.5123386   5.0613755  65.2923155
  29.4946671   5.8097434  64.6957731  28.9021087   4.4329679  64.9063635
  55.8340784  74.4986553  61.4795589  55.9159295  74.2678989  62.4049139
  56.4101558  75.2551288  61.3694906  54.4187793  43.0186968   6.5580168
  53.8301310  43.2429629   5.8373013  55.0163850  42.3699906   6.1861601
  32.4132681  15.9393549  62.9975462  31.8357253  15.4560685  63.5883999
  32.5659394  15.3390729  62.2677612  34.8134837  30.2141311  15.7829895
  34.7445253  30.7933875  15.0240841  35.1453635  29.3902864  15.4261055
  70.9336282  39.4273710  46.9226933  70.5830516  38.5378718  46.8766785
  71.1111952  39.6622443  46.0119057  15.3472555  18.3052599  63.8989973
  15.9113908  17.8790057  63.2537889  14.5251131  17.8167403  63.8582230
  47.5085449   9.0338182  62.5432158  47.8820181   9.1612142  63.4152937
  48.1670761   8.5224700  62.0730066  35.8339397  66.0303516  40.9882402
  35.8220331  66.9352181  41.3001823  36.7212931  65.9045524  40.6520748
  81.4329464  14.3968713  52.1670341  81.4439563  14.3526816  53.1231499
  82.3475371  14.5395434  51.9233131   9.2432937  48.0010536  12.5994721
   8.8441631  47.2053810  12.9513684   9.7023413  47.7103909  11.8114224
  77.6263247  32.9619642  25.3090611  78.3468352  33.4735986  24.9411907
  77.7444826  33.0287530  26.2565842  21.2227764  61.4387042  63.3997488
  20.8967724  62.3079307  63.1665182  21.6339436  61.5588445  64.2557526
  62.0692936  66.2364990  66.5386772  63.0132751  66.0780675  66.5441465
  61.7752964  65.9025688  65.6911564  27.1974969  24.1304350  49.0550852
  27.9718971  24.5707250  49.4053459  26.5187240  24.8053360  49.0528870
  84.0440045  74.2710783  19.8269882  84.7031627  73.6360004  19.5469609
  84.3021546  74.5071390  20.7179775  71.9679583  46.3771343  27.0974827
  72.9124130  46.2216616  27.0895290  71.5884663  45.5634165  26.7657018
  35.3779912  26.2350011  53.7135077  36.1208963  25.6941319  53.9814377
  35.5093789  26.3747954  52.7757311  51.9726691  55.3020289  18.0601063
  51.1899123  55.7628765  18.3620110  52.2674689  54.8052719  18.8233605
  57.7415411   1.4918730  64.0855787  57.1640902   2.1687148  64.4386647
  57.5500015   1.4789317  63.1478271  42.0098886  36.4803695  20.4306641
  41.8027517  36.2903293  21.3456574  42.1201536  37.4307790  20.4024544
  46.4124522  66.8280151   0.6752863  47.2215972  66.8687870   1.1850443
  46.5214691  66.0604336   0.1138869  12.6281214  43.7651682  67.2892904
  13.1011307  43.3318806  67.9997540  12.8428769  43.2517481  66.5105009
  32.4680045  69.3586543   8.2951632  31.7834518  69.5775273   8.9273920
  32.0952437  68.6464622   7.7754870  29.3389106  20.3409195  36.4559269
  29.2572379  20.2179265  37.4016714  30.0089979  21.0175991  36.3593841
  -0.0349483  55.0865276  52.9412127  -0.1744971  55.5035336  52.0909977
   0.8012572  54.6298010  52.8496027   2.6524755  24.8166561  33.2485533
   1.9487542  24.1741252  33.1582069   3.1122708  24.5575953  34.0471196
  54.2753086  48.1988027   6.6118326  53.8917551  47.3550650   6.8510523
  55.1635012  48.1675490   6.9673147  13.0110511  74.4316032  14.1529503
  13.0131147  75.2110221  14.7085896  13.9095447  74.1043642  14.1960373
  31.6158739  68.4680965  25.9945145  30.7333610  68.5260060  26.3606396
  31.7420194  69.3013384  25.5406037  13.8928795  38.0776930  41.4704800
  13.4930599  37.7294278  40.6735563  13.6550748  37.4491835  42.1521378
  11.0987055  32.7547312  52.0628595  10.5540287  33.2735682  52.6547766
  11.3906395  32.0136714  52.5937414  38.2751298  10.5899477  52.3446226
  37.9362035  10.1062667  53.0978870  37.9221964  11.4735794  52.4488544
  12.3946142   8.0808550  56.7172432  12.5083303   8.2161433  57.6579857
  11.6126466   7.5333172  56.6468096  52.6320157  25.6131079  22.1481838
  53.0520639  25.4330244  21.3071385  53.1876025  26.2773504  22.5560227
  57.2342445  21.1326671  52.1974468  57.2290994  21.6084218  51.3668633
  57.7318574  20.3358316  52.0139647  80.9460983  38.8263301  43.4512272
  80.2803383  39.4897708  43.6324444  80.6216631  38.3667304  42.6767960
  50.5801568  44.7878095   8.8761463  50.2457223  45.4269084   8.2469120
  50.9731111  44.1025125   8.3356037  34.2295837   9.6368527  50.7511902
  35.0996184   9.2596179  50.6209421  33.9257050   9.8485100  49.8685312
  33.5420203  38.8645172  59.2086887  32.7874660  38.6450911  59.7552490
  34.3000245  38.5960460  59.7279024  75.1679517  52.6741505  56.4104414
  75.0108255  52.4683094  57.3319483  75.5178405  53.5650539  56.4203215
  35.5373621  18.9959157  62.6514196  35.3550529  18.7248158  61.7516947
  36.2050295  18.3814061  62.9561043  24.1161537   1.0386941  52.9390335
  24.1561937   1.9904876  53.0324030  24.5279479   0.8635052  52.0928812
  16.3698626  17.0534229  33.0945849  16.4071095  17.6252723  33.8612890
  16.9391000  17.4769139  32.4520469  67.5692567  75.2003958   3.5090056
  68.4240970  75.6033423   3.6610546  66.9467244  75.7933047   3.9298907
  39.8196769  54.1786671  51.8346405  39.0274358  54.7000837  51.7053699
  39.5150137  53.2714415  51.8159819   4.6450766  57.5186970  21.7948570
   4.9421795  57.3195078  20.9070053   4.3708428  56.6735628  22.1509114
  83.6828897   1.2799321  44.9325323  83.9529922   1.8884365  44.2447853
  83.3640880   1.8424287  45.6383610  81.5404890  18.2298028  51.7643785
  81.5199588  17.2728539  51.7720699  82.4413593  18.4519398  51.9995832
  12.4455988  69.9679899  48.8765717  11.5913701  70.0351381  49.3032074
  12.3353219  70.4302073  48.0456543  41.8708563  26.9995761  58.9476871
  41.2789679  27.4937892  59.5148373  41.3744593  26.8682241  58.1398726
   8.5165715  49.1795301  48.0001926   8.6712456  49.4921112  47.1087885
   8.7132269  48.2434750  47.9632664  65.9081206  77.6716998  19.6644249
  66.5331754  77.2281196  20.2378121  65.1740155  77.8942039  20.2369728
  41.9577885  51.2009954  46.3126373  41.7172861  51.3718891  45.4020452
  42.8055191  50.7598972  46.2577248  27.1410155  26.0610628  52.6816702
  27.2814417  26.7869639  53.2896042  26.3438892  26.2968826  52.2071028
  44.4241616  59.8003449  29.1306439  45.2371785  59.4356742  28.7809983
  44.1841611  59.2095282  29.8444786  59.1419873  51.9632986  15.0860729
  58.6303243  52.3168375  15.8136978  58.5105023  51.8684854  14.3730011
  42.1157429  50.6706669  17.7506008  42.9257617  50.8738210  17.2828140
  41.9456777  51.4473894  18.2835331  82.7734802  29.1537380  68.7437773
  82.7431224  28.5021138  68.0432796  83.6702145  29.4878054  68.7214375
  53.6963129  14.6252000  56.4817762  54.1037226  13.8500011  56.8681955
  53.3316040  14.3159342  55.6525755  33.1919480  20.6581879  49.4786310
  33.6284543  21.4992023  49.6142530  32.2606517  20.8755469  49.4377375
  44.1498813  45.2068886  21.7870369  44.5124743  44.3991219  22.1507302
  43.4600112  44.9131432  21.1920395   0.5738347   4.6772309  36.3461819
  -0.1666409   4.1011973  36.5362110   1.3459271   4.1526051  36.5580216
   9.1011589   6.8177672  14.6295300   8.3904141   7.1213265  14.0647927
   9.8881500   6.9044085  14.0915909  49.3287930  46.5865138   7.0603886
  49.1531977  47.4922993   7.3152437  48.4630773  46.2102123   6.9017544
  16.5100014  53.0580044  48.8762617  16.7104888  52.5118446  48.1161642
  15.5570352  53.1468964  48.8626480  34.8427317  31.6543403  12.9497376
  34.8184768  31.1485269  12.1374550  34.8513171  32.5675603  12.6630535
  62.7288700  38.8772702  40.9805250  62.7963377  38.0633783  40.4812622
  62.0319534  38.7117052  41.6154432   3.1628576  70.1019652  34.8326135
   3.9479938  70.0370378  34.2889428   3.0025735  69.2062945  35.1297927
  38.6702389  10.9395094  10.5342522  39.1823954  11.7457361  10.4716339
  37.7593464  11.2304230  10.4909363  51.4194927  37.5044429   9.0702906
  52.1715650  37.5811108   8.4831467  51.1234102  36.6004767   8.9634695
  23.4620180  72.2083742  48.8050795  24.3733635  72.4747891  48.6837959
  23.3795061  71.3998700  48.2993650   9.6395606  25.1210284  69.5801640
  10.1942372  25.8181524  69.2300463   9.4156820  24.5873737  68.8177204
  13.9284313  13.9950728  45.6755543  13.7082493  14.8550677  46.0335493
  13.0903149  13.6342883  45.3863716  65.2706823  66.1715033  22.2014179
  65.7237563  65.3829768  22.5000611  65.9735450  66.7731693  21.9560375
  73.3995165  65.9135818  69.6213388  74.0547026  66.3935184  70.1279211
  73.8236476  65.0825357  69.4075584  57.9290995  47.4429717   8.8407841
  57.7316794  46.7675194   9.4896450  57.4504385  48.2141932   9.1446486
  25.3666210  54.1693687  51.0732460  25.5100656  54.0678263  50.1323175
  24.4210482  54.0695572  51.1835194  82.4631414  70.4727104   9.8486891
  82.2751674  71.4005544   9.7072497  81.9043026  70.0165060   9.2195549
  10.2456605  39.3366718  62.9952288   9.8576456  40.0295305  63.5296679
  11.1793375  39.5463276  62.9723263  50.7303295  69.4235399  32.5397244
  51.5153203  69.8681309  32.2197857  50.3805098  70.0089147  33.2114353
  10.8238399  54.7097540  65.4230881  10.5236614  53.8706493  65.0737667
  11.5496063  54.4815302  66.0039568  85.7231578  53.6018648   7.9675570
  85.6974039  52.8770354   7.3429003  84.8056182  53.8459089   8.0892220
  21.1361902   8.8615771   6.7675390  20.4913014   8.5937233   7.4222174
  21.9544714   8.9443035   7.2572413  26.1704397  17.6342750  54.5454168
  26.1548281  18.2994199  53.8572502  25.3851986  17.1096313  54.3892813
   6.3899750  40.4955292  64.4861174   5.6321126  40.2672720  63.9478064
   6.0665858  41.1729431  65.0800514  27.7624369  25.4214501  64.3104458
  26.9420934  25.8991742  64.4331121  27.8995442  25.4202366  63.3631182
  47.0707750  10.3899789  65.6399250  47.6896620   9.7140974  65.3635311
  47.1433973  10.4054224  66.5942430  16.2524188  48.5822868  63.2661867
  15.6454468  47.8851271  63.0176163  16.2284577  48.5908222  64.2230511
  41.6171810  39.6617981  13.3034268  41.5489850  38.7159585  13.1731644
  42.3130772  39.7646093  13.9525738   9.0312356  46.5250969  47.4621677
   9.5283735  46.0115242  46.8255091   8.1268287  46.4807558  47.1518230
  14.9817443  19.7281444  49.1235971  14.5263374  19.7500312  48.2819557
  15.0687921  18.7963581  49.3246651  56.5687181  50.2052242  56.1898756
  56.2946057  49.8759420  55.3339148  57.3163793  49.6574552  56.4290047
  30.2674158  54.1040661   9.8499098  30.2742994  54.2815783   8.9093390
  29.8868707  53.2290401   9.9257317  34.8084641  37.0131612  28.6489010
  35.3189445  36.7527986  27.8821850  35.4251790  37.5042939  29.1917467
  42.3799762  44.5553034  19.7591343  42.8497300  45.3343364  19.4613590
  41.4556608  44.7710594  19.6353569  24.7552490  75.4428720  67.8423738
  24.7088695  75.4909468  66.8875074  24.0351057  75.9959269  68.1452942
  55.9600887  75.7495930   8.0934897  56.4929113  76.2097528   7.4449673
  56.5456519  75.6262305   8.8405695  71.4341364  78.4744503   3.3981648
  72.2156725  77.9650667   3.1837788  71.1445961  78.8333204   2.5593510
  35.2732682  26.8879509  67.2423792  34.3598080  26.9284892  67.5255394
  35.7764125  27.1218252  68.0223656  22.8245640  48.2683468  58.9198780
  23.0511308  47.9712105  58.0386209  22.9822350  47.5064564  59.4774580
  44.9194193  30.6835032  61.9741535  44.3028307  31.4156508  61.9766665
  44.5399332  30.0528836  61.3621521  46.3406894  70.8252671  16.4042988
  46.1992130  70.0685766  16.9731846  45.7794723  70.6630995  15.6460324
  43.1776151  74.3069079  12.6566925  44.0193936  73.8774493  12.8090325
  42.5290272  73.6892536  12.9944363   2.0560130  58.8087847   3.2136336
   2.7632912  59.3200901   2.8205004   2.2894391  57.8983083   3.0325928
  28.8456702  23.3124542  68.8411140  28.6492324  23.4855366  67.9204178
  29.7501493  22.9991794  68.8382530  27.6520944  19.5376432  68.3080626
  28.5266232  19.6401238  67.9326582  27.2683072  20.4134178  68.2637787
  63.4451637  31.1086323  18.9229527  63.5310850  32.0617309  18.9442196
  62.8878698  30.9015908  19.6731510  53.1628513  57.8635168  52.5329590
  52.8393459  58.3142519  51.7529488  53.9048958  58.3929396  52.8250456
  82.0464176   1.7783852  25.4724827  82.8341598   1.3522549  25.8102741
  81.3264913   1.3592644  25.9439411  17.0575690  30.5553079  27.9276490
  16.3062871  30.0366521  27.6398921  16.6758454  31.2595725  28.4516072
  60.3671178  42.8061261   1.7880621  59.5438990  43.2370757   1.5582218
  60.9884605  43.5244735   1.9069758  45.7469735  64.8466256   4.8702994
  45.7459387  65.7281926   4.4973746  44.8222777  64.6026518   4.9108877
  17.4238786  68.7982562  19.5419159  16.4668522  68.8015273  19.5598355
  17.6607451  67.8711798  19.5675411  34.2244360  59.7696545   5.8846274
  33.3080626  59.8391035   6.1523380  34.6334294  59.2367198   6.5664902
  28.5195565  28.3948970  53.6328506  29.4095755  28.0803084  53.4743166
  28.4019661  29.1075253  53.0047083  83.9594321  54.7920179  35.5525994
  84.8704460  54.8187637  35.8451223  83.4601147  54.5857286  36.3427639
  54.3810320  16.9797468  51.2236357  54.7949076  16.6309500  52.0131159
  53.4753942  17.1494389  51.4829779  45.1358125  54.8036661  21.9766751
  45.7961604  55.4198232  21.6596260  44.5714256  54.6469011  21.2196293
  22.3886085  65.1105356  58.0492592  22.2382188  64.8528814  58.9587831
  21.5483189  65.4650927  57.7586937  78.2321746  12.8289294  46.9110632
  78.6513324  12.1238065  47.4043560  78.8816286  13.5319996  46.8994379
  37.6302624  33.1518316  57.8830051  37.4023867  33.8706732  58.4725571
  37.7562833  33.5710025  57.0317459  15.1130319  39.7776937  56.4949608
  15.5128121  39.7889757  55.6253147  15.2397931  40.6659460  56.8283844
  57.9997564   4.8635025  17.5715771  57.5020791   4.4283934  18.2638493
  58.8799099   4.9615975  17.9348126   1.0784855  53.3345795  64.0911913
   0.6801619  53.0015993  64.8953629   1.7009331  52.6548004  63.8329411
  37.6468754  26.7177939  59.1023397  37.0505381  26.4772868  59.8114061
  37.2412729  27.4847794  58.6980438  52.7632794  60.4718616  42.2455731
  53.3814869  59.7769823  42.0193043  52.1933326  60.5440309  41.4799443
  44.2210266  62.5375845  21.6702881  43.9635346  62.1471717  20.8351174
  43.5399446  62.2617772  22.2837105  70.3535129   6.3143599  52.4841356
  69.6317066   6.7800963  52.0618629  70.0149573   5.4312938  52.6318073
  18.1531966  29.0413713  44.3168402  18.6170518  28.2811785  44.6678066
  18.7269080  29.3744469  43.6268044  24.1384268  48.2769299  64.6719313
  23.8439488  48.9496088  65.2859497  24.2573237  48.7433767  63.8445711
  83.7667951  66.7747571   3.8387194  84.4194135  66.0762193   3.7901249
  83.5233268  66.9388773   2.9276648  53.5725793  54.8073187  12.6303520
  53.2143817  55.1094809  13.4649983  54.3383894  55.3624406  12.4833622
  49.6246204  44.6143779  15.3579941  50.0221119  43.9018013  14.8575249
  48.7586984  44.2845195  15.5979958  65.2856240  42.5429952  10.0014534
  65.1372823  42.6632027  10.9394207  65.8770165  41.7923307   9.9467650
  18.2101369  35.7816887  62.8041744  19.0561283  35.5468202  63.1854439
  17.5736749  35.5775881  63.4893703  77.8935165   5.5672999   4.6966782
  78.5501570   5.0986309   5.2118530  78.2864875   6.4240952   4.5302286
  21.1904788  43.3304167  54.8377752  20.4535556  43.3475924  55.4484129
  20.9520721  42.6639843  54.1933632  28.4553432  21.8426752  63.8119936
  28.7666774  20.9519958  63.9732122  29.2221260  22.3074532  63.4769392
  40.7852134  61.4300706   7.8146448  39.9403045  61.0950973   7.5143900
  41.0883317  60.7809236   8.4494343  12.3891697  71.7875841   1.4092102
  12.3406050  70.8373167   1.3049784  12.8645656  72.0894482   0.6351891
  44.1257069  42.7905160   8.2407799  44.4121894  43.6926793   8.0984392
  44.8608789  42.2556821   7.9412689  10.2647918   9.5243283  23.6339417
  11.1284440   9.7075529  23.2641258   9.6547144   9.7057600  22.9190102
  75.9095067  24.7164984   5.5523672  76.4772112  24.9126454   6.2976685
  75.1072020  25.2087088   5.7263460  82.9803008  16.2399025  29.1363754
  82.2798270  16.5608139  28.5684147  82.5318665  15.7029600  29.7896996
  53.6635575  69.0175679  18.3256569  54.1136202  68.2482841  18.6747685
  54.0927229  69.7598078  18.7512531  46.4751720  33.1488705  63.9836359
  46.0531569  33.8297439  63.4596682  47.3360538  33.0357003  63.5807562
  25.3869271   6.8556035  34.2665505  25.3492332   7.7479213  34.6109033
  25.6121063   6.9647354  33.3426356   9.3499276  56.6815045  21.6743698
   9.7700653  57.4506094  21.2894097  10.0599274  56.0481992  21.7795220
  56.5030584  67.9900863   3.1882277  55.9183678  68.1084063   3.9368048
  57.2926221  68.4783580   3.4214964  28.9509249  49.9858379  63.0208111
  29.7785783  50.4048300  63.2567453  29.1403365  49.0480232  63.0500841
  62.9602537  62.9850080   0.9520903  62.6266703  62.0884087   0.9194651
  62.6094875  63.3415129   1.7682400  22.2342685  49.5413806   0.3582182
  23.0232534  49.0569546   0.6012526  22.0942703  49.3242290  -0.5634556
   2.7880603  14.6709228  58.4804058   3.0143166  15.5124462  58.0843258
   3.6298090  14.2897201  58.7301540  57.5655088  66.2070897  37.5182762
  57.1585164  66.1040356  36.6580620  58.4822306  65.9691479  37.3795738
  34.6907210   9.9292445  57.9859400  33.8838673   9.8608863  57.4755001
  35.2656817   9.2593479  57.6159525  13.8059330   2.2541977  38.6749196
  13.9602482   3.1093645  39.0763044  14.2139673   1.6305479  39.2755866
  53.6880252  13.7967177  17.4452343  53.2808644  12.9704829  17.7055874
  54.4900597  13.5362454  16.9923249   8.1267271  29.2265418   9.9179831
   7.2795233  29.2070022   9.4729033   8.4039983  30.1411774   9.8651448
  22.3479724  42.0197439  57.3447037  22.9076648  42.5127506  56.7447710
  21.5642929  42.5609493  57.4404812  23.8269994  34.4081488   1.2087670
  23.2656375  35.0781419   1.5989104  23.5991827  34.4164392   0.2791109
  29.2309737  12.8574908  23.0194950  28.4251595  12.3485136  23.1080413
  29.9284601  12.2437251  23.2497859  43.0969522  74.3785479  17.7297917
  43.6964748  74.2338636  18.4618321  43.3477614  73.7207868  17.0811978
  37.1657929  62.4894502  10.6586304  36.5753874  62.7697065  11.3579979
  37.8213427  63.1849124  10.6055393  17.4456346  67.0292950  33.4261799
  17.7246213  67.9444695  33.3969569  18.2612097  66.5291739  33.3953595
  22.9873562  13.1425202  68.2376719  22.6606274  12.7325749  69.0385628
  22.2709703  13.0466902  67.6101065   6.0638845  24.2923617  61.8172169
   6.2565094  23.7510157  62.5827742   6.6133779  25.0682402  61.9281340
  22.1655178  37.1060395  60.5034256  22.5043178  37.7562332  59.8880434
  21.9814181  36.3378000  59.9629211   1.9936948  41.0668516  67.8933334
   2.5456655  40.6786871  68.5722208   1.7288440  40.3263998  67.3476028
  28.4656522  69.4792178  13.7299099  28.6165294  70.3697708  14.0467396
  28.2198178  68.9851763  14.5120278  36.3815236  50.7683563  65.3964043
  36.4313507  49.9468231  64.9076939  36.5471101  50.5169392  66.3050318
  18.0876505  19.4920588  68.9729834  17.3377991  19.5075214  68.3782482
  17.8840566  20.1553440  69.6324062  41.8119518  68.5209317  57.8836918
  42.6671676  68.5297401  57.4538517  41.9837789  68.8507671  58.7656879
  11.1045072  56.4169588   9.1884556  11.7494807  57.0090129   8.8015261
  10.9402237  56.7780187  10.0595894  38.1560588  24.5284295  68.8135910
  38.2480073  23.7436867  69.3539190  37.6710510  24.2331624  68.0429983
  40.5701146  53.0892315  11.0167351  41.0907528  53.6654046  11.5763703
  40.2790758  53.6515644  10.2988854  46.6377780  58.1037500   9.9960747
  46.6474328  57.1506050   9.9085989  47.2314891  58.4130826   9.3119326
  24.8551846  22.7680898  56.0752201  24.9520469  23.6954284  56.2917614
  25.6110620  22.3464561  56.4840078  29.1763091  52.4332714  45.3754091
  29.3956995  53.1241751  44.7503090  30.0206804  52.0543194  45.6196690
  39.8116636  49.1351795  46.5298843  39.1479945  49.8006868  46.3485765
  40.6441307  49.6031618  46.4649296  51.5479598  46.0692116  20.8943024
  51.6044936  46.9038733  20.4291382  51.8386373  46.2705668  21.7837944
  62.7457342  52.3358288   6.0900250  62.7437744  52.4824479   7.0359268
  61.8977842  52.6673260   5.7945147   5.6158941   5.9019251  27.5459519
   4.6960228   5.7206316  27.3530712   5.6733029   5.8596821  28.5004940
  78.4548415  22.7160168  37.3544765  78.6917807  22.5442529  36.4431095
  78.9356596  22.0570159  37.8552389  83.8461361  59.5961478   9.2914715
  83.6734686  59.4222560   8.3661738  83.7807045  58.7390246   9.7125330
   4.3245706  43.4996176  45.3986120   4.2258230  43.3668709  46.3414049
   3.4803939  43.2389307  45.0303173  56.9347367  71.4592555  22.1228829
  57.7062902  71.8322995  21.6965332  56.6306290  70.7824876  21.5181198
  59.0387425  50.1310011  24.2021027  58.2209620  50.5524685  23.9378395
  59.6669588  50.3812077  23.5246220  44.5020771  40.2385426  66.1378574
  43.6878920  39.8611045  66.4708328  44.9643469  39.4996643  65.7421255
  68.7025928  30.8699679  61.5825319  69.2519379  30.1509738  61.2702894
  69.0847015  31.6529465  61.1860800  34.1741991  34.6257091  64.1510534
  34.5012403  35.5026579  63.9504576  34.0391541  34.2188740  63.2952023
   3.8249579   1.8685459  49.8874235   3.3326933   2.3528439  50.5502653
   3.7418160   0.9517305  50.1496601  72.1227664  10.3994913   0.5560532
  71.1861498  10.5906554   0.5066767  72.1659953   9.4702311   0.7815256
  79.9859277  77.0225046  65.2995872  79.8181287  77.2212792  64.3784142
  80.5984727  77.7011169  65.5833197  73.7914730  23.4758759  42.7327013
  74.0117730  23.8722539  41.8897390  74.4801451  23.7761354  43.3258390
  11.0396993  15.1869845  43.1100798  10.5193758  14.4626832  42.7623987
  11.5404308  15.5045116  42.3586321  41.8938014  73.6938550   9.0470352
  42.4955294  72.9909446   8.8019457  41.3974616  73.3381083   9.7841397
  80.7947025  21.2698498   4.6869889  80.2462062  20.8125439   4.0496102
  80.9686861  20.6171956   5.3652230   5.3209677  68.2554502  63.8149118
   5.8648577  68.9873023  63.5236931   5.1755872  67.7356667  63.0243921
  60.0319067   3.9504214  19.3101349  60.5017031   4.5734616  19.8645249
  60.3296584   3.0914278  19.6096459  74.6211709  44.4778442  36.5238667
  74.3015040  44.1159630  37.3503590  75.0762833  43.7484074  36.1031199
  23.2526040  49.6323442  66.9426394  24.1080523  49.2624426  67.1608448
  23.2806325  50.5230570  67.2920370  18.7945902  27.7896047  40.0146437
  18.6382079  28.6064863  39.5408487  18.8011456  27.1158648  39.3347406
  68.4298977  31.1572250  17.8712025  69.2024908  31.7220398  17.8534641
  68.2595191  31.0136130  18.8021031  64.2800197  59.3886235  16.5201702
  65.1032147  59.1114356  16.1179867  63.6587319  58.6958005  16.2960472
  72.7094025   4.4009180  31.8431988  72.4990887   3.7334605  31.1901322
  72.0058555   5.0449343  31.7626133  11.5937150  23.5640454  27.4542737
  12.5065529  23.2876515  27.3732471  11.4488280  24.1359663  26.7005181
  21.1546373  30.3878808  38.0210209  20.6355214  30.8361220  38.6887264
  20.7076955  30.5850101  37.1978474  21.2602377  47.5698900  55.0341892
  21.2514663  48.3530521  55.5844736  20.7562757  46.9238234  55.5290174
  26.3360179  33.8891991  15.8095875  26.5909508  34.7552421  15.4914513
  26.1573230  34.0192046  16.7409363  44.3478796  79.5845010  38.7680760
  45.2194199  79.6517303  39.1581192  43.7547299  79.5208576  39.5166435
   5.9589082  79.5728588  64.1751957   6.3985455  78.7228489  64.1544056
   5.6152523  79.6430445  65.0658178   1.3042486  35.8293200  65.5295753
   1.5251178  35.7261705  66.4552116   0.4943527  36.3395119  65.5320024
  70.1008710  61.0282257   3.4515276  70.3789196  61.9352295   3.5790577
  69.4541225  60.8768156   4.1407433  35.0084815  64.6980741  37.5597706
  34.7297475  63.8356688  37.2518864  35.8941028  64.5580413  37.8948822
  27.0228648  53.1525865   9.6936884  27.5350371  52.4015501   9.3939295
  27.0672873  53.1069436  10.6487694  54.1791344  11.1274672  64.8301983
  53.2328606  11.2035131  64.7076893  54.4885969  12.0322561  64.8729086
   8.5823780   2.6594150  23.6579084   9.2984027   3.2946593  23.6555195
   8.0157709   2.9398739  24.3766093  21.8863010  45.0465393  68.6281443
  20.9705019  45.3099394  68.7184906  22.0334697  44.4391394  69.3531513
  84.6602445  56.0823727  38.4222984  85.3742048  55.9016562  37.8108788
  84.9341358  55.6667852  39.2399192  85.2337170  30.2109718  69.5355463
  85.4049301  30.9670305  68.9740372  85.1453400  30.5803084  70.4141903
  61.0844982  22.3094673  16.8691197  61.5917430  23.1198330  16.9164601
  61.7167122  21.6191454  17.0690956  12.5467547  45.0124645  11.2126389
  12.9511603  44.2078634  11.5371552  12.1549567  44.7629299  10.3757038
  82.1482796  13.5960646   4.5882836  82.4049086  14.3931074   5.0520745
  81.2989778  13.8074274   4.2006722  29.8705334  25.5689307  11.0489407
  29.9561066  26.4799757  10.7680359  29.6640224  25.6243582  11.9819584
  29.4442081  76.2134600  56.5513420  29.3935585  77.1423149  56.7769289
  30.3524566  75.9720278  56.7330694  16.1573458  25.8228159  44.3052769
  15.7182038  25.1021004  43.8536644  15.6012273  26.0051417  45.0627232
  20.9764784  15.8350773   1.3188782  21.1138456  15.1972075   2.0192232
  21.5391272  16.5731020   1.5533486  13.7270892  65.2880239   7.5665408
  13.4309769  65.4549217   6.6717261  13.4882236  66.0792589   8.0493742
  26.6741729  22.7462244  46.3809824  27.2401619  23.1508946  47.0383501
  25.9435964  23.3572078  46.2851286  68.9173378  51.4509630  63.8024902
  69.3164183  52.3185873  63.8672495  69.6172167  50.8897114  63.4687281
  30.2909470  15.6725705  47.5113010  29.7553635  15.2315533  48.1707573
  31.0014057  16.0757101  48.0102539  71.8422395   5.3419323   0.4248705
  72.6057679   5.9117337   0.3322354  71.3062758   5.5326195  -0.3449449
  77.0456523  12.3706980   5.7550040  77.6471633  11.7306109   5.3746071
  76.2725193  12.3371287   5.1916447  54.1709438  13.9404555  21.4854374
  54.3740967  14.8611231  21.6507664  54.8095896  13.6689062  20.8261814
  22.0924282  62.4469614  65.7969189  23.0387521  62.5884199  65.7706213
  21.7271829  63.3077335  66.0016155  30.5077392  46.0949280   6.3410511
  31.0591221  45.5390307   6.8916741  29.6218870  45.9634187   6.6789904
  28.4095883  49.2964077  54.3817759  29.2230201  49.2307425  54.8820257
  28.4373045  48.5519838  53.7806988  83.1229157  21.2726803  17.6643505
  83.1860370  20.3400727  17.8704777  84.0223545  21.5365048  17.4703446
   9.0167713  30.1458192  35.7507157   8.7406600  29.8051500  36.6015625
   8.7246972  31.0573673  35.7514572  20.0734013   2.5215645   5.8181896
  20.3471869   2.2853442   6.7044583  20.8378380   2.9551859   5.4389324
  23.8418684  61.8220403  17.1448078  23.2039091  61.1380556  16.9413223
  23.5163903  62.2207024  17.9518738   6.8168443  11.9647570   2.3124638
   6.9779723  12.5286503   1.5559616   5.9449356  11.6009684   2.1586457
  19.4173622  33.0043888  69.0348005  19.6214771  33.7011123  69.6586180
  19.5234847  33.4132957  68.1758690  68.9102844  73.8481993  62.2683287
  68.1639759  74.0797521  61.7154837  69.6431712  73.7639839  61.6583967
  74.5689923   3.7992449   6.6546669  74.4004721   3.3967085   5.8027306
  75.0458831   4.6034212   6.4494648  29.7147560  56.7604017  66.5147829
  30.0123930  57.1439934  65.6898594  30.5194235  56.5948153  67.0060301
  58.0490670  58.5368338  20.8045712  57.8218827  57.7270963  20.3474655
  58.0233249  59.2106798  20.1252308  78.1863536  51.7398643  46.6051626
  79.1046412  51.6586971  46.3474989  78.0072946  50.9448195  47.1072340
  49.9587822   9.4046135  27.7931061  49.3490100   9.3996640  27.0552769
  49.5777232  10.0249167  28.4145966  19.6685481  65.7261896  65.0041819
  20.0427794  66.5376711  65.3472328  18.7521505  65.7498264  65.2796650
  33.3304763  33.7014103  68.0212545  32.5546026  33.1538773  67.9010248
  33.8105750  33.2829046  68.7358141  72.7629728  11.9563885  26.8893948
  73.1391806  11.7648812  27.7484837  73.3314652  11.4971657  26.2712040
  14.5002764   5.0318737  19.2985573  14.1949194   5.4850264  18.5126629
  15.4167860   4.8254605  19.1151562  77.5570101   5.2638264   7.8557387
  77.9003400   5.6353779   8.6683312  77.8570122   5.8635111   7.1726504
  78.8142342  18.5869427   2.7718868  79.6339840  18.3540364   3.2077732
  78.5388560  19.3988247   3.1976214  82.8276078  76.7676289  58.0719852
  81.9616477  76.5050537  58.3840704  83.3438293  75.9618018  58.0917692
  11.0531419   7.5952645   4.4413986  10.8794325   8.5358210   4.4789067
  10.1941221   7.1986456   4.2964354  21.0318920  79.5520737   6.2569466
  20.8004675  80.0258663   7.0558157  20.6792084  80.0904992   5.5484667
  20.7960480  10.0480242  21.9076863  19.8546713  10.2212830  21.9036045
  20.8854025   9.2214508  22.3820534  12.4569571  49.0222311  69.1790962
  12.6211214  48.2867193  68.5889196  12.6502335  48.6775255  70.0509071
  13.3847153  63.8626242  61.4933157  13.4555566  63.2010412  60.8051825
  12.6616144  64.4235516  61.2127495  38.4832120  42.3920918  68.5608244
  39.0902400  42.5420380  69.2855787  37.6147652  42.4718666  68.9553738
  50.8701858  65.6562593  20.7389584  50.6016430  66.1409643  19.9584522
  51.7392907  65.9993556  20.9467354  17.5194454  38.1071401  50.2898455
  17.8323054  38.5140944  49.4819212  17.5921249  38.7971163  50.9493017
  75.3804792  66.9018078  50.8333588  75.7830961  66.3166237  50.1917267
  75.7245166  67.7682734  50.6163120  37.5539050  63.1011393   2.6377239
  37.4473950  64.0384057   2.4751892  37.1320543  62.9554417   3.4845104
   1.6504353  37.8392954  17.5029221   1.2485879  37.2877188  18.1741276
   1.1571711  38.6587973  17.5394860  66.4934803  44.7432327  44.1267443
  65.9035541  45.3562021  43.6880159  66.1944772  44.7322369  45.0359821
  51.6441521  68.1549790   5.7162895  51.6301021  68.8862421   6.3337746
  52.4231681  68.3079793   5.1815405  84.0307206  17.2926207   8.7278071
  83.5856933  17.8230925   9.3887034  84.5054359  17.9273243   8.1911221
  10.6912351  64.4683695  39.8236370  10.0382519  64.9247837  40.3542328
  10.2026546  63.7660027  39.3944502  84.8140267  29.8719358  39.6847367
  85.7321518  29.8585773  39.9551058  84.6847186  30.7470608  39.3191290
  12.9928279  64.0360594  65.8920383  12.8003097  64.8368931  66.3797188
  13.3518636  64.3430614  65.0595284  37.9598427  76.1071539  69.9429369
  38.7307668  75.5443192  69.8713589  37.7124214  76.2908316  69.0366936
  34.8317099  53.1390047  68.5148716  35.2461767  53.7358046  67.8917503
  34.0824938  53.6289835  68.8537407  25.7229114  29.3376970  44.7536230
  26.3122344  28.7633491  44.2646885  24.8454738  29.0644693  44.4858885
  31.3046432  53.9532900  46.6328335  31.4047122  53.2275820  47.2489214
  32.1202087  54.4482040  46.7112112  41.0776901  38.5715103  69.4615412
  40.5054760  38.6613417  70.2235985  41.4200211  37.6797247  69.5228720
   0.0717648  45.7395091   2.5077286   0.7221325  45.9049460   3.1902828
  -0.6269590  45.2607890   2.9536429   2.8991208   9.3977111  66.3961267
   2.1353159   8.9600890  66.7720556   3.0120024   8.9878505  65.5385113
  52.3229265  44.9646282  61.3113880  51.6975594  44.2415905  61.3600111
  52.5746393  45.1251602  62.2208405  19.9574053  74.6873379  29.2330718
  20.5675840  74.9885845  28.5598969  19.1448486  74.5117760  28.7585592
  82.9352302  79.8463488  30.7197976  83.1822289  79.1120768  31.2820005
  83.2638089  80.6198883  31.1779451  48.9221174  13.7370940   0.4646292
  49.7971708  13.4516449   0.7273712  49.0174842  14.6737643   0.2920523
  56.9312668  38.5833216  63.9732599  57.1502399  39.4664836  63.6760902
  57.4198675  38.4772348  64.7894955  41.7989922  21.1079669  56.5848160
  42.3193264  21.0444236  57.3857212  41.1762714  21.8137026  56.7591238
   4.3432348   4.1145344   8.3542290   4.2870539   5.0681658   8.4147730
   3.6346238   3.7968512   8.9138546  53.0685267   9.9568122  50.3490496
  52.2659835   9.8011344  49.8511314  53.7687192   9.8991530  49.6989441
  46.3111544  55.6624269  53.9575768  45.7888460  56.2943125  53.4634638
  47.2184420  55.9071970  53.7755251   8.9500785   4.4362324  52.3317719
   8.6484444   4.4005826  53.2395077   8.1614155   4.2839059  51.8111610
  34.7448477  64.1477277  48.2715645  35.2595911  64.8342612  48.6957684
  35.2904567  63.8559868  47.5412026  73.4801699  55.0311518  63.5752630
  74.2009903  54.8803854  64.1867542  73.4468211  54.2358971  63.0435801
  68.3739814  80.2345040   3.0155220  68.0844364  81.1435153   3.0935707
  67.7328667  79.8281529   2.4323549  66.5197286  69.0414622  13.2812538
  66.5530977  68.1142452  13.0459061  67.1641311  69.1337945  13.9829960
  72.6848323   7.8033848  16.8368187  72.9017932   8.0763932  15.9454003
  73.5311491   7.6143761  17.2421017  85.0364179   0.1076479  11.5482655
  85.0226063   1.0034724  11.8852177  84.2121834   0.0190230  11.0697117
  60.9017277  62.1563578  65.9273291  60.4940748  61.9310379  65.0910997
  61.4198065  61.3848877  66.1568022  32.2480166  49.9574383   8.8213768
  32.0917672  49.1326525   8.3614340  33.1968364  49.9871536   8.9442148
  36.6298786   0.8628123  58.5276985  35.9938255   1.5745681  58.4564638
  36.1209616   0.1179450  58.8477087  29.2740417  30.6855464  66.6449213
  28.8448954  30.8170128  65.7994747  29.1129899  29.7656298  66.8547964
  17.5914299  36.7775178  68.9733267  17.5202346  36.2942338  68.1501627
  18.4365928  36.5110636  69.3351793   4.3766969  10.5421174  63.9926720
   4.4202277  11.4030850  63.5766554   3.4404933  10.3516281  64.0515709
  25.8093405  54.5006943  57.8251982  26.0233355  55.4303312  57.7463293
  25.1635289  54.4625950  58.5306835   4.0885609  63.8428926  64.1036177
   3.8012347  64.4985437  64.7390652   4.8913833  64.2067719  63.7303877
   2.8912585  36.5360661  33.1661740   3.3333867  36.4032765  34.0047016
   2.2399943  37.2147389  33.3436337   7.4553102   8.7323256   2.0067110
   7.5111144   9.6431608   2.2956600   6.6827887   8.7070723   1.4420786
   2.0956367  35.3398724  37.4673214   1.9006484  34.4580717  37.7845612
   2.2596329  35.8491488  38.2610264  76.8534574  79.8473933  17.9242745
  76.6892395  78.9574482  17.6124039  77.6111946  79.7623994  18.5029259
   9.9180859  24.7229004  63.5931015   9.5851111  24.3970680  62.7569246
  10.8591127  24.8268414  63.4520531  56.5167389  57.4889519   0.7585802
  57.1806583  57.9564908   1.2653818  56.5280852  57.9127505  -0.0996170
  65.9170279  63.6043980  22.6001969  65.2191624  63.4415033  21.9656220
  66.5860424  62.9518487  22.3932495  60.4819188  66.2385538  37.0593014
  61.2223348  65.6563714  37.2298374  60.8444032  66.9317677  36.5076771
  23.4995008   4.5989865  43.7432194  23.5005903   3.6988217  44.0686941
  24.4216371   4.8556736  43.7456608  48.1685561  28.4726925   5.5516186
  48.9724708  28.0920525   5.1979676  48.4138954  29.3646212   5.7975950
  33.8786095  18.6874695  12.7056732  33.1327170  18.5804005  13.2959404
  34.0377729  19.6312065  12.6895848  65.6314427   0.3969021  31.8190232
  65.5731261   0.5188961  30.8714237  64.7466422   0.1444693  32.0829144
  50.0810895  45.7503577   2.4974385  50.4746756  45.7689812   3.3697787
  50.3038797  46.5995254   2.1159783  28.8134783   9.3225975  24.3179074
  28.4367626   8.6679859  23.7298527  28.1829327  10.0427265  24.3100682
  19.9599791  69.6590996  60.8827686  19.1013265  70.0142241  61.1126232
  20.5113626  69.8566866  61.6398525  65.8363080  14.1392107   2.1682539
  65.1577110  14.2998190   1.5125504  65.7926244  14.8987408   2.7491465
  35.4065744  64.3594212  51.4556932  35.4187290  65.3157491  51.4946842
  36.0437290  64.0847106  52.1150875  30.0500512  45.8351469  47.0041323
  29.8501348  46.6755724  46.5918779  29.4858551  45.2069712  46.5532398
  25.2799892  35.4283881  55.1697874  24.4299531  35.6215596  54.7743702
  25.9182048  35.6980610  54.5093393  46.6171918  62.0608189   4.1133919
  46.3701949  62.9725959   4.2679348  47.2650740  61.8699172   4.7916498
  56.5860591  52.1696117  17.0243874  56.2840590  51.9888403  16.1342468
  56.2102804  53.0241826  17.2358837  45.2941149  12.3688765  34.6746388
  46.1613529  11.9637652  34.6709671  44.9222725  12.1310587  35.5240002
   4.3923038  42.0115967  10.1787749   4.2877811  41.1527462   9.7692719
   5.2565473  42.3089619   9.8943701  15.1445501   0.8747788  19.9087181
  15.6491535   1.6371222  20.1923218  14.6212023   1.1939545  19.1735497
  77.4401230   3.5305949  36.5955677  77.1728391   3.6442251  35.6834927
  77.8768415   4.3519135  36.8212738  12.6346748  30.8512183  32.2981491
  12.2027271  31.5959139  31.8797245  11.9200533  30.2558728  32.5242176
  53.3828363   4.3995803  46.0757875  52.7972183   3.7913649  46.5267372
  52.7995262   4.9535315  45.5570269  71.7235321  30.0890322  23.3649674
  71.5016634  30.8449717  22.8213158  72.4721927  30.3799458  23.8856449
  51.2710524  27.8625107  67.4774313  50.4354143  28.2158375  67.7825546
  51.2716055  28.0289793  66.5348148  54.7610625  16.7059679  11.8485394
  55.0473427  16.2083359  11.0826149  54.9878860  17.6129837  11.6433468
  34.5053482  46.1462831  49.5473576  33.6209345  45.7914972  49.4569492
  35.0779748  45.3822327  49.4798231  31.4992070  36.0031796  62.4665737
  31.3517094  36.9476390  62.5162840  32.1804357  35.9018135  61.8018293
  73.5593731  18.3682080   2.7435198  73.5193640  17.6805373   3.4081497
  73.6318237  17.8958197   1.9141665  26.6130280  31.3170695  61.2314081
  26.7227387  32.1485758  61.6927004  27.0121074  31.4643979  60.3739309
  66.4958901   0.2050991  10.6635418  67.4239332   0.2500172  10.4334393
  66.1195147  -0.3994136  10.0239029  57.5107345  77.6256492  12.7857914
  56.7759046  78.2252934  12.6566162  58.2884345  78.1737235  12.6807823
   2.2692914  34.4587469  41.4383030   2.7208599  34.3838692  42.2789669
   2.8829342  34.0897131  40.8030987  24.7068191  50.4035950  58.1894207
  24.1335702  49.6511745  58.3359814  24.8603487  50.7616282  59.0637636
  15.0043505  19.4330759   0.4810229  14.3392199  19.0115710  -0.0631914
  14.6207779  19.4501896   1.3578406  13.7701225  18.4169054  51.9759226
  14.4117200  18.3475506  52.6828671  13.7064397  19.3559313  51.8015432
  60.0112635   2.5789995  15.8323422  59.9063105   1.7091866  15.4468003
  59.6216694   2.5034876  16.7033997  82.9126866  49.7612333  63.1549835
  82.1977309  50.3452635  62.9020357  82.8691051  49.0422869  62.5245523
  23.2555366  38.7520242  46.8510485  22.7271295  39.5471907  46.9198179
  22.6177406  38.0384564  46.8674517  30.2992675  72.9563715  17.0068016
  30.9811685  73.2849195  17.5927201  30.4446142  73.4238198  16.1842480
  30.9136880  64.4290736   9.6162405  30.8524496  63.5613468   9.2168274
  30.7787438  64.2725947  10.5508747  84.2418141  41.0273667   3.9116755
  83.4497995  41.4986344   4.1702309  84.5897121  41.5297814   3.1749335
  44.0793118  67.5981381   2.5696364  43.3980939  68.2539728   2.4211350
  43.7831137  66.8302443   2.0809260   6.8474906  21.5527172  19.8869553
   7.3772042  21.1945076  20.5992260   7.4866574  21.8541022  19.2413082
  50.0770569  39.5861220  64.2883730  49.3466282  39.0303230  64.0167236
  50.1271677  40.2627611  63.6131811  61.2961340  37.4646473  60.4265594
  60.5977392  37.1059990  60.9741402  61.8919849  36.7288399  60.2859068
  18.6167612  79.0555956  55.5314445  17.9943838  79.6330714  55.9734917
  18.4763184  78.1987775  55.9343958  34.9907348  62.3255374   0.2289906
  34.9318484  62.9150703   0.9807959  35.8305887  62.5390270  -0.1775799
   9.0157157  38.1666899  39.0536571   9.8300201  38.6221862  38.8399673
   8.5905653  38.7277198  39.7022915  53.6955008  75.3862145   0.2024355
  54.4483528  74.8824289  -0.1068315  54.0201888  75.8542826   0.9716644
   1.5307053  72.1545794  21.7377033   2.2366818  71.5987256  22.0676365
   0.8732613  72.1449234  22.4333420  68.3700904  54.4270983  26.3384190
  69.1411647  53.9106503  26.1039868  67.8523216  53.8453486  26.8949356
  12.4223089  61.5439606  66.4440060  13.1917393  60.9753227  66.4146185
  12.7662575  62.4212360  66.2757492  30.0850582  31.1862612  59.2323971
  29.3774724  31.7982388  59.0298223  29.6382213  30.3749537  59.4739580
  16.5255642  42.9308367  60.3460550  17.2746325  42.4922132  60.7494593
  16.8578351  43.2489204  59.5066166  75.8740911  60.1529064  24.5789280
  76.3601360  60.7535198  24.0138951  75.2239952  60.7054784  25.0128212
  17.6948750  57.5319099  42.3033047  17.0730352  58.1873417  41.9871473
  18.2355666  57.3271322  41.5404510  68.6077032   5.8135741  63.6635685
  68.1139645   6.0587542  62.8810453  68.2713709   4.9485438  63.8977242
  46.7738342  70.3343773  62.3483038  47.2999525  70.0103474  61.6172504
  46.4819956  69.5438290  62.8022814  11.9052570  44.4990940   4.4625607
  11.2513273  44.1623516   5.0751057  12.2673863  43.7174912   4.0452042
  16.6794693  24.8028445  16.0641921  16.9121981  25.6835032  16.3583207
  16.1265254  24.9452281  15.2959394   6.7717046  28.2941270  27.3749661
   6.2893039  29.1013360  27.1962595   6.5618527  28.0862713  28.2854557
  60.9821147  11.5394135  15.8354225  61.0267571  10.8695908  16.5177479
  60.0459517  11.6501637  15.6693974  67.6425761   3.5137911   1.7884579
  67.1711416   3.1717892   2.5480786  67.1019525   4.2402096   1.4781800
  39.7679567  28.6055493  59.9743032  38.9552498  28.1377149  59.7822905
  39.4876122  29.4962811  60.1846266   4.9308961   2.2030945   6.3898268
   5.0284236   1.5086289   7.0413151   4.8818176   3.0088587   6.9041863
  25.0119227  36.1546631  22.9423752  25.5667942  35.4320355  22.6488342
  24.8230713  35.9545059  23.8591614  37.8518772  61.3659906  45.0498915
  38.4194851  61.5938330  45.7861948  38.1086898  61.9704199  44.3535137
  70.7825336  74.2487481  31.9111767  70.3008470  74.9536660  32.3439541
  70.1171789  73.5890415  31.7154255  57.7211747  61.4263895   9.4879952
  56.8708572  60.9965947   9.5800200  57.5175295  62.2816470   9.1094485
  76.3464794  76.7204168   1.4309302  76.6591749  76.0778358   2.0677510
  76.9078741  77.4839070   1.5656605  50.0553131  61.0047960  54.8601103
  49.1505909  61.1221313  55.1498461  50.0696087  61.3578224  53.9705038
  83.4459266  68.3319857  24.0827027  83.2511530  67.9709961  23.2178440
  84.4019518  68.3388545  24.1296234  17.6417911  45.8403349  59.9485779
  17.9224944  45.5982780  60.8311033  17.2585881  46.7116404  60.0496674
  55.3723001  34.2271733  68.6334658  55.8936691  34.7953677  69.2005301
  55.5976963  34.5034170  67.7451420  81.3937442  20.8628774  31.0511780
  81.5122409  19.9546194  30.7732248  81.9288914  20.9434962  31.8407035
  33.8251472  30.3387380  35.7984114  34.4687533  29.9348927  35.2162480
  33.4147692  31.0200858  35.2658820  34.9771070  48.5135031  50.6445789
  35.0205922  48.2702827  51.5693378  34.5762253  47.7569866  50.2165461
  44.5925045  43.1314707  62.8494310  45.2442646  42.4314117  62.8862429
  44.2053699  43.0526876  61.9775677  44.5066855  51.7928758  13.0735817
  43.8301239  51.1391928  13.2502022  44.9437484  51.4775016  12.2825470
  18.3195126  76.4568806  35.7222152  18.3015168  77.1633482  36.3678265
  19.2479479  76.3402271  35.5206418  35.0297618  63.7979364  42.0105600
  35.8419609  63.3480978  41.7777252  35.1454496  64.6882629  41.6786528
  33.7850070  49.2782784  63.8667583  33.3734608  48.6618757  64.4724894
  34.6720195  48.9393568  63.7460375  59.1764745  68.0063107  15.5250874
  59.4825658  68.2925990  14.6645107  59.8628363  68.2886984  16.1295643
  37.2498870  52.1748590  61.4656544  37.1635437  52.4352503  60.5486059
  38.0641174  51.6725445  61.4963579  12.5240200  27.9077072  22.0193043
  11.9307106  27.1656342  21.9029179  12.8019159  28.1336899  21.1316433
   9.7679114  24.7590899  32.9116869   9.0967357  24.0771103  32.8860474
   9.4962728  25.3877378  32.2429228   6.3158053   1.6685744   1.9180527
   5.4684465   1.3350077   2.2129240   6.5182512   2.3793478   2.5263682
  56.6679916  46.5022340   6.3510456  56.9977555  46.6108992   7.2430554
  57.1183810  45.7242169   6.0223046  20.1194263  68.7020063  49.9657679
  20.4122329  69.0675926  49.1309929  19.2722869  69.1180468  50.1254606
  50.5057144  17.8874934  53.8689423  49.7225332  18.0737102  54.3868017
  51.0507441  17.3501098  54.4437408  19.8538649  30.1675105  65.8807278
  19.2049694  29.9832487  66.5598536  19.4343936  30.8194232  65.3192282
  29.3998337  33.4674644  53.6285353  29.4842482  32.5658512  53.9386940
  29.8873210  33.9872313  54.2676210  43.0547938  74.6937563  39.0341702
  43.8953933  74.3519380  39.3387737  43.2158038  74.9515774  38.1265106
  32.0380163  18.4171331  21.0292673  32.9714775  18.3118057  20.8454466
  31.9016242  17.9482281  21.8525290  84.7283653  44.6163940  48.4247112
  84.9337395  44.9724770  49.2891502  84.5198451  45.3843307  47.8927088
  52.0298156  71.9008925  15.9463539  52.5296268  71.1826637  15.5583229
  52.6270160  72.2907760  16.5847626  21.4769411   3.1474224  46.6233587
  20.5909634   2.9553723  46.9305849  21.4102578   3.1218109  45.6688261
  19.3735301  46.8329906  45.0831509  19.2688346  46.7000914  46.0252810
  20.1554298  46.3298607  44.8557234  37.0670891  45.2817392  63.2435179
  37.7211499  44.5855665  63.1820107  37.4405313  45.9070349  63.8646317
  76.2205363  47.0897484  46.2958574  76.0207648  47.9347849  45.8930683
  75.7553197  46.4509916  45.7556772  15.1701897  28.6788292  32.4562969
  15.8183497  28.1256600  32.0202580  15.6890743  29.3387385  32.9162064
  23.2289362  23.0790710  59.8404980  23.4555221  23.8672280  59.3468428
  22.6680017  22.5784111  59.2481089  62.5110254  67.7402403   9.7165814
  63.2695207  68.1152394  10.1641216  62.8250513  67.5482347   8.8329783
  38.0729938  35.4828119  55.8583641  37.1300006  35.3675151  55.7413101
  38.1707025  36.3950753  56.1312389  56.2506723  56.5782738  66.0346889
  56.6816235  57.4316645  65.9874392  55.5135679  56.6482687  65.4280519
  19.8005497   0.7134333  48.0640793  19.0669274   0.0989198  48.0841732
  19.4166207   1.5348193  47.7572298  17.2139380  10.0480788  36.8618345
  16.9778154  10.9395449  37.1183109  17.6088569   9.6695273  37.6473069
  13.6456966  54.1292953  48.9695168  14.1674423  54.1363287  48.1670475
  12.7561271  54.3299484  48.6785936  12.6209378  36.4363194  53.2973576
  11.8194985  36.7626953  53.7065077  12.5926316  36.7825246  52.4054098
  43.0766043  66.8115261   5.0737801  42.3912367  67.3439290   5.4775753
  43.1757078  67.1756628   4.1941157  63.0267772  63.3782437  42.5520077
  62.5565920  63.9470627  41.9424095  62.3871026  63.1791069  43.2356682
   9.4134816  62.5535657  16.1077919   8.8744029  61.8002274  15.8667317
  10.2144631  62.4490502  15.5942383   3.7418380  25.8085561  53.0553770
   4.0148583  26.5530205  52.5192213   4.5418715  25.5265951  53.4988594
  67.4732623   2.1970218  61.5138817  67.4034676   3.0368846  61.0600090
  67.3920593   1.5424388  60.8202267  23.9261031  30.8464432  56.0035706
  23.3220077  31.4728451  55.6049204  23.6681461  29.9997520  55.6391430
  80.6954426  11.9220228   6.5004578  80.8810944  12.6584502   5.9178438
  80.2798623  12.3204584   7.2651615  24.4852274   3.4280415  26.1069336
  24.3518417   2.7907391  26.8085709  25.4334801   3.4470911  25.9777584
  35.7717657  54.6612120  49.8849154  36.7282867  54.6790934  49.9161768
  35.5426908  55.2900219  49.2005539  33.7225747  48.4045649  55.8279133
  34.5135427  47.9311562  56.0857582  33.2139587  48.4788513  56.6353893
   4.1563233  78.2667329   9.3473425   3.9124783  77.4515703   9.7858372
   4.5721777  77.9852297   8.5324469  57.1927938  76.2535145  30.3022328
  57.3240790  75.8269956  29.4554367  57.3474655  77.1821549  30.1292172
  70.5337820  76.5443113   0.3019133  71.2852630  76.2210562   0.7989159
  70.0201664  75.7603648   0.1073446  43.5530710  44.4833279  56.3408470
  43.3573008  45.0889921  57.0557404  43.0331421  44.8057079  55.6046534
  21.6301346  64.6596861  67.4171066  22.1807718  64.6988773  68.1990862
  21.6508389  65.5494356  67.0647573  75.1724095  33.7176247  39.9913922
  74.8253733  33.1331368  39.3174687  74.5681149  34.4599171  39.9989739
  11.3323593  68.0965137  60.3678179  12.2708178  68.0540848  60.5514717
  11.0720181  67.1844387  60.2391005  19.4867857  74.9555423  10.9941712
  19.5984419  74.4896963  10.1654663  19.7775992  74.3325880  11.6601887
  36.4670682  49.5960474  45.4440928  35.7609439  50.0995350  45.8492088
  37.2691822  50.0189257  45.7507229  64.2278099  64.3825197  56.9403601
  63.4077024  63.8910770  56.8941593  63.9864397  65.2750921  56.6928101
  49.8052502  55.6435728  53.9343643  49.7853804  55.6967783  52.9788494
  50.3851032  56.3565969  54.2019415  14.9885576  63.6327286  27.6070538
  14.5956915  63.7760086  26.7460385  14.6741694  62.7686234  27.8729763
  17.4320361  73.2768800  47.7417507  18.0622193  72.5647404  47.6324024
  16.9523558  73.0519226  48.5389557  31.6034763  32.4279089   0.0047293
  31.7160719  32.7196665   0.9093991  32.4734848  32.1299954  -0.2608976
   1.4249557  37.9866572   9.9055090   1.1934059  37.0595284   9.9607125
   0.6958049  38.4411640  10.3274002  57.0553884  63.7365200   8.3545437
  56.1003193  63.6886647   8.3122959  57.2941217  64.3645766   7.6727905
  73.7544593  74.5702126  25.0805512  72.8429994  74.5587113  24.7884217
  74.2525491  74.8176863  24.3015137  12.2522085  27.1138640   4.0263357
  12.9812067  27.7232332   3.9103022  11.8293398  27.3978348   4.8367539
  80.5544099   3.7356513  61.2081099  79.6864280   3.6752456  61.6071033
  80.9410200   4.5218890  61.5935850  75.1538229  69.7823715  39.3795061
  74.7596359  70.3736162  40.0208139  76.0758209  70.0381851  39.3528867
  36.2580412  33.5295983  23.7417069  36.5232819  32.8684349  23.1023827
  35.8036583  34.1944380  23.2242527  28.0625250  77.7440479  29.1133347
  27.6318903  78.5199788  28.7545624  28.1510033  77.1522429  28.3662262
  33.2807970  46.2216997  60.9195805  33.9581013  46.1117458  60.2521944
  32.6853323  45.4853582  60.7801008  29.5558470   0.9924956  43.2972851
  30.0464504   1.4072676  44.0068665  29.0847509   0.2742739  43.7197247
  41.7350578  68.1161737  45.4205084  41.5803814  67.2496080  45.0445127
  40.9249544  68.5978603  45.2533579  37.6803350  64.7126484  38.7251544
  38.4405923  64.4605303  38.2010555  37.5374031  65.6347275  38.5116911
  48.3118531  77.5531580  26.4242878  48.0259738  78.3579090  26.8565884
  47.8089068  77.5268700  25.6102982  21.7984503  24.6549864  16.3452568
  22.0020931  25.5824394  16.2244740  22.1235912  24.2328425  15.5500736
  16.8609779  18.6002322  25.0842896  16.4936417  18.5554381  24.2015209
  16.2488669  18.1000586  25.6240883  28.5098481  73.9678860  59.3538952
  27.8879237  73.2915545  59.6222544  28.8080859  74.3585348  60.1752806
   2.0013225  40.2321577  41.9076395   1.6415122  40.2998066  41.0232210
   2.7221128  40.8618355  41.9217825  76.6144809  13.8750403  49.9552298
  77.1126709  14.3646186  50.6097174  76.4685545  13.0184691  50.3567600
   7.2880619  42.5869484  10.6854191   7.5670570  42.8990860  11.5462151
   7.5721114  43.2709046  10.0790014  41.3959616   7.1736737   2.2446575
  41.8648642   7.7715416   2.8268233  41.9076937   7.1765394   1.4357367
  67.2756702  20.4716702  59.1080418  67.8723461  20.3073712  58.3778324
  67.7994282  20.9656449  59.7388401  16.1624193  57.9810095  56.8329048
  16.2907505  57.6487684  57.7213764  16.8526614  57.5623274  56.3186026
   5.9625300  13.1746714  34.8969746   5.3419360  13.3629172  34.1929483
   6.7233332  12.8011744  34.4521022   5.3107506  67.1159887  69.1764784
   4.6755251  66.5688705  68.7145472   6.1076105  67.0545816  68.6497211
  57.2121462   2.1066993  55.5928850  56.2818989   1.8938964  55.6676292
  57.6065502   1.3244670  55.2071524  54.4542980  66.5031958  45.8618641
  53.6204338  66.0885525  46.0831642  54.5639563  66.3359833  44.9257851
  28.6422205  47.0787716  52.6224899  28.1316638  47.3555326  51.8615913
  28.0814743  46.4446974  53.0694199   7.9720028  79.2126300  14.7356739
   7.3521431  79.3222859  14.0145817   8.1046208  78.2665660  14.7957459
  20.0699156  12.3119135  10.6542816  19.4666594  12.7915592  10.0866070
  20.1167029  12.8377743  11.4527264  36.3555551  69.9859047  39.2869067
  36.8471503  69.4995308  38.6250854  35.6841850  70.4540491  38.7905884
  34.5718408  68.7395763  29.8667884  33.8108301  68.6082029  29.3012476
  35.3214860  68.5149240  29.3156123  78.1328926  66.1385133  11.3564244
  78.1690321  66.3560464  10.4249706  79.0209398  65.8522990  11.5701714
  47.3051357  74.1701508  55.0822878  48.2277775  73.9502954  55.2112389
  47.3210192  74.9889803  54.5868063  84.7645444  51.4500923  17.3531189
  85.6239671  51.8456383  17.4986019  84.8695797  50.9369583  16.5519371
  38.5104036  65.4321623  62.1427393  38.5635424  64.4925737  61.9678783
  38.2692289  65.4904747  63.0672216  79.6968216  14.3312855   3.3402195
  79.9532789  14.6309061   2.4680462  78.9422888  13.7628575   3.1859389
  11.4541762  50.3495140   9.8386803  12.1728247  50.2196903   9.2198696
  11.3540047  49.5012970  10.2707901  39.0564895  60.3768253  39.4760895
  39.4894123  60.4339123  38.6242962  39.7398090  60.6015539  40.1075983
  72.7405137  14.7093363  26.7190113  72.9302246  13.7711306  26.7162934
  72.1586758  14.8338719  27.4688091   8.4536868  74.7684097  51.2417555
   7.5149798  74.6403694  51.3783884   8.6730045  75.5275345  51.7819929
  34.4482723  77.8310015   8.5251560  35.2687982  78.2877209   8.7105694
  34.4419685  77.7266171   7.5736847  58.1561995  27.6071668  64.8640585
  57.8954411  28.2986569  65.4723930  57.4033499  27.5037527  64.2820311
  13.7048071  23.9550896  11.3153401  14.4195574  24.5533867  11.0976162
  14.1178578  23.0924530  11.3538113  43.7433434  49.3963099  45.4600191
  44.0482759  48.9553356  46.2529802  44.3111372  49.0610933  44.7661352
   5.9320705  34.8035498  26.3013115   6.6080897  34.1431017  26.4531269
   6.3422959  35.6295080  26.5577069  27.2856236  78.4494352  58.8744450
  27.2861624  77.5394154  59.1712427  28.1684923  78.5903692  58.5325193
  68.8752470  13.3933776  57.3558331  69.2411432  13.3935683  58.2403421
  68.6082706  14.3004458  57.2068882  75.0953913  49.5562172  44.9779701
  74.6488285  49.2737865  44.1798210  75.1315117  50.5101347  44.9074507
  42.5720930  79.9616432  55.8331013  43.3760071  80.2080250  55.3756618
  42.4021292  80.6914616  56.4286757  63.6391697   3.0790847  45.8754587
  64.1586957   2.2754901  45.8518505  63.0106291   2.9790347  45.1605034
  10.9356058  54.7910643  36.2003493  10.9545517  55.6800270  35.8459210
  10.7453287  54.9083090  37.1310925   3.2162374  66.8380070  43.8344669
   4.0446889  66.7914200  43.3572578   2.5690693  66.4809895  43.2262373
  77.1741152  50.8738565  59.6467352  77.5510406  49.9953985  59.6964836
  76.7697668  50.9122562  58.7799835  36.9706917  61.0839558  35.7703066
  37.8300309  60.9280014  36.1620283  36.4617038  60.3039455  35.9910893
  55.2641186   0.1701682  56.5604258  55.3392944  -0.5149419  57.2246647
  54.3905840   0.5381530  56.6936827  66.6103888  71.6272974  64.7414589
  66.5583992  70.6820297  64.8828602  65.7469320  71.8669844  64.4049692
  17.0936030  18.4794827  11.6206112  17.7616041  19.0282460  11.2096729
  16.3534992  19.0694924  11.7633190  45.3458691  45.8108616  49.0382242
  46.0522652  45.2098942  48.8014221  44.9130583  46.0106754  48.2081747
  80.4949436   4.5406668  67.1958923  81.1826048   4.1568702  66.6517830
  80.2040586   5.3103011  66.7067432  65.4337508  46.0088654   9.8342171
  65.7538075  46.0302182  10.7360687  64.9934495  45.1625176   9.7563114
  51.6293177  79.5530298  32.8848400  52.4997196  79.4089057  33.2561341
  51.7731914  80.1748302  32.1714726  59.1536984  21.1259883  63.8512850
  59.9782595  20.8672183  63.4397459  58.4785876  20.6973117  63.3252764
  44.0692160   2.7670234  58.8351536  43.4653840   2.7685588  59.5778608
  44.4974467   1.9119494  58.8763952  61.2724447  43.1836224  64.5230341
  61.4791775  42.6100063  63.7851572  60.4314709  43.5778809  64.2916250
  14.2071331  51.1479759  64.7257090  13.4513116  51.3547754  64.1759825
  14.3979156  51.9643879  65.1875639  83.6564216  17.0968383  65.5091333
  84.4447908  17.1395629  64.9679518  83.0650529  16.5199130  65.0257397
  54.2783850  31.9986315  16.5744724  54.2955034  32.7213497  17.2018662
  54.2951315  32.4248762  15.7175770  46.0806101  24.2530079  37.8118458
  46.8316429  24.8319741  37.9421368  46.3360565  23.4313031  38.2311096
  45.0596350  57.3982544   4.4573107  44.8421352  58.2143994   4.0069428
  45.0005930  57.6150627   5.3877630   0.9797331  67.6126003  41.6837215
   1.1416945  68.5494947  41.5731382   1.7196991  67.1886683  41.2490177
  57.1892606   2.7124996  15.4226914  57.0949491   3.2768841  16.1900273
  58.0807684   2.8746529  15.1142254  21.1136603  60.4028988  69.2350912
  20.5467772  59.6348715  69.3058586  21.7223740  60.3197479  69.9691105
  40.4163122  78.7280369  30.3888178  39.9893403  79.3757963  30.9494734
  41.3007975  78.6480331  30.7459211  81.8518705  50.8981247   4.7671690
  82.2330350  50.4025669   4.0423479  80.9116096  50.7304879   4.7036257
  58.4687567  65.4659081  53.1656599  58.0247784  65.8314991  52.4005079
  59.2939472  65.1229715  52.8226089  31.6468406  61.3593054  53.2438231
  30.8500838  61.2135983  53.7539005  32.3226833  61.5318584  53.8993359
   8.9143222   5.2672119  11.3290444   9.6369260   5.7494374  10.9271279
   8.8428443   4.4662066  10.8098927  19.7898972  54.9577093  52.6036453
  20.0348043  54.0463591  52.4433517  19.9361956  55.0836897  53.5411739
  55.3348398  66.4207888  62.6995611  55.5637360  67.0377636  63.3946753
  55.2721453  66.9603920  61.9114447   9.8842537  52.2118521  64.5348120
   9.5121711  52.2894859  63.6563110   9.1564989  51.9077444  65.0771427
  81.8394417  20.0536366   2.0727005  82.1661872  19.1539784   2.0821467
  82.6023454  20.5878659   2.2936239  69.7595138  11.4580174   0.6878367
  69.1979951  11.9135065   0.0605717  69.5460898  11.8546887   1.5324297
  37.0272558   2.1555586  10.9416523  36.9166391   2.9704638  11.4314690
  37.5375765   1.5932246  11.5243950  81.0407371  32.2272749  39.4648876
  81.2349600  33.1255980  39.1974488  80.7748360  32.3023863  40.3813400
  17.7568873  78.9721849  18.8580647  18.3753499  78.5796907  19.4742527
  17.5600680  78.2709982  18.2369080  16.2479752   7.4487944   2.3671427
  16.9547098   7.7291031   1.7856112  16.2478464   6.4938851   2.3009434
  19.3750012  73.5041666  60.4947758  19.5950031  74.4196701  60.6670523
  19.6745360  73.0352068  61.2736177  38.5785604  46.7504930  46.2870264
  38.6635399  46.5717077  45.3505182  39.0551591  47.5701094  46.4186096
  14.9462717  52.5221653   8.6756077  15.6299179  52.3004456   8.0433884
  15.0504940  51.8787403   9.3765869  77.8723401  15.6520148  31.8583718
  77.9150552  15.4045553  32.7820435  78.7217468  15.3925915  31.5013828
   7.6524027  75.2950885   1.1686316   8.1838664  74.7997811   0.5453816
   8.2428511  75.4691484   1.9016447   1.3077468  73.0593777  64.0538883
   0.9981608  73.0704689  63.1482029   1.6718435  73.9335871  64.1932678
  76.3432455  59.3262434  67.4277258  75.3972149  59.1929436  67.4867964
  76.4388371  60.1873446  67.0207882  28.7080216  35.8657432  69.6550417
  29.2706180  36.6336823  69.7549868  28.1518602  36.0724068  68.9039040
   7.4512165  29.5780821  18.4488716   7.2244471  29.0029354  17.7181092
   7.4658554  29.0008946  19.2123261  58.2845640  44.7633982  47.3421192
  58.8603020  44.0158558  47.5031567  58.4001064  45.3243017  48.1091070
  34.0264222  77.7628901  22.2947445  33.8783482  77.7200582  23.2394543
  34.6241936  77.0377495  22.1128884  14.8963373  44.7879811  27.6153221
  14.5577829  43.9241047  27.3800984  15.4831284  44.6224804  28.3532372
  15.8687561  19.2114134   6.6553774  15.1061695  19.6721144   6.3054457
  15.6167954  18.9746971   7.5479641  60.0019321  80.1532748  24.1551247
  59.9414143  80.5515935  23.2868424  60.0961671  79.2164376  23.9828243
  53.8815325  15.1367541   1.8868246  53.9812296  14.1862364   1.8338337
  54.0925329  15.4491301   1.0069742  15.5545204  13.5864802  27.3788872
  15.2225035  13.2353373  28.2051411  16.4213722  13.1922121  27.2821846
  43.6182468  36.3413687  24.6892395  43.3789175  36.4447279  25.6102505
  44.1632145  35.5546780  24.6702137  34.7547405  28.5835858   4.6313658
  35.1301306  28.7429686   3.7653914  35.2616661  27.8507633   4.9809780
  51.1749730   8.6590426  48.4673309  51.5856299   7.8492492  48.1643152
  50.3059444   8.3900492  48.7650871   3.4621327  34.2939539  16.0257759
   2.5799459  34.2455025  15.6574955   3.9847344  34.7120495  15.3414383
  41.7901966  15.7647460  39.9901891  42.0969424  16.5671008  39.5678616
  41.3802728  15.2643531  39.2846370   6.3709688  62.4881506  55.2400875
   6.5953904  62.8146029  56.1114597   6.4966285  63.2410717  54.6625471
   0.8411608  36.9020963  43.5785723  -0.0624850  36.8872976  43.2632351
   0.8756210  37.6526451  44.1716337  39.7042042  12.4712105   5.5315581
  40.1941771  12.3180075   4.7236672  39.4252748  13.3849879   5.4728785
  49.8695803  56.2059832  51.3233995  50.0938988  55.5738735  50.6405020
  50.3935671  56.9795084  51.1152315  29.7412395  61.5739870  58.0583143
  29.5374131  61.9835663  58.8991022  30.0426054  62.2960663  57.5069427
  54.5114717  61.7767432  12.2402420  54.0548095  62.3624041  12.8441372
  53.9875207  60.9756782  12.2412720  21.2042880  49.4162035  57.3643827
  20.3601813  49.0582228  57.6392698  21.8187428  49.1251373  58.0381441
   8.4858090  58.2211924  47.0243454   7.9313469  58.0081129  46.2737465
   8.4666932  57.4332952  47.5675678  52.0261097  60.5356646  63.9495802
  52.0133877  60.4926300  64.9057293  52.5746202  59.7975826  63.6838818
  27.1306276  77.6202345  65.4421473  27.9317975  78.1165886  65.2748299
  27.3911190  76.9513226  66.0753345  74.8427147  37.4842901  13.3440819
  74.3556613  38.3082886  13.3500805  75.7621783  37.7496834  13.3245125
  68.2019962  27.3993158  66.3737488  67.9515899  28.2080722  65.9271622
  68.4390045  26.7989254  65.6669283   9.3156212   7.3809977  24.9633255
   9.5542043   8.1395693  24.4305172   9.3892019   7.6898785  25.8663216
  17.1730517  69.4213343  53.4458971  17.3518180  70.2040911  53.9670229
  17.5125693  69.6302652  52.5756693  64.2873001  40.6978083  62.9071903
  64.9939489  40.6893253  62.2615814  64.6466827  41.1840105  63.6492682
  49.0619526  60.6557968   9.4314232  48.8266739  60.4951503  10.3452435
  49.7135267  59.9840846   9.2302122   9.2575848  74.9003458  33.8357472
   8.7159878  75.4181194  33.2400823   9.9287909  74.5131540  33.2737875
  11.0064450  72.1282435  36.8230653  10.9702173  72.9818208  37.2547197
  10.0973740  71.9383193  36.5912151  45.1173878  52.4567652  62.0248365
  45.7123613  52.0146847  62.6304770  44.4221020  52.8046083  62.5832415
  44.7760790   3.3739777  13.4920826  45.5632465   2.9629774  13.8494053
  44.0558880   2.9813690  13.9854565  18.0030608  42.8893280  37.8912497
  18.3673954  42.0616770  38.2050729  18.5141242  43.5619736  38.3413577
  59.4360304  52.3694801  61.7301798  59.2955875  52.6219702  60.8176231
  60.3592110  52.5631094  61.8929052  14.3293303   9.6229430   1.4841213
  14.1190737   8.7095185   1.2900009  15.2373999   9.6007462   1.7860260
  39.9703026  76.3656235  58.8259268  40.2351904  75.4576254  58.9728928
  40.7918692  76.8567610  58.8195848  30.3422906  73.7467959  13.5095921
  31.1179123  74.1490247  13.9005509  30.3342389  74.0685656  12.6081314
  21.4248872  52.9508209  68.4858274  21.0359883  53.5967922  67.8961563
  22.1719956  52.6019287  67.9996872  41.4664507  76.7633629  26.5747380
  41.1785650  75.8869553  26.8302155  42.2687721  76.6154671  26.0740995
  72.0270786  76.2693527  12.7019634  72.1700534  75.7042935  13.4612408
  72.6645431  75.9670999  12.0550385  43.1250462  72.9614809  24.6627465
  42.9211173  72.0795848  24.9740448  44.0554604  73.0748417  24.8569336
  73.6145735  24.7629857  69.8104811  73.9163399  25.6518722  69.6232653
  72.6605701  24.8170352  69.7539616  17.6002329  18.9399405   2.1922055
  18.4577578  18.9035578   2.6159468  17.2461193  19.7936936   2.4410906
  64.0837890  34.4278593  12.6636162  64.5070053  33.7110920  12.1909943
  63.1475097  34.2887278  12.5212994   1.5830153  22.1794815  24.8498955
   1.6279548  21.3263436  25.2816048   0.7607740  22.1571751  24.3603459
  13.0804741  14.9661148  51.9273424  12.5561523  15.2549803  51.1804342
  12.9886878  14.0133309  51.9302368   9.2229670  59.3793316   0.5994930
   8.4455174  59.7552986   1.0123482   9.2136782  59.7288246  -0.2915725
   8.7958425   2.8447981  30.5273667   9.5634573   2.2740288  30.4924431
   8.2663911   2.5804587  29.7750225  25.3583735  44.6180458   0.4140272
  24.5892876  45.1802273   0.5072775  26.1006468  45.2220078   0.4363384
  17.8214901  33.7529297  38.6218968  17.3399323  33.0151291  38.9960518
  17.9071682  34.3743773  39.3448773  36.8386922   9.1859954  62.3964405
  37.1945665   9.5675795  61.5939617  37.5970873   9.0890258  62.9723454
   3.8069218  37.3028012  16.1606159   3.0455487  37.4471684  16.7224922
   3.4439557  36.9331856  15.3557148   1.0405129   1.2493677  25.2376881
   1.5986007   0.4785509  25.1346531   1.3878577   1.6950054  26.0103359
  67.6873684  41.3837528  65.1346827  66.7339945  41.3234568  65.1952982
  67.8462410  41.8472767  64.3124056  10.8008211  34.3972178  10.3158322
   9.9317234  34.1613884   9.9913588  11.0987824  33.6203022  10.7889691
   4.1259497  48.7077256   6.9963923   4.7779816  48.1771965   7.4542418
   4.4493812  48.7612553   6.0970822  83.0974740  10.0799961   9.7428932
  83.7488431  10.0440903   9.0424195  83.6133188  10.1463146  10.5464688
  31.4792940  77.3629453  18.4659424  30.9548134  76.6322973  18.1383648
  30.8900011  78.1163337  18.4289112  42.1264315  46.0786057  54.7239065
  42.7058411  46.8260622  54.8716259  41.3847685  46.4423704  54.2403316
  17.5800722  10.5982037  11.3897648  18.1138771  11.3835879  11.2695065
  16.6829937  10.8916207  11.2304154  37.1561933  68.8395786  64.6402407
  37.9486394  69.1115189  64.1773033  37.4739218  68.4822702  65.4694653
   1.7763751   3.6196537  22.6419487   2.6108211   4.0167065  22.8915158
   1.7377441   2.8067227  23.1458130  14.3203974  66.1853075  69.8317003
  14.0408325  66.8713474  69.2255449  13.5175216  65.7071638  70.0390577
  32.1907353  49.8639584  53.7557220  32.8927159  50.0463676  54.3803692
  32.0869327  48.9128017  53.7831068   6.8483981  77.5065901  35.4812756
   6.3619669  77.6634958  34.6719589   6.4367970  78.0843308  36.1239472
  10.5756419  13.2813807  22.6620903  11.0939401  14.0853806  22.6277199
  11.2236994  12.5821038  22.7473107  22.4240988  19.1409416   0.3655186
  22.3120516  20.0911351   0.3939429  21.7178934  18.8333864  -0.2027426
  56.2001276  66.2396765  68.2603884  55.4049110  65.8100986  68.5755491
  56.8587446  66.0428715  68.9265156  59.3825626  59.6408033  42.9884529
  59.3667269  60.5451155  42.6750946  59.2981768  59.1110897  42.1956587
   9.3525045  29.6635504  16.1226788   9.7609799  29.3426533  15.3186836
   9.2451327  28.8822336  16.6651287  83.1946725  22.2490092  36.7332115
  83.1938261  23.0184241  37.3026219  82.8940648  22.5777121  35.8859673
  12.6699513  19.9434395   8.2663622  12.9343670  20.0517912   7.3528137
  13.3644550  20.3693457   8.7688532  48.5102320  31.5099239  65.7129717
  47.7634859  31.4762259  65.1150894  49.1966867  31.0138035  65.2670193
  57.7890587  72.5704145  59.8151922  57.9245043  71.9563246  59.0935421
  56.9532108  72.9925680  59.6167660  22.4955481  11.6991730  12.9060402
  21.7636030  11.2921210  12.4425831  23.2691496  11.4431496  12.4038258
  66.5717220  49.5007706  33.5497260  65.6984901  49.2111158  33.2855272
  67.1227598  49.3271589  32.7865410  43.0476114  77.8433349  30.5062142
  43.3412275  77.6639702  29.6129933  43.8332567  77.7367642  31.0425320
  20.3216124  64.1924572  44.7645473  19.6672249  63.7704372  45.3212404
  20.4436684  65.0587654  45.1529312  64.4577679  76.4373019   1.4690724
  64.1757402  76.8052127   2.3065319  63.9595613  76.9250705   0.8132496
  24.3216109  63.7732267  50.8627892  23.9578128  63.3342838  51.6316938
  23.9888763  63.2697678  50.1197863  29.1710871  17.0059557  45.5677643
  28.8701742  17.8521366  45.8989086  29.4543760  16.5302010  46.3485565
  16.6198462   7.3387118   7.7137652  17.2814530   7.9970284   7.5013342
  15.7845610   7.7831860   7.5689306  -0.0082642  37.0880623   5.5595627
   0.2097934  37.7769108   4.9317303   0.7158535  36.4655800   5.4932394
  61.7854640  19.6900769  12.3629990  62.5344402  20.2693482  12.5034085
  62.1219361  18.8138027  12.5505009  13.0364072  24.8533726  56.4344931
  13.7996578  25.4156184  56.3019800  12.3097849  25.4627037  56.5647507
  60.6763205  71.2345245  11.5566387  59.9685154  71.8154242  11.8355599
  61.3518772  71.8239787  11.2213745  57.0867548   9.2845958  62.2305393
  57.4201164   8.4113448  62.4367857  57.1326623   9.7605174  63.0597687
  38.2668083   0.3152247  15.9056511  37.9121941   0.1102133  16.7707863
  37.7436798  -0.2115087  15.3014031  48.0388674  68.8413432  36.8349877
  47.1729407  68.7703135  37.2366848  47.8612945  69.0592792  35.9200039
  69.8966104  29.3770428   7.2040549  69.2071170  29.2509766   7.8559294
  70.6711179  28.9707108   7.5929823  56.7321491  77.3976803  45.2659655
  56.0563469  77.9439974  44.8646402  56.4656305  77.3213625  46.1821365
  34.2830062  52.3038816  41.8439293  33.9076138  51.7205048  41.1843967
  35.0414610  51.8273163  42.1813726  60.5324030  59.4780684  63.9120865
  61.3566113  59.1656876  64.2853642  59.9944782  58.6909103  63.8269186
  42.8386736  21.1869359  69.7634983  43.4066153  20.6888509  69.1756344
  42.3203564  21.7428851  69.1816950  78.0197973  20.5809899   4.5415011
  78.4491724  21.4364548   4.5345202  77.1047158  20.7739563   4.7455063
  48.2017391  24.5935030  16.2598553  47.8402298  23.7121411  16.3533440
  49.1107243  24.4526930  15.9949913  12.3025673  26.1834545   0.0931158
  11.8368738  25.4755945   0.5384245  11.8793743  26.9828244   0.4063883
   5.2607077  10.8849116  17.5738945   4.8044651  11.7148371  17.7127972
   5.9865087  10.9032650  18.1976738   5.8932954  15.9039259  38.7270832
   5.0155181  16.2329543  38.5334849   6.2181073  15.5794764  37.8871655
  33.8563657  64.2198372  57.2672176  34.7406292  64.4549465  56.9860888
  33.9772344  63.8198566  58.1283998  39.5265791   4.6091788  36.6045284
  39.6182356   5.0949519  37.4241972  40.3555021   4.1398852  36.5102601
  27.1050355   1.5486281  61.6138411  26.8791923   0.6782573  61.2857056
  26.7381639   2.1511500  60.9668398  57.9661712  38.7380066  25.6047859
  57.7219472  37.8716990  25.2790585  57.1442637  39.1173924  25.9158554
  33.6553001  58.9765501  48.7136412  33.2242227  59.6161556  48.1468010
  32.9439831  58.5939360  49.2273140  39.5222586  44.0969677  11.4219322
  38.7033432  44.0551014  10.9281101  40.1707476  43.6934395  10.8449974
  82.4874172  11.0534613  62.3077202  82.3836670  10.2917235  61.7374372
  81.6477594  11.5097659  62.2529984  78.8279447  26.7731898  53.7653971
  79.4683418  26.1897509  53.3583069  78.3907852  26.2291949  54.4205236
  48.6971998  76.9816303  40.8846855  49.1058493  76.1310720  40.7240915
  48.2195663  77.1740437  40.0777912  23.7710255  51.2481423  10.8510533
  22.8404396  51.4632054  10.9142151  24.0373104  51.0694618  11.7529431
  65.3258562  44.0461731  46.3958406  65.1623392  44.7807932  46.9873047
  65.8891630  43.4562159  46.8967056  37.5803345  23.3962746   6.4501181
  37.5495356  23.9789791   7.2088900  36.6636246  23.1858607   6.2723532
  54.8811483  52.8277445  62.3222589  55.2811956  52.7250481  63.1857681
  55.1543713  52.0488787  61.8375492   1.2532108  45.0820084  18.6596623
   1.4728683  45.5227299  19.4804802   0.5998867  45.6494541  18.2505074
  13.7465876  27.7125855  13.5063019  13.4276550  28.4890957  13.9662400
  14.4659250  28.0345650  12.9630509  57.4876690  69.3079090  62.6907396
  58.1579685  69.9830532  62.5853395  57.9797173  68.5100794  62.8846121
  15.4544657  73.7580033   1.8580666  14.7630184  73.9324017   2.4965992
  16.2126415  73.5108681   2.3875227  83.1766471  80.3018405  23.5884133
  83.1244287  79.5594480  24.1903820  83.1959829  79.9036648  22.7181759
   2.8447526  19.7622462  25.4591599   3.6655372  19.6723814  25.9433880
   2.1672290  19.5138188  26.0880318  43.6946964  60.3765535  39.5463181
  44.1764593  60.9994650  40.0904846  44.3738699  59.9017477  39.0672421
  22.8677910  53.5552044  15.6987133  22.3764389  52.7843304  15.4148712
  22.2051590  54.1390152  16.0679188  10.0631993  14.5699759  17.3833599
   9.9770063  15.3679772  16.8618241  10.9426158  14.6223135  17.7576771
  19.0700596  29.3510742  26.4079704  18.5738962  29.9234600  26.9931450
  18.4822386  28.6150666  26.2377014  67.0268521  23.9247935  44.3931532
  67.7423391  23.8769381  43.7591028  67.2215566  23.2340758  45.0265789
  53.8652501   7.0192378  57.9507637  53.2889971   6.2702029  57.7987528
  53.7754974   7.5543826  57.1622229   2.5172575   8.5471671  63.2665348
   2.2183569   7.6567786  63.4511948   2.1440228   8.7521498  62.4092674
  72.4727783   4.7179358  62.9083920  71.8684587   3.9762347  62.9385948
  73.3426532   4.3185466  62.9148769  42.6413107  67.3570824  32.4208379
  42.0732117  67.5136805  31.6665363  42.6539230  68.1920958  32.8886294
  48.5763424  25.4647274   2.6213637  47.8342836  26.0541601   2.7560892
  49.2263764  25.9985562   2.1645060  44.1865396  70.0639105  67.7628374
  45.0041628  69.9209642  68.2395935  44.2963552  70.9207535  67.3505354
  58.5030603  69.0934992  65.6386232  58.6136770  70.0203228  65.8507347
  57.7180958  68.8299227  66.1188173  27.8982943  20.5531712  11.5359917
  28.5801666  21.2113352  11.4014473  27.0934074  20.9781475  11.2397232
  76.8715725  12.3756354  69.2617321  77.0009384  13.1004756  69.8733759
  76.4408836  12.7742999  68.5055542  71.4529360  60.8650494  67.5089169
  70.8041669  61.4319611  67.0918512  71.1587716  60.7919550  68.4168577
  19.2783468  44.0081806  10.1502362  19.2550295  43.6176224  11.0238209
  18.3657520  44.2262955   9.9609509   6.7909306  33.9008541   4.1973915
   7.0761173  34.7560044   3.8754931   6.3293856  33.5078402   3.4566202
  75.5344972  77.4686720  21.5314522  74.8742303  78.0007126  21.0873642
  75.5197725  77.7760437  22.4378433  17.6778143  51.1271305   9.7973767
  18.5547989  50.8624287  10.0749817  17.8039520  51.4930077   8.9219036
  19.6888798  35.4902287  23.2095471  20.4727381  35.2501555  22.7154293
  19.9813669  36.1842461  23.8003292  45.5129385  56.6772747  65.4666233
  44.8629904  57.2628927  65.8550262  45.1458740  55.8009911  65.5833292
   9.1268920  63.9897060  49.2263985   9.3912886  64.8347330  48.8627338
   8.9910125  63.4314442  48.4608221  11.9637507  20.7663126  26.0261574
  11.4696782  21.4025469  26.5432015  12.8768509  21.0369511  26.1222592
  28.1361693  38.7673111   8.8119784  27.4547260  38.7412854   9.4836846
  28.0910557  37.9085322   8.3916273  28.4100636  15.0904982  40.4107094
  28.0341252  14.2616504  40.7071972  29.3302735  15.0424140  40.6698370
  85.1523895  58.1756420  18.8606396  85.5047650  58.5245629  18.0419197
  85.6250447  58.6485215  19.5456257  46.2739580  24.1389628  18.7500897
  45.6765764  24.6131630  18.1717243  46.4220541  23.3029480  18.3080712
  15.6552952  35.3887577   6.2753620  14.9456709  35.9077759   6.6538944
  15.6342714  34.5641442   6.7609539  61.6296404  55.3862496  17.4937191
  62.0869177  55.2260800  18.3192387  61.2187784  56.2429543  17.6098099
  53.7037086  44.7126818  50.6336737  54.5749760  44.4853020  50.3089809
  53.5515881  45.6005001  50.3098345  82.5953716  53.8055725   1.8668308
  82.9667992  54.2807503   2.6101198  81.7284126  54.1923638   1.7443409
  39.9498057  69.2296648  63.7787819  40.8212900  69.1062403  63.4026003
  39.9310160  70.1495075  64.0429020  27.7770019  40.5630255  58.7352657
  27.6908374  39.7969246  59.3026209  27.1223259  40.4284620  58.0500460
  45.0905912  38.6389466  20.8622685  45.9706181  39.0151949  20.8472862
  45.2048987  37.7782841  21.2652817  16.3605850  42.0145054   3.3768263
  15.8602255  41.2243481   3.1730452  16.1288708  42.6306076   2.6818791
  84.9685583  79.2603257  34.6923390  85.2784929  78.4445837  35.0857010
  85.1036558  79.9205115  35.3721466   6.3803690  36.7386933  15.7996598
   6.7594140  37.5964327  15.6077042   5.4985278  36.9322701  16.1176529
  24.6230286  44.0189953  11.6358986  24.9422615  44.2113419  12.5175610
  24.9979323  43.1634541  11.4267674  28.5046404  23.3406563  18.0154171
  28.3612984  22.7397366  17.2842732  29.2478531  22.9678698  18.4896603
  53.2750719  26.8783350   1.0920944  52.3215120  26.9003363   1.1725369
  53.4859865  27.6290579   0.5369702  78.3702478   5.5171626  27.3979354
  79.2609605   5.2449076  27.6187110  77.8343591   5.1930373  28.1218076
  46.4684200  53.9128590  56.1851454  45.9470749  53.1294775  56.0097837
  46.4867020  54.3802834  55.3500319  35.5215567  15.0320311   7.0050850
  35.3779810  15.2291460   7.9306975  34.7963255  14.4540568   6.7679873
  34.0719860  42.3049088   0.5722943  34.3373983  43.1541748   0.2194014
  33.4758823  42.5194092   1.2898483  78.6894426  46.0102122  42.4079514
  78.0727872  46.0919326  41.6804314  79.3427381  45.3826087  42.0988369
  83.9830584  29.9152537  32.2024670  84.4663829  29.6516819  32.9855099
  84.6573037  30.0340672  31.5335121  14.0116518  10.9694739  14.8300019
  14.7820776  11.4288397  15.1641503  13.2725781  11.5166588  15.0956955
  22.4214753  28.1094497  39.5184660  23.3351525  28.0005019  39.2547178
  22.2399577  29.0382998  39.3752098  61.2092608  50.6620331  14.2728558
  61.2913244  50.1662464  15.0875225  60.4148691  51.1833306  14.3887177
  19.9197500  16.1135216  32.4332943  20.2581232  15.8935423  33.3012428
  20.6451481  15.9238310  31.8382778  62.2599873   8.9471190  43.2444382
  62.3269424   8.1388800  42.7360201  62.7673063   8.7739604  44.0374565
  13.3538445  78.9547589  17.4980393  12.9430254  79.3262937  16.7173805
  12.6476582  78.4817054  17.9382076  76.7731220  63.2181378   3.6028328
  77.2914356  63.4784432   2.8413716  75.8690376  63.4108753   3.3544054
  55.9394884  70.7720757  35.1595688  55.9689236  70.1192331  34.4601679
  55.6909704  70.2762556  35.9397197  59.5807061   2.8296893  53.1131697
  58.6367998   2.8090327  53.2708073  59.7009334   2.3199790  52.3119402
  39.0676546  64.6557617  34.7492456  39.5266104  63.9578199  35.2166462
  39.7550488  65.1099443  34.2619681   4.5262106   7.4743502  68.8753080
   3.6740025   7.0509188  68.9786243   4.3950995   8.3613913  69.2102766
  83.7099704  33.5462802  65.8807516  83.6572561  33.1010573  66.7264652
  82.9036150  34.0595191  65.8296013  70.8320921  43.4089680   4.1881218
  69.9785727  43.8335057   4.2747011  71.4445036  44.0151806   4.6048966
   2.5499909  24.5364113   6.5367975   2.4339765  23.5886641   6.6042652
   3.4953063  24.6561165   6.4457884  25.1007956  22.1040030   5.2517548
  25.0133627  22.7667160   4.5666256  24.3699186  21.5048094   5.1000586
  40.6065035  73.9309263  42.4530697  41.2040520  73.2457209  42.1536398
  39.8564172  73.4553719  42.8100729  47.1973705  74.4263983  67.1467495
  46.5778017  74.8573399  67.7355289  47.6897860  75.1448059  66.7497063
  65.5843687  75.8438253  69.3727160  64.6319628  75.9009743  69.2959738
  65.8769989  76.7545652  69.4066715  18.0858486  30.8831520   0.5011502
  18.7882059  31.4934941   0.7256594  17.3403805  31.1716910   1.0277024
   5.2775424  24.6155615   6.2301865   5.7933133  24.7594996   7.0235911
   5.4516619  25.3852291   5.6884089  63.0280161  71.4247942  40.0557566
  63.2431984  70.8385468  39.3303323  63.8712406  71.7842340  40.3314447
  70.8618623  28.4232874  17.4528828  70.7550484  28.7839623  18.3330670
  71.3172931  29.1102619  16.9661751  56.6225109  11.0576003  49.7514677
  57.3559746  11.0759490  49.1367149  55.8907470  10.7109587  49.2409849
  68.9295396  66.1903551  15.3226319  69.7397766  66.2948110  15.8214607
  68.4592948  65.4891660  15.7736721  52.1024084  43.2388067  52.2653246
  52.7865839  43.6293077  51.7215919  51.8775320  42.4229479  51.8180656
  11.6825169  55.5185719  20.9545269  11.5559977  54.8535366  20.2778092
  12.6322287  55.6223221  21.0137978  19.9679001   1.1757319  14.1451025
  19.8930701   1.5199035  15.0351477  19.2252835   1.5577929  13.6773503
  65.4819721  47.6334019  21.6093960  65.8164472  48.5297699  21.5797367
  64.6242059  47.7115269  22.0269623  48.8739347  79.4424963  59.7079468
  48.6037350  79.3033695  60.6156158  48.1433725  79.1094112  59.1868305
  46.9762087  75.3226471  38.6452436  46.6017628  75.2979136  37.7646708
  46.3649416  74.8158264  39.1797638  68.7863111  71.0638094  57.6778030
  68.1661797  70.5754948  58.2192945  68.2946301  71.8300962  57.3823595
   4.0247887  48.5948296  13.8200321   4.2342346  47.9389496  14.4850006
   4.0461224  48.1129475  12.9932537  34.1888874  55.4840966   5.7213774
  34.1512268  56.3821907   6.0503664  35.0342768  55.4274102   5.2760306
  67.9543257  22.4927092  65.1588202  68.8620996  22.2012234  65.2437639
  67.6821804  22.1802473  64.2959547  17.6803415  37.3681278  11.6394654
  16.8035191  37.6890917  11.8501606  18.2701176  38.0382891  11.9848385
  22.2991808   5.8920520  45.9143209  22.1780308   4.9702781  46.1421156
  22.6571759   5.8743804  45.0267649  37.2679728  48.1455345  13.9951267
  37.4788588  47.5342675  13.2893696  36.5196722  48.6431046  13.6654225
  75.5458650   7.5446456  41.0764217  74.8319254   6.9403498  41.2797832
  75.7652149   7.9475920  41.9165134  77.2625685  29.5344448  45.3151464
  76.3937950  29.7389817  44.9692726  77.1840286  29.6754241  46.2586451
  57.2905335  77.4250176   6.4243069  58.2302580  77.5966432   6.4850798
  56.9033393  78.2783773   6.2291374  23.7823599  43.3209820  16.8631687
  24.5783489  43.8517399  16.8326798  23.7874096  42.8341122  16.0390511
  17.8612917  33.9524861  33.3911934  18.2579868  33.1236477  33.6593285
  16.9221562  33.7698574  33.3610668  11.0793980  10.1524298  62.1463680
  11.7612370   9.6817820  62.6257563  10.3393277   9.5457404  62.1251059
   4.7300356  26.9133635  21.0260906   4.1023033  27.0545550  20.3173962
   4.2291277  26.4574213  21.7024365  39.5844057  14.5625079  17.8987065
  40.1132038  15.1924289  17.4090138  38.7430456  14.5501388  17.4424305
  20.7375877  37.6098748   9.6517697  21.5675848  37.9759188   9.3462410
  20.7262533  36.7184181   9.3033352  20.1947141  73.7064123  63.3678770
  19.8407960  73.7230396  64.2570877  21.1303353  73.5420752  63.4855175
  26.5288370  29.6972819  16.9885960  27.4672192  29.7678871  17.1637669
  26.3792484  28.7608214  16.8586006  17.8098965  76.2119007  27.4806905
  17.1660924  75.6452608  27.0556426  17.3076260  76.6948891  28.1369495
  82.0738978  20.0998135  15.0622311  81.2382883  20.0233145  15.5228176
  82.2796602  19.2057247  14.7892800  51.6479969  76.5571022  43.1093407
  52.0512772  76.2719822  42.2894001  52.1845579  76.1552382  43.7925959
  32.5631826  74.5714588  14.8093548  32.7769344  75.3644486  15.3009930
  33.2785719  73.9669819  15.0069943  34.8412426  23.3286803  65.1196241
  34.5766648  24.2485755  65.1154757  34.0485295  22.8503650  64.8766184
  30.4905527  42.6984329   3.7376347  29.5554226  42.8995819   3.7014189
  30.9034031  43.3832569   3.2115212  45.3869694  28.7124367   6.0852852
  45.2250307  29.0001269   6.9837513  46.3381403  28.7564535   5.9874621
  34.2234230  46.0963011  63.6917067  35.0768423  46.4947319  63.5209560
  33.7831974  46.0995770  62.8417540  59.9551544   1.5196936  50.6526518
  59.7840294   0.5944293  50.8282757  60.8327231   1.5326541  50.2706337
  36.7452765  71.6994810  23.9697981  36.7039418  72.6332045  23.7631893
  35.9607267  71.5349674  24.4929099  47.9187298  77.1890450  46.1372805
  48.1488609  78.1114244  46.0255241  47.9309177  76.8299532  45.2500725
  41.7955988  50.5870648  10.2472534  41.4613264  51.4573593  10.4642334
  41.3125723  49.9944992  10.8232632  71.4059591  65.6710911  64.3165398
  71.4223433  65.3114128  65.2034426  71.4512300  66.6190004  64.4416285
  30.6948679  20.8275671   4.5522633  30.0182551  20.2508183   4.9069348
  31.2698906  20.2452059   4.0558424  20.6981056  23.9567919   7.5850287
  20.6926506  23.4179850   6.7938986  21.3462322  23.5409470   8.1535664
  17.4269550  43.9314766  24.9121037  17.0164412  43.1517906  25.2860108
  17.1505802  43.9315434  23.9956703  22.0906561  20.7556267  35.9335175
  21.8685692  19.9865551  35.4086914  22.5834435  21.3187523  35.3366318
  36.5916133  48.5314560  63.8589430  37.4210024  48.4387732  63.3901644
  36.6910720  47.9778147  64.6334219  65.2148581  33.9876628  58.1555700
  65.0282192  34.2181659  57.2454786  64.6515703  33.2341671  58.3321571
  62.8115940  70.7292938  34.7716546  62.4322319  71.4540339  35.2687144
  63.6440945  70.5491924  35.2083898   7.7641385  39.4101401   0.6055250
   7.2563618  38.9736624  -0.0784979   7.1092790  39.8581524   1.1409464
  58.4511313  19.7526496  69.4840765  58.5427508  19.4281237  68.5882425
  58.2004127  18.9820426  69.9935198  67.3335149   9.4984782   4.0140715
  67.8014162   9.0650714   4.7278347  66.4834955   9.0594256   3.9835015
  37.3568010  59.5662260  62.6805639  36.7972708  58.7897301  62.6658916
  37.7719665  59.5460224  63.5428047   6.8074267  13.2083578  40.4850903
   5.8523291  13.1488343  40.4632702   6.9853895  14.1208144  40.7130947
  67.6639614   7.7291529  39.2818260  67.4154386   7.6175158  40.1994324
  67.0256028   8.3523600  38.9349127  31.6939037  39.2885561  11.8723145
  31.6542166  39.6402664  10.9829655  32.5001972  38.7729998  11.8902340
  53.2019440  40.2598877   3.3419266  53.1340343  39.8045368   2.5027123
  54.0991709  40.0951500   3.6318865  73.0341816  46.2830639  67.7581167
  73.7078285  46.9487572  67.6192570  72.8382587  45.9539509  66.8808842
  80.9901199  25.1316111  53.2884502  81.1402092  24.2504924  53.6310005
  81.8647871  25.4596083  53.0796242  35.8306702   0.0838225  24.6671748
  35.3975399  -0.0902898  25.5028248  35.3025063   0.7718985  24.2624307
  47.3405188   4.0551491   3.4169522  46.8848436   4.6117087   2.7854195
  47.8419989   4.6662445   3.9566841  73.3007998  27.7040596  18.4650555
  73.1378037  27.1355982  19.2177239  72.5050086  27.6368780  17.9373780
  75.5950350   4.8657007  17.6742115  75.1132137   5.4185553  18.2893791
  74.9215001   4.3292780  17.2560826  41.4820242  79.9757242  20.2414942
  41.7343473  80.3279686  19.3879783  42.1332741  80.3281116  20.8480620
  76.7811537  65.5210781  52.8298569  76.8978453  66.1401892  53.5504913
  76.2183428  65.9814548  52.2073364  23.2791918  26.0564299  28.6214199
  22.6983708  26.8164034  28.6576405  23.1793421  25.7209177  27.7305260
  71.5318918  77.9333496  52.2794533  71.5133476  78.7717819  51.8180180
  71.9299650  78.1347942  53.1263256  21.9902914  60.0096150  15.9769478
  21.8557184  60.1562710  15.0406685  21.4617270  59.2370148  16.1767712
  38.4526556  32.4204560  21.2604275  38.4683722  31.7528458  20.5746498
  38.1179398  33.2040091  20.8242645   6.7294257  42.5852604  14.0350952
   6.4444750  42.7373143  14.9361553   5.9358924  42.3096104  13.5762253
  57.6292437  35.8530636   7.5441494  57.5460070  34.9013968   7.6044026
  58.0293100  36.0047646   6.6878977  24.3016165  37.9797430   0.3262224
  25.0907629  38.4680338   0.5608406  24.2844790  37.9976864  -0.6306562
  50.9784603  53.5604715  60.4435396  50.3644800  54.2676926  60.6412697
  50.6656790  52.8196049  60.9626961  72.2917301  12.7694578  22.2259751
  72.8766925  12.8955431  21.4788857  72.0183939  13.6542578  22.4681607
  27.0641804  66.3398886  61.3613176  27.0990324  65.6613731  60.6870556
  26.1621571  66.3141870  61.6805744  19.9241074   0.8203357  21.5584922
  20.3863247   1.6518348  21.6643262  20.4542263   0.1881545  22.0438313
  34.2999649  69.1808414  66.0122490  34.9118853  68.9131832  66.6979218
  34.6302176  70.0283098  65.7139730  11.9137248   1.6357844  65.5228853
  12.1367844   0.8985465  64.9545813  11.7144164   1.2344306  66.3687134
  26.4903944   7.1409388  18.7294617  27.2572487   7.2463675  18.1663838
  26.2568014   8.0331726  18.9855519  48.7390822   4.2312498  23.6454048
  48.7659376   4.8928232  22.9541531  49.5727223   3.7676401  23.5657540
  23.9361446  17.7854605  32.7348366  23.7665623  17.6850481  31.7981472
  24.6640318  17.1895333  32.9116955   5.7345288  29.5777293   8.8067379
   5.9762495  28.9626522   8.1142893   4.7923606  29.4524927   8.9201727
  49.1882372  57.9345083  59.4193506  48.9083672  58.5106039  58.7080002
  48.9765882  58.4190083  60.2172852  23.3713883  65.9916325  31.3814297
  22.9473799  66.8385048  31.2426605  23.3846491  65.5855389  30.5147400
  17.1446514  42.5772142  33.8576269  16.8246472  41.6766882  33.8039732
  16.5184093  43.0850697  33.3417463  17.9972094  21.1471672   5.2768698
  17.6096600  21.5947457   4.5247259  17.3697394  20.4579754   5.4948702
  71.1505851  12.4734252  67.9436827  71.9247064  12.6344340  68.4831667
  70.4189024  12.5017588  68.5601807  77.3854512  74.3481274  18.4830704
  77.3139662  75.2990933  18.5654774  78.3140630  74.1917248  18.3114567
  13.8681286  14.0846653  20.5644074  14.5619839  14.5876236  20.9908142
  13.6600082  13.3880778  21.1870518  62.4331045  52.5668192  67.8823519
  62.8337574  52.1676302  67.1101141  62.8527212  52.1292877  68.6231089
  78.2468605  58.3440971  32.9680371  77.3753786  58.7347841  32.9039192
  78.5538816  58.2935667  32.0628190  53.1349134  48.7037325  64.0415192
  53.2328176  49.6266794  63.8073921  52.1948481  48.5906839  64.1819763
   7.0004933  49.0780659  41.3530770   7.2644346  49.2090435  40.4423561
   7.1393388  48.1441994  41.5107384  50.6524277  71.9252157  68.3867693
  50.1182079  72.0473433  67.6019573  51.0405445  71.0568285  68.2795715
  55.2610907  76.2297680  20.0876942  56.0046515  76.6658189  19.6715107
  55.4833231  76.2135317  21.0185948  25.1540565  57.2814512  68.4964943
  24.8260689  58.1801796  68.5272026  25.6257319  57.2268867  67.6653624
  30.1388550  53.3777666  63.7462044  29.7358513  53.6375618  62.9177523
  30.5444121  52.5309420  63.5600996  85.3919325  21.3743537  68.3875608
  84.8230466  21.0922950  67.6712942  85.2696190  22.3226970  68.4313345
  83.1493682   5.9596653   3.6909476  83.5071129   5.1004381   3.4673729
  83.6738176   6.5774126   3.1814709  78.8418431  11.3312073  34.1113510
  79.7400350  11.0003825  34.1173592  78.5202784  11.1672564  34.9978962
  46.3709688  61.7373419  67.7493143  47.0046520  61.1451483  67.3443651
  46.5841150  62.5984478  67.3897362  31.0060900  13.5068770   1.0072079
  31.9334620  13.3304949   1.1656656  30.9909027  14.3851395   0.6268683
  64.8116732  68.5141563  58.0327940  65.1269627  69.4145870  58.1105757
  65.6045437  67.9927492  57.9073811   6.1012905  64.7109242   5.6878271
   5.3967589  65.2784748   6.0004940   5.7600778  64.3288727   4.8792258
  76.9497299  72.8856802  37.2809863  76.2332773  73.4946918  37.4599695
  77.4357128  73.2918644  36.5633059  33.6341977  76.9304562  68.9281368
  34.2822099  77.5540209  68.6002970  33.6266875  77.0685673  69.8752880
  34.2624157  30.0866051   1.3212004  35.1445644  29.7570915   1.4928808
  34.3959539  30.8406420   0.7468930  37.8228920  52.6788445   5.4506006
  37.2045773  52.1652146   4.9308863  38.6251515  52.1567269   5.4532709
  67.1678209  78.8304377  61.1900091  66.6822004  78.2054186  61.7282963
  68.0073500  78.9313126  61.6386223  40.2994650  40.8736153   1.6392365
  40.5747860  41.6810818   2.0733204  41.0623806  40.2984257   1.6971388
  18.0294283   0.6463855  68.9961052  17.7251633   0.4952853  68.1012154
  18.8833960   0.2157061  69.0346575   7.1384200  25.9315055  47.2880173
   7.8864249  25.3763144  47.5082064   6.5480526  25.3561156  46.8015766
  11.5616005  45.1158924  14.1542378  11.5086310  45.5390950  13.2973137
  10.8569973  44.4680615  14.1453972  31.1262291  52.0111008  15.0930729
  30.8784788  51.3298722  15.7181969  31.2491959  52.7946587  15.6289425
  78.8821120  32.4993201  28.2041302  79.7483486  32.8995438  28.2795468
  79.0564651  31.6035338  27.9153385  78.6442751  43.7250634  31.5549412
  78.8656682  44.0059300  32.4428215  79.1528863  44.3037148  30.9868660
   4.6376340  34.0131111  32.9656449   5.3969876  34.3211718  33.4603348
   4.4637982  34.7112484  32.3342838   5.7566174  18.6157840  67.5930643
   5.3051718  17.9380935  68.0962181   5.9925707  18.1863921  66.7707682
  66.9842586  29.1995948  64.9914885  67.7400765  29.7694152  65.1338959
  66.6075525  29.5033305  64.1656113  53.4483719  55.4772234  51.1660242
  53.7583542  55.5635309  50.2645302  53.5350847  56.3564634  51.5343285
   3.0641459  63.9242172  56.9509840   3.4843444  64.5185995  56.3293886
   3.1409453  63.0604315  56.5457535  44.3779325  64.9279308  24.7809458
  43.4828663  64.5886850  24.7796559  44.5669794  65.1084423  23.8601279
  29.4093435  32.0130320  27.7969780  28.6053818  32.4820490  28.0203667
  29.8731678  31.9228001  28.6294117  76.7982921   0.4273265  65.1387882
  76.9592485   0.6685012  66.0510159  76.5505037   1.2485736  64.7140694
  30.1542061  34.8641320   8.7595692  29.1992062  34.8988219   8.7047138
  30.4543274  35.1567431   7.8990259  11.7857664  27.1479435   6.6042462
  12.6526468  27.4512596   6.8739739  11.2357824  27.9304619   6.6419163
  32.8693026  22.3618384  17.5250569  32.7844732  21.7875357  16.7639961
  33.7079828  22.1180792  17.9167595  73.1039143  66.5988207  58.3610725
  72.5203991  66.1388445  58.9645386  73.5607386  65.9011793  57.8911352
   9.0956872   1.7348118   7.7621641   9.5224803   1.3015814   8.5013476
   8.7344211   2.5401135   8.1325760  35.3456402  77.7051592  55.0418568
  35.9003448  78.0120134  54.3246555  35.4563522  78.3627892  55.7285118
  54.6244177  69.0621474   7.8952399  54.3599352  68.5168531   8.6361399
  53.8003525  69.3734076   7.5207176  58.2339018  42.7801056  17.2720757
  58.0360811  43.2310028  16.4512291  57.4264734  42.3145886  17.4902477
   6.5332478  37.1010371  30.8897724   6.7290586  36.5428086  31.6422787
   5.6463640  36.8511362  30.6305065  24.5982760   0.5295630   4.4288006
  25.4050797   0.9739609   4.1683998  23.9229649   1.2054129   4.3702879
  18.9492148  29.1910668  10.3773632  18.4055584  28.4947701  10.0087967
  19.7601479  28.7516566  10.6333580  56.4400682   7.1506446  59.3027163
  56.6432199   6.3692611  59.8169088  55.5897126   6.9618266  58.9058828
  51.0438585  77.5338221  39.4177365  50.7543659  77.8186703  38.5509682
  50.3446674  77.8146839  40.0080633  22.3601016  22.9689067  53.0531120
  21.4414319  23.2156794  52.9464245  22.7981575  23.3393710  52.2868919
  10.7056904  23.3018398  56.6505909  11.5945232  23.6520672  56.7101574
  10.2689779  23.8643360  56.0109711  48.1230068  29.1292167  35.8673573
  47.7784872  28.6095619  35.1410675  48.6271858  29.8252034  35.4458809
  47.5137518  72.4066503  50.6312704  47.6226363  73.0367077  49.9189472
  46.5954665  72.4914605  50.8877659  71.2119437   2.6608112  44.9998188
  71.9409944   2.0449454  44.9261570  71.5402068   3.3530211  45.5736828
  15.2535927  24.2539787  30.3608227  16.1635447  24.3396091  30.0764203
  14.9602687  23.4265471  29.9793148  27.5215149  11.5293765  49.6959352
  27.7057552  11.7455828  48.7818575  26.5959167  11.7444336  49.8110533
  10.2633309  17.1521688  38.6849976  10.7662904  16.8602252  37.9247141
  10.6480789  17.9975235  38.9164615   8.6543169  80.4602795  66.3828850
   8.2602754  80.9300744  65.6478643   7.9105058  80.1937872  66.9232178
   9.1697842   9.6219021  21.1430335   9.9620867   9.4814545  20.6246114
   8.4701645   9.7011036  20.4945803  36.7782760  23.0854273  11.0333645
  37.4886823  22.4554539  10.9121704  36.2399244  22.7083898  11.7292476
  50.1250602   5.6560922  56.1146545  49.8566104   4.8714477  55.6366396
  49.3604661   5.8890212  56.6413116  40.4003427  59.3340077   0.4599037
  41.1091134  59.9246027   0.7150021  39.6050963  59.7648385   0.7732716
  21.7574176  30.1637104   3.2513895  21.1940322  29.5893970   3.7700358
  22.3594001  30.5479439   3.8887396  31.0806131   4.3005681  41.7792654
  30.8084822   4.6777430  40.9426594  31.5254426   3.4869531  41.5418005
  36.4331317  14.6118462  67.9293728  37.2026014  14.7016001  67.3671532
  36.7167687  14.0269125  68.6319637  48.8965235  69.7670836  50.3632164
  48.2843015  70.0428612  49.6810389  49.3385301  70.5735655  50.6286383
   2.7961266   1.1128724  32.5730848   2.4332774   0.5361343  33.2453537
   3.7357673   1.1309096  32.7546930  85.6352084   8.6319393  61.3902760
  85.1453280   8.8501620  60.5974150  85.0125463   8.1450427  61.9301414
  12.1443024  73.7135560  50.0724363  12.3077193  74.6218390  49.8183727
  12.9427328  73.2478977  49.8236322  36.9016838  15.9191871  37.8691196
  36.9107389  16.6576135  38.4781146  35.9842753  15.8339620  37.6096392
   5.3711620  77.2840653  67.9056120   5.5930033  76.3871253  68.1556463
   4.4217101  77.3355315  68.0157185  13.9226961  39.8852658  69.1442060
  13.1856859  40.4723930  69.3125200  13.6423206  39.0413260  69.4983006
  22.2292995  16.8763137  40.3574038  22.3243618  16.4057112  41.1854887
  22.7251101  17.6853442  40.4834032  34.3586826  18.4778845  38.9123702
  34.4111347  19.1114593  38.1967831  33.4360051  18.2247496  38.9409971
  44.5948744   9.5141739  66.0483599  44.8626947   8.9130223  66.7434311
  45.4020739   9.9616271  65.7944918  79.4614307  67.7359981  63.9946079
  80.0780980  68.4340508  64.2152309  79.2629591  67.8755481  63.0686665
   8.8020706  70.5597496  35.8280373   8.8924450  70.4809046  34.8783803
   7.8569144  70.5834055  35.9775424  18.2306266  27.1794701  46.7357635
  17.6346576  27.9051805  46.5502977  18.5877693  26.9384122  45.8810282
  27.9225835  31.4998260  12.9608574  28.2440508  30.9250023  13.6554566
  28.5766655  32.1964159  12.9045525  73.6141023  30.7187667  25.0006047
  74.2029771  31.3658133  24.6122971  73.8461170  30.7105812  25.9292259
   6.4631820   5.1071805  40.3789091   7.3282230   4.9583843  40.7607365
   6.2697262   6.0240877  40.5740690  83.2287670  27.3081684  34.0836287
  83.0771343  28.2422519  34.2275882  83.9751789  27.2761202  33.4852362
  17.1510065  55.8213329  17.1107066  16.7029393  55.5025196  16.3272357
  17.9324126  55.2728033  17.1796513  72.6501096  33.4704041  50.9472895
  72.2460354  32.6074457  50.8564329  73.1371821  33.4214020  51.7698431
  17.4452645  33.4178202  46.7103467  17.2338015  32.9564814  47.5219402
  16.7512900  33.1631242  46.1022696  35.0474403  16.0628250  12.5414791
  34.2528942  15.8761313  13.0415478  35.1655278  17.0091274  12.6239338
  62.5226189  18.3546579  57.1132946  62.5867273  19.2581749  57.4227762
  63.3420397  17.9468298  57.3933935  48.2015118  41.3771124  15.0959912
  48.2178435  41.5904509  16.0289707  49.1197404  41.4071410  14.8273220
   8.9599428  26.7175093  17.2043839   9.6785650  26.2405076  16.7893067
   9.2359874  26.8216338  18.1149807  11.4494291  72.4141581  33.8915896
  11.8553915  73.2160670  34.2207789  11.2748018  71.8945462  34.6762800
  48.3678910  47.7150353   0.4862299  48.1371340  46.8083086   0.6882944
  47.7955672  47.9508265  -0.2438936  14.6488142  30.5676174  51.0133171
  15.1389802  31.3628554  51.2220383  14.0268421  30.8397937  50.3385592
   7.1941662  32.1513343  38.3506393   7.7181333  31.3507938  38.3793521
   6.3117445  31.8522882  38.1312418  83.5024623  24.5665574  38.2511735
  83.9075234  24.9928761  39.0064287  82.5619460  24.6241593  38.4195256
  54.0599966   8.0820107  55.4531908  54.2198324   7.5252765  54.6911335
  54.3509722   8.9518905  55.1795578  12.9545927  24.6378016  32.3805356
  13.5107768  24.8766685  31.6390300  12.4045289  23.9282560  32.0485592
  43.0131623  61.5948942   6.3551321  42.1067271  61.7204931   6.6358986
  43.5071442  61.5113237   7.1707478  71.1459390  73.0228473  43.9568710
  70.6202141  73.2079507  43.1786776  70.6911031  72.2983933  44.3864298
   5.4930416  76.8843819  43.0870581   5.4849973  76.3620988  43.8891745
   5.1341215  77.7320243  43.3495665   6.8618047  25.0641155  52.2196102
   6.1165541  25.1681232  51.6279840   6.9524825  24.1172266  52.3264360
  11.6860080  19.2602623  39.8146653  12.3627388  19.0380323  40.4541016
  11.6736066  20.2172971  39.8018646  10.1271582  13.0663836  26.7600918
   9.6677655  12.2338212  26.6504073  10.7929981  13.0649483  26.0724235
  52.0311380   1.2896652  11.9936218  51.4157075   1.6679306  11.3656178
  52.0587403   0.3590937  11.7711296  57.5092588  77.5639878  19.5176387
  57.5825849  78.3059154  18.9173067  57.9477740  77.8577642  20.3161573
  25.7391262  18.2119596  29.4617558  26.3000536  18.5458529  28.7616801
  25.6504297  18.9468300  30.0686574  38.6741996  29.6411705  49.2494154
  39.3324161  29.5134068  49.9325371  37.8490496  29.3839884  49.6607733
  83.9428645   4.9579123  61.4783382  84.8997355   4.9796107  61.4909458
  83.6851903   5.2464515  62.3538876   6.9264927  56.2184245  55.1786184
   7.4361697  56.9254954  54.7830057   6.8296066  56.4768440  56.0951710
  17.3719168   6.2810951  40.1840162  18.0198765   6.9836164  40.1306915
  16.8487346   6.3768953  39.3881941   9.3665689  50.4531050  56.1617994
   9.8552012  49.7452641  56.5818405   8.9768702  50.9392071  56.8884802
  74.5981551   8.9757961  52.6799154  73.9709808   8.3594960  52.3016882
  74.1217745   9.8047978  52.7251816  25.0337887  15.1715076  68.7270594
  24.7058582  15.8631539  68.1523228  24.4600391  14.4249201  68.5548639
  57.5181231  27.7166512  26.2965145  56.9745502  28.5014572  26.2269535
  56.9061956  27.0223536  26.5409031  58.9152050  12.0448506  25.2646470
  59.7105885  11.5137720  25.2252173  58.7967157  12.2299135  26.1962819
   0.2003708  65.4763264  46.7892456   0.1275411  66.3714904  47.1203184
   0.0992694  64.9250145  47.5651741  11.7638075  30.7617807  53.6059666
  12.0954382  31.3708162  54.2657614  12.4413347  30.0889468  53.5390186
  29.0018797  24.8908257  51.0661364  29.6985555  25.5464077  51.0331392
  28.3367395  25.2766514  51.6361904  45.6159750  72.0359523  66.4981556
  46.3706795  71.6925932  66.0198689  45.8588079  72.9362423  66.7143536
  72.7563159  77.5051732  25.4182982  73.2494859  78.0117414  24.7730041
  73.2309941  76.6767240  25.4860067   5.4155457   9.7265363  49.4801617
   4.7822207  10.2930808  49.0395260   6.2628603  10.1395023  49.3135786
   7.4082875  15.8288360  42.9522085   8.2716179  15.8115590  42.5391769
   6.9029850  16.4478266  42.4251842  29.2047949  44.1591912  -0.1391849
  28.9447791  43.2509466   0.0148144  30.0428590  44.2486235   0.3145590
  28.5761356  43.5523415  52.3565435  28.4376764  42.6248407  52.5483894
  28.8223243  43.9367914  53.1978655  44.3098364  79.2242625  11.2633076
  43.5188124  79.7482541  11.3895836  44.0369484  78.3277681  11.4584103
  26.9055405  73.1198312  51.3155890  26.2090721  73.3409453  50.6973124
  26.4594307  72.6522786  52.0217133  40.6452513  29.4835305  67.5252962
  40.2658510  28.7514758  67.0391083  41.4784622  29.6560621  67.0868587
  65.8916554  29.3364110   1.8600884  64.9579486  29.3175819   1.6501703
  65.9958491  28.6787894   2.5477734  84.2067274  12.9409492  63.2153320
  83.7327259  12.2612560  62.7361965  83.8244810  12.9262829  64.0927744
  66.6669760  55.5810387  45.1734686  67.3953930  54.9718363  45.0529861
  66.2794820  55.6663186  44.3023729  46.7015553  12.1087360  47.9638767
  45.8599615  11.9427466  47.5391436  46.8385124  13.0508184  47.8641081
  20.3138995  22.1799231  64.1020441  20.9537029  22.3190618  63.4038162
  19.5033872  22.5603056  63.7634993  26.2893581  34.8969173  64.0860033
  26.6518378  34.1019058  64.4769049  25.3894520  34.9343133  64.4100475
  61.0561673  59.9910624  36.8911862  61.9084595  59.7329242  37.2421765
  60.4273031  59.4461186  37.3642612  66.3519741  35.9380889  54.4790936
  66.9389011  36.3154721  55.1343298  66.6194237  36.3452554  53.6551285
   7.7024049  42.6870108  59.3619585   7.8626984  41.8332958  58.9598274
   8.0412620  42.5995159  60.2528858  27.9704606  26.9450989   1.4255085
  28.3583827  27.4314799   2.1529570  27.5566923  27.6159909   0.8824291
  70.0992445  68.9700527  55.9147549  69.5469109  69.4079525  56.5623713
  70.9890203  69.2488415  56.1311054  37.0086551  13.9775634  26.6774249
  37.2963977  13.0730259  26.5539455  37.5295877  14.4820273  26.0526228
  47.5786481  47.5468173  13.1771221  47.8588888  47.9775503  13.9846840
  46.6456816  47.7496465  13.1088009  77.4529446   5.3268772  67.5471401
  77.4107177   4.3714139  67.5079155  76.8033386   5.6217355  66.9089365
  64.9190125  48.2675596   8.3125200  65.2743158  47.5778081   8.8730850
  64.0020618  48.0241724   8.1852522  43.5245466  27.9476547  39.9950337
  43.2863474  27.9881716  40.9212351  42.9933453  27.2338581  39.6421170
  17.4405015  22.9612207  55.0263214  16.7610884  22.3021626  55.1687098
  17.5449562  23.3854103  55.8780193  46.0545111   0.5841605  59.4896412
  45.6529856   0.2486613  60.2911663  46.9903278   0.4177712  59.6027660
  73.1254030  11.1716807  53.2934856  72.4463631  11.5923655  52.7660751
  72.9745127  11.4961720  54.1812754  57.8205881  62.9623535  21.1760559
  57.7205619  62.1628072  21.6927281  56.9476280  63.1283643  20.8202305
  10.0017309  27.4589586  68.2116604   9.0761811  27.4880219  67.9692888
  10.4626405  27.3324847  67.3823261  55.6856731  69.5263643  41.8590498
  55.9205888  69.1159458  41.0268211  56.4528930  70.0484593  42.0936203
  81.3638268  22.9359412  54.9612951  82.0604343  22.4742126  55.4279566
  80.8241690  23.3178759  55.6534863  45.4266641  25.7998254  13.5384503
  45.5461011  26.2782052  12.7180138  44.6325168  25.2833858  13.4011593
  76.4922962  55.8573284   0.7622566  75.8754263  55.3715875   0.2147570
  77.1801958  56.1366692   0.1581135  84.2144498  20.1466012  47.3306322
  83.5372437  20.1712966  46.6546059  84.4466579  19.2208445  47.4033308
  82.5409861  20.1411819  38.3816695  83.3172194  19.6942127  38.7191796
  82.8889800  20.8457994  37.8351831  67.0124006   4.9658886  55.2054501
  67.2393465   5.8262944  55.5581903  66.4586067   5.1559550  54.4482040
  64.0114054  65.8294394  17.2841397  63.9952240  65.5542591  18.2007923
  63.6870751  66.7299011  17.2986260  24.3603182  25.2979207  54.2281437
  24.3666148  25.4859996  53.2896233  23.4355950  25.1722288  54.4410276
   7.5803795  32.6128728  34.8497796   7.9027596  32.6188333  33.9485192
   7.9641619  33.3948381  35.2466083  65.9630469  57.7102811  53.2587671
  65.7342444  57.7257163  54.1880894  65.3381149  58.3079393  52.8482819
   9.6514291   7.2088420  38.9336419  10.1873732   6.8488431  39.6403217
   9.0918273   6.4810050  38.6628461  58.4886776  12.5086231  27.9655876
  58.6383015  12.0197649  28.7748280  57.7065059  13.0312176  28.1426087
  51.7440663  47.7658040  12.6568961  52.0365650  48.1056935  11.8112302
  51.9585196  46.8334014  12.6274216  25.2469397  34.4496560  44.1797113
  24.5377159  34.0664005  44.6958017  25.7255030  33.6963344  43.8337088
  17.2837010  60.3092296  39.9958134  16.4650050  59.8341448  40.1381493
  17.4147120  60.2820713  39.0480089  20.1065588   5.0557309  62.4062872
  19.6775496   5.6674188  63.0046320  20.2464986   5.5619019  61.6060114
  21.0120478  23.0904963  11.4564457  21.3668302  23.1711616  12.3417988
  21.4025143  22.2863188  11.1142960  13.0669155  57.5045187  33.0363727
  13.8688174  57.9178793  32.7165055  13.0634680  57.6841194  33.9765644
  67.7297601  11.5858819  18.6376991  68.3700642  10.9656098  18.2891216
  67.6501212  11.3533976  19.5628109   8.2160217  19.7306287  64.5353794
   9.1655272  19.6163583  64.4952154   7.9225039  19.0754640  65.1684999
  80.7839371   4.8587021  48.3839321  80.5544327   5.2950907  47.5634909
  81.6360063   5.2253854  48.6200523  15.6225538  30.0158691  43.1186628
  16.4674211  29.7400236  43.4741020  15.2841866  29.2383695  42.6745510
  36.5504441  25.6953850  32.3671189  37.2235051  25.0153270  32.3399010
  35.7941523  25.3014007  31.9323483  60.1222206   9.6856558  52.7053881
  60.4147221  10.4166174  53.2497835  59.7654081   9.0515679  53.3273602
  83.6270059   5.2428681  41.5816116  83.7606392   5.5379361  40.6808853
  84.2324752   4.5088065  41.6855001  26.5419412  15.2528250  47.8271627
  27.2324705  14.7592986  48.2696962  27.0105672  15.8949196  47.2939348
   8.8020527  20.6078911  43.9354801   9.3775642  21.2395120  43.5041189
   8.8680923  19.8181391  43.3986759  31.7004871  21.4754486  43.5397196
  31.0604358  21.3460994  42.8398371  31.2301731  21.2430215  44.3403530
  40.6601334   2.9600149  40.0069094  40.4154062   2.2951686  39.3632340
  41.5272474   2.6915610  40.3106880  18.3332413   9.3832131  16.9981709
  18.4611338   8.5296555  16.5842667  18.5775726   9.2446871  17.9132405
  80.5996911  44.8473883  40.3857756  81.2500967  45.1195431  39.7383714
  81.1120312  44.6389580  41.1669922  24.9684501  32.5404978  52.5739241
  25.8475113  32.9162574  52.5261068  24.4758725  32.9958248  51.8910837
   3.2538977  71.9802977  55.9559393   2.5140157  72.5649084  55.7915068
   3.6347499  72.3001761  56.7737818  47.8462741  66.5230157  13.3555832
  47.1889016  67.0954993  13.7509957  48.6760888  66.9794681  13.4944859
  14.5903492  18.8546073  54.8295546  15.3285027  18.2564473  54.7130775
  14.9945259  19.6934652  55.0513458  57.4761915  41.1210918  61.4329767
  58.2445288  41.1760855  60.8647633  56.7315149  41.1492062  60.8322287
  53.6338139  10.6743681  40.5856419  54.4890070  10.3794992  40.2727079
  53.5696411  11.5817988  40.2878475  43.5028586  71.6854241   4.7216692
  43.1887922  72.0352938   3.8878908  42.8720281  71.0018065   4.9473944
   9.2933472   8.0501487   7.7244940   9.5473488   8.1601169   8.6408034
   9.4195994   8.9155581   7.3354426  17.8052545   2.4053803  36.0142446
  17.7257097   3.3489543  35.8743405  16.9031763   2.1011318  36.1138463
  25.2761221  42.8196669  57.0444727  24.6957660  43.3150482  56.4665318
  25.7995605  42.2794724  56.4524984  71.1036071  58.6970153  12.8754177
  71.5688476  57.8652587  12.7861920  71.6875467  59.3420722  12.4764862
  31.3695884  16.2211668  52.7298975  31.9792962  16.1853361  53.4669209
  30.8129239  16.9772661  52.9160929   3.6081025  37.5321603  56.6315699
   4.3502992  37.7036738  56.0519505   4.0072232  37.3183465  57.4749088
  21.7686152  38.7047577  68.7304258  21.0736322  39.2148805  69.1463614
  22.4687862  38.6775231  69.3825388  44.9757910  17.0413971  66.2398481
  44.3101597  16.9530046  66.9220161  45.6292391  17.6300430  66.6176510
   8.6979616  28.2732511  46.3664198   9.5506865  27.8422070  46.3090420
   8.2086086  27.7522969  47.0031071  30.9978700   3.9778060  37.4360085
  30.6403589   3.1209013  37.6686716  30.6164789   4.1720039  36.5798187
  35.1221571  64.8441389   1.6874018  34.5024368  64.9411919   2.4104204
  35.5102685  65.7132652   1.5863075   7.8226203  45.3879118  63.8199949
   7.4463713  44.6198034  63.3902550   8.1767356  45.0522041  64.6434832
  70.6370974   6.3472658  48.3965397  70.6077528   6.7952335  47.5511456
  69.8120689   6.5825486  48.8210392  40.9199753  77.6982431  44.5580864
  41.3516894  77.9664410  43.7469578  40.0725403  78.1427979  44.5366859
  22.3434615  38.5413241  41.1297369  22.2770596  37.8807449  40.4402018
  22.7979755  38.0961657  41.8449163  74.5341913  74.9942769  22.5997353
  74.6498875  75.7895867  22.0798039  75.0962512  74.3464209  22.1747589
  53.7009153  59.7660437   0.3547135  53.5098252  59.4441142  -0.5262384
  54.4475469  60.3535964   0.2382889  42.5855589   8.5424733  22.0413303
  42.8237247   7.9042470  22.7137709  41.6404247   8.4357250  21.9338250
   9.3274885  46.4921522  56.2551498   9.1848981  46.2133741  55.3506136
   9.3199247  45.6791735  56.7603588  26.5323114  54.5931959  32.7935314
  26.4125276  54.9118996  33.6881328  25.9750366  55.1603413  32.2605944
   2.9050860  51.8539371  11.5681591   2.8676948  52.1245089  12.4855557
   3.1696210  52.6435378  11.0961571  79.5600093   0.7661295  60.7957506
  79.3103660   1.6902021  60.7957268  78.7298370   0.2937535  60.7332468
   2.4486294  78.5927238  56.9362164   1.9655648  77.7905599  57.1347427
   1.9503703  79.2857845  57.3693895  45.1455280  48.5031905   1.4056435
  44.5640156  48.4841963   2.1657219  45.9756860  48.1545039   1.7304316
   9.1047087  74.9763961  48.5185957   8.6383691  74.2347778  48.1329012
   9.0849295  74.8080231  49.4606638  33.5636601  37.5051498  12.6290264
  34.1062543  37.4542543  11.8421116  33.4732163  36.5967115  12.9167595
  34.0128684  22.6598048  37.8281045  34.5525503  22.9722738  37.1019220
  33.2717776  23.2650924  37.8534985  65.2140085  65.2697689  31.8934608
  64.4936923  64.6438033  31.8190026  66.0026202  64.7273464  31.9035220
  74.7586975  70.6526258  13.7573281  74.8323259  71.5676858  13.4862747
  75.4208908  70.5513313  14.4410458  69.8319308  70.4444117  47.8724813
  70.7312576  70.1414580  47.7473307  69.4235865  70.3442115  47.0125723
  84.3653411   8.6177655   2.1023503  84.7974343   9.3246861   1.6229859
  84.4672007   7.8498812   1.5400257  17.5438106  14.3644035  50.5741119
  18.3923042  14.5815110  50.9603119  17.7026260  14.3668640  49.6301794
  30.4574728   2.5499997  45.4944038  29.6020460   2.2808509  45.8291197
  31.0858393   2.1620233  46.1033869  45.9014437  69.2743995  11.2597981
  45.4509661  70.0074913  11.6791764  45.2402196  68.8811758  10.6902447
  22.9922032  28.6417770  58.9551210  23.8782382  28.6007190  58.5952711
  22.4315786  28.7943244  58.1944275  22.6991296  25.0398564  43.2432699
  22.2822666  25.6373072  42.6223755  21.9878602  24.4762850  43.5477591
  85.0761739  75.5827341  41.0077477  85.6873647  75.0711519  41.5378046
  85.0492851  76.4396996  41.4333248  49.9215984  10.2576900  55.7252073
  49.2153263  10.3503394  56.3645983  50.5040121   9.5999897  56.1052799
  63.6234070  43.5834074  44.0867662  63.8534952  43.5000181  45.0121546
  63.1726910  44.4257307  44.0269899  42.1517429  34.7644039  14.0322914
  42.8601906  35.0461718  14.6110382  41.5840408  35.5314585  13.9576378
  21.5965223  24.8699689  67.3951244  20.8497834  24.2848706  67.2675657
  22.0051026  24.9286294  66.5314960  74.0091658   0.1257562  35.4428959
  73.4735203   0.0810152  34.6508646  73.8429499   1.0000338  35.7953763
  81.1373122  36.5810537  33.1147885  80.7581772  36.3431001  32.2687006
  81.1127598  35.7712293  33.6245108  48.8074383  69.0552022   5.1710119
  48.1026218  68.5385921   4.7803965  49.0735635  68.5533645   5.9414473
   6.6516221   4.0885657  25.4242086   5.7062626   3.9605594  25.3458381
   6.7442250   4.8274991  26.0255694  27.2281790  64.6236420  38.9349604
  27.0879126  65.0128746  39.7981238  28.1266856  64.8627853  38.7075233
  81.5070872  45.7240534  60.4199362  80.8704577  46.2936354  59.9880648
  80.9971384  45.2491379  61.0761690  79.6195562  52.9801369  34.2999506
  79.8014499  53.6420488  34.9670482  79.4597561  52.1774387  34.7963119
  59.7190961  70.1361873  29.5212021  60.3233204  69.8102500  28.8541928
  60.2855572  70.5206850  30.1901665  53.7549815  67.9787257  30.8216515
  53.0351171  68.4595182  31.2301388  53.4574637  67.0690587  30.8067837
  43.0876145  66.7264631  13.2600155  42.9648146  67.5817206  12.8480854
  42.8021404  66.8532064  14.1648236  21.0764933  35.9822941  58.2327509
  21.8073177  36.2732196  57.6873255  20.3061676  36.3927054  57.8398275
   4.9945182  17.6488233  64.2135000   4.8689023  18.5269070  64.5732498
   5.7563984  17.7316868  63.6399984  31.4153504   4.9165869  63.1873989
  31.9436812   5.6930178  63.0023193  30.9430242   5.1342636  63.9909887
  16.4155066   5.3611767  59.9568319  17.2152507   4.8744094  59.7575808
  15.9963608   5.4916900  59.1062355  52.3595080  60.8170440  17.1830597
  52.4551639  60.0766339  17.7821198  51.5983185  61.2948635  17.5124684
  74.5070559  12.6335688  33.4020653  75.0014586  12.6109715  32.5827446
  74.8325104  11.8829747  33.8989678   2.4895613  17.3803174  59.1935062
   3.3976266  17.3398316  59.4935226   1.9768475  17.0680118  59.9390411
  25.4733777  28.9821720  61.9593477  24.7707677  29.2457271  62.5535774
  26.0144424  29.7661877  61.8655539  72.2475485  67.5518853  54.3573236
  71.6791193  66.8427939  54.6578360  72.1660046  67.5364322  53.4037256
  76.0051469  77.0762680   9.7800928  76.2817363  76.7920444   8.9089173
  76.4088825  77.9370926   9.8905915  11.9101810  19.3515933  44.1505051
  11.3043702  18.6295629  43.9834833  12.7765656  18.9447987  44.1392088
  80.1887931  42.4338484  59.8129749  80.5008883  41.9834948  60.5978394
  79.4293738  42.9349232  60.1103687  74.3175913  22.7178097  38.7394166
  74.9061228  23.3705544  39.1186070  74.8915387  22.1437597  38.2321858
  29.5614314   4.7794154  39.6091104  28.8078427   4.1906664  39.6504855
  29.9576616   4.6017036  38.7560844  69.5166645  71.0515287   2.3994675
  69.3751678  71.6571238   3.1271115  68.7352762  70.4986980   2.3925534
  23.6192679  42.9252863  39.4719791  24.4913745  42.5907326  39.6811080
  23.0252004  42.2167921  39.7196841  80.0091929   5.8736557  45.9604883
  79.0906490   5.8309120  45.6946278  80.4451675   5.2125371  45.4228258
  47.4308348  27.0331836  68.1720495  48.1403685  27.6735759  68.2239342
  47.6319742  26.5154862  67.3924589   4.6697425  15.5289817  35.9860396
   3.8149451  15.2365839  36.3023591   5.1594733  14.7201622  35.8370209
  33.1438279   7.6383495  40.3930473  33.1485820   7.2267503  39.5288730
  33.9387751   8.1713068  40.4088688  75.2089709   0.5927534   4.5607701
  74.8795635   1.4903422   4.5154133  75.0250060   0.2261229   3.6959162
  73.7531127  22.3647285  56.0549498  74.6875144  22.5027275  56.2101269
  73.7180234  21.8412805  55.2543259  24.5168447  35.8953619  25.4581738
  24.2905211  35.0120521  25.7493329  24.5271182  36.4168358  26.2607861
  24.1330981  25.8691740  35.2840781  24.7291684  26.0663438  36.0066128
  24.3055677  24.9511433  35.0750160   7.9856491   3.7554413  60.7441473
   7.8295404   3.8572794  61.6830254   7.5899464   4.5327353  60.3498554
  28.0095935  14.1717672  44.4701910  28.7666106  14.7561479  44.4294882
  28.3730459  13.3271599  44.7362232  43.6123631  71.5838983   8.4280815
  42.9504451  71.0520985   7.9861679  44.0530393  72.0544507   7.7205363
  59.2546473  74.7667427  59.4703054  58.8567866  75.1108588  58.6706018
  58.9257216  73.8701511  59.5348215  29.4314170  18.2618606  29.8744774
  29.3158841  18.4889114  30.7971549  28.6686850  18.6405051  29.4373250
  17.2467399  23.5290956  57.7573681  17.1849883  24.4720459  57.6048470
  17.0394492  23.4225559  58.6857605  12.3650551  28.6973596  69.6042919
  13.0347228  28.1309557  69.2209339  11.5383637  28.3544993  69.2647886
  50.2565107  46.4442768  31.7296925  49.3261537  46.6635903  31.7804184
  50.5195984  46.3045993  32.6393738  19.2020979  49.1833622  47.2645044
  19.9303952  49.7358734  47.5483179  19.5472565  48.6985523  46.5148020
  46.8509934  50.6329014  19.5886555  46.2295565  51.0527065  20.1834812
  46.4664552  49.7754427  19.4066467  28.2167459  59.6702194  59.8766279
  28.4535837  60.0971222  59.0532827  27.2595620  59.6650314  59.8770523
  65.5133566  49.7477385   3.4022179  65.3321967  50.6233361   3.7438908
  65.8953366  49.2760994   4.1424074  65.4101762  53.0793073   0.3543940
  65.3829608  53.8605156   0.9068480  66.1568675  52.5790205   0.6836357
  64.0978369  70.4753044  20.8922615  64.2774210  71.3530805  20.5553761
  63.2835970  70.5703666  21.3864365  31.4603809  71.0200193  25.1733532
  31.6653955  71.7254760  25.7869663  31.5093586  71.4313796  24.3104401
  68.3715534  16.8222034  61.3216734  68.3526754  15.8673871  61.3864899
  67.6480103  17.0366466  60.7328367  69.4696579  49.1007456  20.3324833
  68.7898788  49.2972871  19.6878853  69.3013725  48.1940898  20.5891743
  28.2310152  30.8500528  64.1333103  28.2154751  30.1570463  63.4732103
  27.3472452  31.2173128  64.1158581  16.4039445  19.9136114  40.0958967
  15.6846166  19.7741425  39.4799829  17.1828985  19.6163261  39.6256995
  51.7989382  75.9368160   5.0927439  51.0608658  76.5442421   5.0425759
  52.5730834  76.4926627   5.0034895  81.3639365  45.6496286  19.3114460
  80.8438868  46.3010216  18.8408422  81.3857571  45.9672594  20.2141452
  52.6855311  44.8561915   4.0970078  53.1015215  44.0401068   3.8191786
  51.8215069  44.5897388   4.4111672   0.9900227  39.6144874  24.9219537
   0.5930343  39.0474183  25.5830598   1.5738526  39.0368707  24.4302940
  35.3157142  42.3953755   3.5640373  34.5105395  41.9164089   3.7602940
  35.5701885  42.0895191   2.6934471  34.4616032  41.2808466  51.2637520
  34.8112607  41.6941452  50.4743481  33.6437464  41.7473459  51.4361525
  38.7541604  27.9922175  66.0914612  38.2316852  28.3700061  66.7989445
  38.1222820  27.8176761  65.3939676  49.6944961  52.4237373  11.1310139
  49.0875539  53.0691471  10.7686558  49.7686252  51.7556384  10.4495564
  23.9036059  36.9429302  64.7938538  24.0177846  36.8221903  65.7365227
  23.3929586  36.1828041  64.5151424  17.2725141   5.1432914  51.5535927
  16.3165987   5.1505882  51.5045595  17.4758673   4.4300178  52.1586704
  46.1350140  61.3305786   1.5475311  45.4829344  62.0239952   1.6484966
  46.6258010  61.3418343   2.3692551  69.6078548  76.6158702   4.5466843
  70.1245365  77.3961189   4.3454685  70.1569423  76.1137202   5.1488295
  36.3500777  55.3115847   8.6099282  37.0163766  54.6478548   8.7880841
  35.6735942  55.1547232   9.2687121  18.5452214   3.2277415  68.7212256
  19.2186728   3.7094090  69.2015281  18.6416855   2.3223755  69.0165800
  60.0143290   8.9783376  46.8598509  59.6005201   9.4557619  47.5789213
  60.5736351   9.6268761  46.4322948   0.6451233  65.0668409  20.2313271
   0.5266293  65.6986811  19.5221176   1.5805062  65.1036956  20.4311409
  46.9706774  28.5313940  32.9681897  46.3120079  27.8945374  33.2453299
  46.9173002  28.5306931  32.0124793  52.4766922  35.9173775  11.9110823
  51.9714117  35.7841825  12.7130687  52.3460054  36.8409634  11.6962707
  25.9749976  74.4434602  63.9303017  25.8552733  73.7697328  64.5996237
  26.5044442  74.0189887  63.2552147   7.2701049  75.7422972  58.8716269
   7.1721637  76.1203623  57.9977226   7.2264200  74.7966766  58.7297773
  32.7145624  54.3369913  54.0444183  32.8209543  54.4133568  54.9926186
  33.3673787  53.6881351  53.7816429  15.5858839  11.2964559  31.9728756
  14.9468756  11.4503348  32.6687360  15.5498695  10.3523743  31.8191099
  14.6206176  29.6015358  27.1684623  14.1224098  29.0320563  26.5821934
  14.3263865  29.3579602  28.0461478   9.9652964  26.4504290  49.8707342
   9.4166887  25.6768036  49.7412539  10.4906595  26.2448001  50.6440020
  82.7104924  18.1385815  57.5963306  83.1015254  18.4923744  56.7974854
  83.4008886  17.5997257  57.9826212  34.3998003   2.7851647  66.3397169
  34.2061353   1.8851659  66.0775566  33.5438776   3.1679979  66.5322447
  71.7618231  77.2170500  42.2206783  70.9878103  76.7334116  41.9321823
  71.4153842  78.0405165  42.5643539  45.8661652   7.3902828  56.9924974
  45.4520845   6.5579492  56.7644835  46.7704391   7.1580184  57.2036314
   3.8557133   6.6023695  42.6939869   2.9922494   6.9779080  42.5218439
   4.4714150   7.2833323  42.4230051  28.9738774  33.5990667  42.1145582
  29.0213513  33.4856033  41.1652946  28.6026907  34.4733787  42.2330046
  64.6856889  62.3362925  11.4709797  64.5726809  61.5983846  12.0700970
  64.9278507  63.0693486  12.0368519   5.2782282  63.6129668   3.2394495
   5.2514801  64.0006044   2.3646631   6.1297712  63.1779554   3.2827273
  19.3188420  47.9968276   7.0562926  20.1401350  48.0323144   7.5466480
  19.4262871  47.2537365   6.4625731  38.1906104  23.0537772  62.0345926
  37.3231053  23.4565759  62.0722914  38.7905669  23.7886548  61.9071674
  18.4263921  29.2757297  68.5164642  19.0497267  29.7721934  69.0467548
  18.3757138  28.4208441  68.9440536  18.9385152  11.9461691  53.8268518
  19.3199837  12.0538604  54.6981239  19.5099628  12.4539101  53.2507658
  41.4295912   5.0469023  50.8503962  42.0142126   4.7179243  50.1675940
  40.5599451   4.7466260  50.5862331  59.1758260  58.6332800   2.7528086
  58.7932644  59.3922665   2.3125639  60.0931534  58.6350169   2.4794235
  26.0923243   4.5366004  60.7323170  25.4358864   4.0426806  61.2236071
  26.8300128   4.6211964  61.3363791  52.0828152   0.8143613  43.5056686
  52.6669836   0.4751686  44.1838455  52.5364161   0.6279283  42.6836443
  68.6524057  12.2576892  69.5601130  68.0614471  11.7705977  68.9858818
  68.5204554  11.8690193  70.4248428  61.3746557  48.1618866   4.8131170
  61.5253577  49.0516462   4.4939795  60.9690318  48.2809522   5.6719055
  42.8797531  17.7701831  53.3404541  43.3868074  17.0523942  53.7198019
  41.9796228  17.4450219  53.3240032   7.9631293  14.0658808  61.5937805
   7.6110083  13.2262957  61.8893099   8.8559330  14.0857971  61.9383621
  31.4871383   1.4974904  41.2830687  30.8454037   1.3527338  41.9783783
  32.2527766   0.9912206  41.5545845   7.2074103  26.5891695  62.8517962
   7.8928810  27.0877457  63.2965231   6.5351099  27.2383142  62.6447773
  71.2471751  76.5187634  68.2649565  70.8324126  75.8159150  67.7647495
  70.5176333  77.0573340  68.5714579  30.9578109  20.1063466  23.6952591
  31.0666037  20.0786471  24.6458530  30.9255314  19.1869164  23.4309864
  15.3743958  25.1572657  51.0038328  15.1199818  26.0652471  50.8392811
  15.3389323  25.0674200  51.9561434  57.6870155  23.6326051  30.0627708
  58.3570910  23.9674711  29.4668698  58.1746197  23.1209016  30.7082462
  13.7333977  57.0421410  36.9283962  14.3842220  57.0301056  37.6301885
  14.0941691  56.4628363  36.2572169  31.9574213  69.0813875  46.6017103
  31.2957692  69.2256069  47.2782087  31.4872122  68.6336613  45.8983755
  21.6127729  10.0966203  46.8356800  21.5847826  10.8090580  47.4743319
  21.0568094   9.4148266  47.2128963  79.3159446  71.6873171   1.9387140
  80.0864038  71.1378410   1.7948284  79.6392307  72.5830986   1.8422976
  33.6209035  51.9089460  66.0800362  34.5180750  51.7245150  65.8020163
  33.6598659  51.8998718  67.0363998  37.6448989  17.0035291  49.5274496
  38.5436416  16.9220400  49.2083025  37.5547004  16.3009048  50.1712036
  15.5988541  66.4169700  30.9962368  15.3855648  66.8362195  31.8298864
  16.5551796  66.4321954  30.9582448  53.6328125  14.2970026  40.8859444
  53.2273006  14.6545672  41.6758442  54.4966984  14.7079253  40.8531904
  44.4534206  12.9054892  38.8942218  45.3770590  13.1261516  39.0143585
  44.0971518  13.6343527  38.3862209  68.2385215  40.7694737   3.5305300
  67.5697741  41.1315394   2.9492226  68.6121187  41.5329751   3.9706650
  14.7047913  26.1558723  39.1894031  15.4193509  25.5569077  38.9728904
  14.6789396  26.7723274  38.4575915  39.2152143  43.0634594  60.7771015
  38.7967443  42.2095823  60.8866787  38.8673353  43.3962774  59.9497890
  30.1141191  10.3634143  60.3923178  29.3676281  10.9517145  60.2788019
  30.6906390  10.8230376  61.0027266  19.9524271  21.9641089  30.0744677
  20.5601811  21.5616155  29.4540930  20.3375101  22.8191233  30.2665424
  74.3747768  48.7529775   3.3838930  73.4297285  48.9044478   3.3971348
  74.6515379  48.8869526   4.2903605  23.1287026  33.5399437  41.8553352
  22.2972822  33.7751651  41.4434528  23.7801814  34.0757418  41.4028645
  36.4949989   7.0045650  52.9047060  36.5026546   6.3142532  52.2416544
  35.5908060   7.3185664  52.9131222  21.3337660  26.9604397  60.4159498
  20.5766392  27.5101852  60.2140331  22.0865965  27.4703908  60.1169014
  23.0162993  68.6631233  18.3824778  22.3826352  68.1289859  17.9035223
  23.1722393  68.1798036  19.1938448  33.6014771  22.9456925  40.6373215
  34.0105271  22.2843838  40.0791311  32.7819920  22.5430059  40.9245872
  82.8163338  24.8342633  48.1618071  83.6961746  24.7647262  47.7912951
  82.3666286  24.0446901  47.8608608   1.3646759  46.4335060  55.4135704
   1.7967162  45.7795143  54.8641491   2.0118177  47.1324873  55.5077124
  27.1087113   8.5758517  66.3541654  28.0003348   8.9224551  66.3210518
  26.5881148   9.2060254  65.8560750  38.9991984  74.7228959  21.3254490
  38.8207111  75.5573060  20.8917084  39.4855103  74.9622776  22.1143952
   5.3278025  61.1508682   6.4268913   5.2164134  61.9430068   6.9525757
   4.9486693  60.4533007   6.9615832  16.0599864   2.0666800  51.5285301
  16.4329541   2.6490611  52.1903133  16.6271555   1.2957084  51.5409231
  13.0277956  31.1927819  69.9624205  12.5329924  30.4062200  69.7328138
  12.9153597  31.7744541  69.2105913  24.7954607  55.6191206  63.5095024
  25.4551291  56.0625458  64.0428352  25.2718019  54.9071169  63.0824375
  34.4262266  38.2371593  63.0258989  34.9976730  37.7782130  63.6415720
  34.9566817  38.3366919  62.2353649  45.0749848  75.0764182   9.1183844
  45.1603231  76.0297134   9.1050377  44.3447790  74.8930171   8.5272923
  56.9451270  78.8874557   1.9897976  57.3465619  79.3879225   2.7001610
  57.1526823  79.3852880   1.1990299  27.5116944  46.3373995  43.1782293
  27.1641016  46.8218899  42.4294472  26.9369364  45.5762100  43.2587004
  34.1537264  74.6999338  28.7349644  33.7427709  75.2362397  29.4129982
  34.9736551  74.4023612  29.1291752  55.3252190  77.6911435  42.3245811
  55.9619174  78.1009660  41.7390108  54.8867912  77.0363943  41.7811537
  16.2307584  16.8746531  56.2221003  17.0827579  17.2594845  56.0165930
  16.4089262  15.9399366  56.3259983  11.9539309  52.4117517  56.9579983
  12.0923698  51.5164900  56.6488361  11.0120881  52.4663067  57.1198225
   9.1708308  20.3226423  38.1965232  10.0224757  20.6629419  37.9224300
   9.3156624  20.0040913  39.0874672  32.2810864   7.9494894  44.5939112
  31.4808965   8.3521342  44.9312592  32.4438381   7.2114241  45.1812792
  22.2768497  49.6402025  61.8663073  23.1697083  49.4988108  62.1810198
  22.3797131  50.2027845  61.0987425  35.4813194  11.3641036  43.0512762
  35.7482791  11.1454678  43.9441156  35.2313232  10.5252790  42.6638412
  36.1797309   5.7145649  39.7448373  36.3846898   5.6740642  40.6789589
  35.7864046   4.8642054  39.5488381  12.3539820  76.5586192  62.7899790
  12.5412026  76.8026713  61.8835497  11.4187851  76.7326126  62.8965902
  17.3100388  20.5137086  61.4682341  17.6476324  20.5815792  62.3613501
  17.3426080  19.5777535  61.2703466   9.9997869  55.7144482   2.1982574
  10.6736603  55.1691062   2.6041251  10.4071894  56.0412819   1.3961142
  26.3937020   8.6456811  11.8415546  27.2548747   9.0091228  11.6353393
  26.3675189   8.6196262  12.7980423  31.5275669  22.6958370  62.1457529
  31.5411186  23.2122207  62.9516029  32.2978044  22.9902411  61.6596508
   0.7743499  18.3899343  64.0889311   1.5821618  18.4487033  64.5990467
   0.3454478  19.2353642  64.2213058  80.5247974  33.1469989  19.5336807
  79.6896410  32.7497458  19.2868304  80.3212070  34.0737486  19.6598327
  60.2979693  17.2546294   5.3058806  59.8167429  18.0001404   4.9468937
  60.9428177  17.6468351   5.8945885  25.2903128  13.7605131  56.5413094
  25.5208302  13.7355053  57.4700022  26.0653853  14.1224837  56.1118078
  12.9558342   1.9274159   4.6586361  13.2170981   2.7848597   4.9944391
  12.0182770   2.0133515   4.4859209  44.1039324  35.1421762  30.8760691
  44.2537928  35.8985996  31.4431643  44.9641037  34.9476910  30.5039024
  32.0854855  10.9753573  26.5165567  31.4684176  11.4354277  27.0855880
  32.9475331  11.2005603  26.8664002   4.6517470  34.3911290  67.3518419
   4.4728136  34.2100000  68.2745552   3.9983192  33.8784289  66.8760204
  70.6477837  77.4896557  30.7144046  70.0293879  78.1548970  30.4122901
  70.2130512  77.0807753  31.4627743  15.1702809   0.6835645  31.1920023
  15.3365040   1.4335895  31.7630219  15.6796324  -0.0289644  31.5781307
  38.6568689  31.1501455  29.4122863  38.4581709  30.2167940  29.3374157
  38.9161444  31.4114618  28.5286999  82.0743413  33.0019927  46.7258072
  82.5753791  32.3011374  47.1429348  81.7002810  32.5962186  45.9437227
  67.4095449  75.7233789   7.3603478  66.9986376  76.5395501   7.0753041
  68.1599221  75.6161215   6.7758265   2.1645963  24.3674278  45.4122496
   2.6440784  23.6941433  45.8949614   2.8457475  24.9392414  45.0582790
  25.6919020  34.0083380  34.6828976  24.8766010  34.0105982  35.1844158
  25.5837601  34.7153588  34.0467682  27.0309472  28.0593109  55.8443069
  27.4917793  28.1932926  55.0161076  26.7570591  28.9369488  56.1107111
  20.4768562  50.5783796  63.6625242  20.9873390  50.0387430  63.0588436
  20.0160789  51.1989641  63.0979109  36.2492108  18.1576526  56.1750650
  35.8447886  18.9634776  55.8536291  37.1549273  18.4030592  56.3639736
  52.4371800  73.3554103   5.9248629  52.4364862  73.4117367   6.8804016
  52.3872528  74.2651060   5.6312742  71.5997833   3.2440396  14.3116608
  70.8307511   3.1606121  13.7478676  72.2449154   3.6996813  13.7708988
  54.3572316  42.7912726   3.2767954  55.2878627  42.6516249   3.1017056
  54.0052685  41.9121754   3.4165850  39.7790551  39.6560931  49.7246647
  39.3884659  40.4725170  50.0363159  39.3297410  38.9712477  50.2199793
  25.2085692  73.6578133   8.1672754  25.7893029  74.4070413   8.0344715
  25.7389742  72.8981044   7.9269781  60.3721223  68.6787035   5.1803055
  59.9243197  67.8890874   5.4839649  59.6651873  69.2758372   4.9355545
  14.3721831  36.3585687  66.7786741  14.5367050  35.4284811  66.9339132
  13.4348524  36.4079428  66.5910387  53.9892101  25.3526115  37.1891856
  53.3375549  24.7131371  36.9017076  54.7343254  24.8236680  37.4742484
  46.7607209  73.0356648   3.9166775  47.5519893  73.4550002   3.5786143
  47.0721147  72.4728062   4.6255198  33.0401039  56.8718243  64.1757870
  33.0291510  55.9363747  64.3783760  33.8061285  57.2085953  64.6405745
  68.2080564  56.9946876  24.8900261  68.1662497  56.2491324  25.4888859
  68.5710010  56.6325703  24.0817108   0.5914297  64.3879766  49.3385267
   0.8127156  63.9784403  50.1749134   1.3462415  64.9403782  49.1351986
  18.6619416  74.8761339  67.0992804  18.1170550  75.5141837  67.5599527
  19.4956389  74.8893619  67.5693941   2.9932415  22.0073104  68.3222628
   2.8789762  21.8170500  67.3911476   2.3885512  22.7288771  68.4952497
  34.4409442  57.8048086  53.5843897  33.7066221  58.1307125  54.1047621
  34.0413189  57.5040388  52.7682590  42.2465134  17.6176643  67.0063400
  42.0189428  17.6218164  66.0765982  41.5527153  18.1271553  67.4250221
  14.3536782   5.6576115  52.4066830  13.4878302   5.2624875  52.3046303
  14.2142785   6.3874501  53.0101204  34.0905976  18.2213819  60.0583744
  34.4407988  19.0865076  59.8458910  34.4394064  17.6476324  59.3761873
  29.2584419  72.6109838  64.7542953  29.9145103  72.4562263  64.0746975
  29.3862486  73.5253906  65.0067949  35.3931587  32.7843209  28.8114205
  35.8357828  32.3083468  29.5141068  34.4674032  32.5671549  28.9211979
   8.7584841  13.2653522  35.2270484   9.3678761  13.7073362  34.6358442
   8.3613485  13.9731038  35.7345963  40.1903629  29.4752765  45.1108694
  39.9813175  29.3073583  44.1919947  40.9047318  30.1117110  45.0815439
  21.4465874  38.1705733  21.1443653  21.7278355  38.0800839  22.0548287
  22.2606533  38.2720061  20.6511631  74.0327198   4.9437971   9.1300144
  74.1780228   5.8165522   8.7647476  74.1316492   4.3523760   8.3839169
  65.6015442  78.9167797  49.1022539  65.9407095  78.8665865  49.9959469
  64.7680155  78.4473715  49.1356945  13.0900383  30.1123857  56.9470549
  13.0119538  30.6827497  56.1823177  13.8884366  30.4071212  57.3851490
  32.5741124  54.0274954  62.2066164  33.3926105  53.5869312  62.4350882
  32.1791530  54.2511368  63.0493641  47.9534874  73.8656642  17.9647484
  48.6506781  74.3712976  18.3824768  47.5559923  73.3692911  18.6801853
  12.5768340  35.5365825  60.5742931  12.2792828  35.0414920  61.3375616
  11.8215156  36.0690308  60.3248453  26.6166830  16.9461906  62.0251322
  26.4622259  17.8531194  62.2894335  27.3282838  17.0004940  61.3872385
  24.1418910  25.9573841  24.2516899  23.2450533  26.2487102  24.0872383
  24.6362805  26.7664552  24.3828940  40.1950026  25.7089496  65.6544065
  39.6212244  25.0153923  65.3288507  39.6707535  26.5066481  65.5831861
  28.5620564  17.2355910   4.3473854  28.5579985  18.1927843   4.3477907
  27.9178112  16.9936295   3.6820784  17.7882314  54.2879534  39.7558618
  18.7395823  54.3613911  39.6799016  17.6524472  53.6137676  40.4216433
  79.2383731  26.2264657  36.0205102  80.1932747  26.2643695  35.9661222
  78.9716650  27.1311665  36.1836505  35.9488654  24.5435691  61.6473150
  35.6332946  24.3776441  60.7589912  35.9048700  25.4949260  61.7433262
  47.8572926  36.5466466  17.8313294  48.2615158  35.7436224  17.5027123
  48.1223545  36.5895911  18.7500897  48.2515049   5.8289719  25.6312060
  48.3962250   5.2105987  24.9150348  49.1210938   6.1791080  25.8247256
  17.1417466  70.6937660  39.3821120  17.3169413  71.5408773  39.7919178
  16.8967381  70.9091402  38.4822154   4.1486266   1.2999067  29.3216801
   4.5664740   0.7422900  28.6654043   4.0782183   0.7445109  30.0980878
  45.1930830  78.6047795  18.6015263  44.4449994  78.0560710  18.3658924
  45.9556768  78.1154110  18.2929745  29.4519424  22.7593803  52.8637266
  29.3603683  23.2985163  52.0781231  28.6511707  22.9237556  53.3617020
  18.0270290  41.9660473  55.6704855  17.6469231  41.5750599  54.8837948
  18.5208583  41.2540340  56.0771751  58.6156130  46.3727808  49.3011761
  59.5719385  46.3564014  49.2636442  58.4159088  46.7937660  50.1373100
  34.0161347  40.4649401  55.7483816  34.5928192  40.6502485  55.0072145
  34.5012474  39.8310614  56.2766743   6.0758233  43.0790615  35.5607057
   5.6479871  43.0409193  36.4161205   6.5134430  43.9302921  35.5495286
  14.0530384  22.0653105  68.1342649  13.6708438  22.4516845  68.9222193
  13.5704076  22.4674153  67.4120378  53.9400539  79.7376611  18.7268009
  53.7226162  80.6059053  19.0660706  54.4716367  79.9103692  17.9497471
  36.2626767  27.3440433  47.9934406  37.2002554  27.3036885  47.8048897
  36.1951685  27.9283452  48.7485981  16.0034001  60.6580734  13.9133298
  15.8493483  61.0881138  13.0721605  16.3827991  61.3415003  14.4657922
  10.7706809  16.2794793  61.2657881  10.5410600  17.0624042  61.7663193
  11.0348070  15.6407642  61.9279861  38.8525200  76.6925383  56.3761377
  39.4638801  76.5972471  57.1064711  38.4343815  77.5409698  56.5229464
  80.8075485  68.5052373  11.1249104  80.6952390  68.8425329  12.0136490
  81.3653717  69.1515877  10.6921330  26.9179773  54.4841719  46.0278988
  27.0568800  53.6054420  45.6746674  27.6329374  54.6070623  46.6523695
  79.5016679  60.2985051  11.9162598  79.2752370  61.0154297  11.3238182
  78.7429771  60.2166071  12.4941101  47.5033855  43.8618422  49.0080023
  48.4069729  43.6404371  48.7827587  46.9947910  43.0976582  48.7367296
  27.3379445  60.1121902  67.3639870  28.1925988  60.3681183  67.0171499
  27.4871659  59.2530394  67.7587318  15.0508058  55.0930643  35.6625128
  15.5722070  54.8683023  36.4331317  14.3252027  54.4688797  35.6739044
  33.1134391  72.4033594  44.3336391  32.7832341  71.5790081  43.9763737
  33.0715966  73.0163336  43.5996485  46.8573380  64.6389103  48.0179358
  46.8133450  64.0987253  48.8069201  47.0624304  65.5167294  48.3398056
  54.6100729   3.7220068  37.5774231  53.9252108   3.5733671  38.2294216
  54.9515741   4.5922823  37.7829113  11.4591750  46.3520052  16.7583790
  11.8513020  46.3800766  15.8856335  12.1886404  46.5223041  17.3542919
  37.6280951  20.5649877  60.4654360  38.2425499  19.8440528  60.3278589
  38.1686640  21.2793899  60.8025503  43.3942804  71.6454437  15.4330673
  42.6538560  72.0260384  14.9606743  43.0545423  71.4717104  16.3109150
  63.9474583  68.9317322  51.2157011  64.8196077  68.6713934  51.5120268
  64.0107822  69.8781347  51.0870981  60.9288120  77.3415565  41.7253208
  61.8459225  77.0779514  41.8005037  60.6116295  76.8854475  40.9458399
  57.4764252  58.3096600  40.3595781  57.9569149  58.5649538  39.5720601
  57.0440912  57.4896336  40.1210880  51.7755413  41.5928650  49.8511076
  51.3503599  40.7592010  49.6499681  51.2302065  42.2502470  49.4190359
  48.0674362  47.0856524  49.9376202  48.8501310  46.8320751  49.4484138
  47.7929783  46.2839079  50.3827190   4.1377552  63.8735392  15.2375641
   4.7984894  63.4707930  14.6741238   3.5473116  64.3215253  14.6318188
  58.8223315  19.4432326  14.2305603  59.6435494  19.8219509  13.9168682
  59.0922519  18.7046929  14.7763863  58.3509684  47.3638964  53.2473660
  58.5764313  46.6145325  53.7985945  58.9586735  47.3101139  52.5097799
  82.2603283   2.8669493  46.7288256  81.9548282   2.4652903  47.5421906
  81.4787874   2.9177993  46.1785173  20.5158156  23.1092329  23.2802811
  20.1309126  22.9105492  22.4266949  20.0799912  22.5088616  23.8851395
   3.0032914  18.1103297   0.9122792   3.7675255  17.9868193   1.4752379
   3.3685415  18.3664818   0.0653973  69.0113601  79.5834734  29.8964825
  68.1416092  79.9086335  30.1289406  69.4043550  80.2929857  29.3881645
  20.5938458  51.6100454  31.6767025  21.3746071  51.9918346  31.2756085
  20.1807117  52.3396063  32.1385431  39.1460967  51.9385576  43.1468773
  39.4406056  51.1586046  42.6765871  39.9465728  52.4385834  43.3063841
  84.4850454  70.0817277  31.4965000  85.3101120  70.4849174  31.7665615
  83.9173898  70.1612475  32.2630921  24.7963780  18.9072628  23.3309784
  24.7713917  17.9510517  23.2953396  25.5676191  19.1460343  22.8167668
  30.2898335  63.5242844  56.1855221  31.1016726  63.3880424  55.6970692
  29.7443247  64.0509319  55.6013155  64.4446039  66.2706900  61.6855907
  63.8572264  65.7154894  62.1984005  63.8988400  66.6025400  60.9726763
  31.2312382   1.5268822  21.6012230  31.9204348   2.0930453  21.2537995
  31.2831514   1.6410656  22.5501671  15.6980150  35.1689692   3.5302534
  16.4743202  34.6736975   3.2689324  15.6488817  35.0541230   4.4792690
  22.0871520  50.8386135  55.2467251  21.2503314  50.9595585  54.7980261
  21.9206500  50.1404333  55.8800125  46.5997458  52.0166588  64.3496752
  46.1450577  51.8390417  65.1730490  46.9684887  52.8925800  64.4638109
  57.5513157  78.5392787  15.8453884  58.3104477  78.7364843  15.2966919
  57.7546701  78.9423444  16.6894379  49.1917706  47.0924520  53.3674765
  49.1941357  46.4194918  52.6867771  48.5411596  47.7294588  53.0722570
  43.7761927  40.4343462  58.5606384  43.3117294  40.1472235  57.7744675
  43.9531183  39.6265697  59.0427446  20.5944276  72.3975563  50.0424385
  21.5438986  72.4072552  49.9214220  20.4645967  71.9585037  50.8830404
  54.3859434  51.2374496  66.1166859  53.5103798  51.2476444  65.7300138
  54.4787645  52.0995569  66.5221357  50.2131367  43.0614901  48.2006836
  49.7437286  42.2487926  48.0125237  49.9981785  43.6375904  47.4671078
   4.6323174   5.3719445  19.8959198   5.4680603   5.8361788  19.8484936
   4.7262734   4.7856541  20.6466999  56.5567303  23.6503744  69.4381428
  56.9316196  23.0973268  68.7527037  56.4274263  23.0586410  70.1793337
  52.3501682  50.7717657  61.5846014  52.8525352  51.4754343  61.9953489
  52.1817684  51.0849380  60.6958961  41.9491720  58.7345457  60.7296991
  41.0506487  59.0640306  60.7115364  41.8570900  57.7840233  60.6644058
  61.1710033  42.0357221  10.1763001  60.4693327  42.4145299   9.6467772
  61.9543466  42.1220841   9.6330300  13.0280169  66.4116862  28.1918183
  12.8476389  65.5841854  28.6378422  13.9818009  66.4400485  28.1161633
   1.6288655  16.6328306   8.5661831   1.9143217  16.8624373   9.4505062
   1.2949484  17.4525948   8.2018748  34.2785096  62.0769405  50.6219769
  34.9498892  61.9569016  49.9503565  34.5688963  62.8432369  51.1166525
  57.6242542  52.4713612  53.3417273  56.7411566  52.7807379  53.5433722
  57.7555418  51.7244244  53.9257479  27.4832940  49.5852852  37.8816390
  26.5616632  49.8279619  37.9707098  27.9546285  50.2428102  38.3932400
  49.9595737  65.0711679  56.0146189  49.2089701  64.9797392  55.4277039
  50.1828718  64.1731787  56.2595510  51.5914171  16.2496252   2.6349821
  52.4112337  15.7937546   2.4444380  51.1997955  15.7490845   3.3507529
  20.9037137  48.9430618  36.4286351  20.0155044  49.0611601  36.7653394
  20.8087039  48.9982414  35.4777598   7.5396060  42.8415251  62.3636723
   8.0388259  42.3088360  62.9827452   6.7710971  42.3100996  62.1557999
  29.5252109  69.9192333  57.9233599  29.8548102  69.0685892  58.2131815
  28.6209893  69.7485781  57.6597500  16.5497315  39.3816805  46.4218044
  16.3067734  40.2900934  46.2429667  17.4412048  39.4355345  46.7662001
  64.9490023  41.8886423  65.3826523  64.3121338  41.2708330  65.7417393
  64.5190144  42.7412844  65.4485416  46.2185049  58.8743830  69.1519499
  45.4498959  58.9146566  69.7210264  46.5843582  59.7584391  69.1806459
  84.2837257   0.8418150  26.9199410  84.7928852   0.3218718  27.5417462
  84.8952526   1.0302468  26.2080708  67.8819990  66.9101238  46.8680334
  67.8308010  66.3104010  47.6123095  68.8196898  67.0044279  46.7004919
  37.5092459  46.6970444  65.5737734  37.3853850  47.2965336  66.3096380
  37.7288938  45.8593893  65.9816027  61.6388321  69.0194559  60.8689928
  60.9987497  68.8090324  61.5488815  61.8153811  68.1826782  60.4390240
  28.3444851  19.5789643   5.6594887  27.4122780  19.4300194   5.5012455
  28.3833807  19.9292584   6.5494433  81.4439124  24.3175955  17.2610035
  82.2686214  24.3369074  17.7465000  80.9904498  23.5414524  17.5899449
  16.1040640  45.1440573  57.7070951  16.3545609  45.6683779  56.9464540
  16.5596986  45.5549669  58.4417915  31.6927879   8.8694830   2.4355307
  32.1395081   8.0230351   2.4496212  32.3671024   9.4916697   2.1627512
   6.3046223  44.9511576  43.9842415   5.6274152  44.3013906  44.1724586
   6.8539608  44.9585104  44.7680807  43.2303333  16.8483329  69.5521784
  42.9421282  16.8656051  68.6395597  43.7319756  17.6563585  69.6602631
  45.1014599   5.5952685  47.8934050  45.7588384   5.0453799  48.3196735
  45.2492330   6.4691394  48.2549810  35.2476406  36.9819093  65.2926159
  35.7341170  37.0692873  66.1123323  34.4510746  36.5102100  65.5359507
  15.7502389  44.0019417  47.0132971  16.2671101  44.3210220  47.7530718
  15.1450074  43.3687830  47.3993540  54.6944635  34.1400309  11.5597668
  54.0828055  33.4111185  11.4558735  54.1348188  34.9058409  11.6884556
  65.6779497  10.0405331  17.4833050  65.2154558  10.7771273  17.0836010
  66.3564127  10.4476090  18.0220165  35.2211731  19.0087958  15.5610123
  34.2768782  19.1560049  15.6146374  35.5137938  19.5855351  14.8553410
  14.2652154  42.5819874  48.9884615  13.7568283  43.3610582  49.2138863
  13.6074805  41.9074202  48.8194084  47.0565939  57.9525995  42.5234509
  47.1081924  58.5107327  41.7475319  47.8819370  57.4677896  42.5250769
  60.7709802   0.7226820  18.5227719  61.6358817   1.1260577  18.4488621
  60.8976230  -0.0058250  19.1306153  51.3222790  54.2178869  49.4135332
  52.1681404  54.6642637  49.3747663  51.2307215  53.8032818  48.5556555
  70.2230167  56.4392710  11.1374664  71.1387777  56.2970686  10.8978999
  70.2343607  56.5174627  12.0913994  30.9064245  72.1112776  56.8085909
  31.6758561  71.9189262  56.2726736  30.5434799  71.2520647  57.0236731
  45.8875322  56.9279385  58.5391998  46.2473345  56.4390278  59.2792940
  45.8362007  57.8314018  58.8512135  44.2640591  65.2253723  43.4668589
  44.4985485  65.4320621  44.3715811  43.4099436  65.6385612  43.3404255
  84.9494714  13.0286427   8.5269489  85.7047815  13.4896870   8.1620159
  84.5149559  12.6416369   7.7669134  51.9868010  22.5830384  16.4873829
  52.7828901  22.3190089  16.9486466  52.0859640  23.5264178  16.3591995
  57.8603285  20.7812853  45.0493756  57.6163023  21.6043873  45.4726830
  57.2166460  20.6718941  44.3494168  41.8942118  53.1241035  54.0288496
  42.2199774  53.3265638  53.1518555  40.9842777  52.8607178  53.8914585
  41.1888664  13.0078335  22.9845562  41.2608688  13.9560290  23.0940094
  42.0787161  12.6826973  23.1212654  50.5438614  39.2675757  48.8083649
  50.1171589  38.5324383  49.2485094  49.8872948  39.5912814  48.1916285
   9.8048830  72.6824188  54.5330000   9.5982045  73.6158133  54.5808887
   9.2349946  72.2770739  55.1865673  66.9498778  54.2765999  62.8883553
  66.3835229  54.2870378  63.6599541  67.5259281  55.0322866  63.0038357
  44.2188501  75.7502270  62.4288893  44.6485806  74.9169111  62.6216412
  44.5346689  76.3454580  63.1087303  33.5834980  54.3760300  64.7893429
  33.3984232  53.5072088  65.1458883  34.5334792  54.3897152  64.6727991
  78.2774855  75.4494381  29.4677687  78.9517296  75.3801918  30.1436615
  77.9673715  74.5520878  29.3459988  57.0017132  70.8081534  27.8848019
  57.0787201  70.4969337  26.9828930  57.9053459  70.8728864  28.1938114
  41.1878300  49.9158764  52.4731445  40.5718327  49.2335081  52.7398968
  40.9587669  50.1027393  51.5627337  58.6280606   8.1110926   7.8872051
  58.4245405   8.3368130   6.9795361  57.9658011   8.5713787   8.4027472
  46.4551514  16.2829514  16.9491043  46.8556898  15.4597779  16.6694966
  47.1665829  16.7640658  17.3717537  21.3401604  71.9081497  67.2216988
  21.5877175  72.5580120  66.5639591  22.1477914  71.7385626  67.7066755
  24.6646881  44.0859270  65.3301668  23.8438630  44.5395470  65.5217505
  24.6541643  43.3193970  65.9033632  69.2740965  66.7364550  58.7084246
  68.8049650  67.5708055  58.7070274  68.9636803  66.2858248  57.9230547
  54.3119297  79.1395738  37.9700604  55.2346334  79.1781881  37.7183571
  54.1978464  78.2590177  38.3276024  12.8265303   7.0349999   2.4628773
  11.9960278   7.2935791   2.8624191  13.4649723   7.1018143   3.1729212
  74.6527100  73.7241077  29.3842936  74.8324490  73.6657286  28.4459352
  74.4596434  74.6495914  29.5340586  17.3922825  70.0492382  62.3307514
  16.7434967  70.6500387  62.6972866  17.6555037  69.5009518  63.0698872
  35.9537911  27.3510528  61.3691568  35.3869963  27.5735521  60.6305981
  36.1835623  28.1952024  61.7575502  14.4508474  15.9364243   2.7854672
  14.5147007  15.9567995   3.7403193  15.3594606  15.9435292   2.4844542
  52.6310062  44.8913431  64.2133760  51.9613981  45.4749060  64.5701885
  53.2527399  44.7728300  64.9314499  71.8000755   9.3472426  49.4535303
  71.2594566   9.9425357  49.9727535  71.1907730   8.6751502  49.1481352
  68.8549232  43.6581516  53.7724638  69.7803497  43.8895750  53.8515997
  68.4067392  44.4969177  53.6637163  56.7065161  35.7724161  12.5841942
  56.1056631  36.5064259  12.4559727  56.3230246  35.0574274  12.0763054
  70.6651211  50.3237009  52.3548508  70.8311367  49.3810225  52.3497725
  71.5305233  50.7187366  52.4609184  45.1755875  33.3196993   0.4375687
  44.9686974  34.2384787   0.6086436  44.4438379  33.0041333  -0.0927076
  32.8625210  10.9945147  62.1868896  32.5206574  10.6296389  63.0031204
  33.4480198  10.3171199  61.8484259  24.8922372  41.0351181  59.6943903
  25.3623486  41.7197943  60.1702499  24.3624949  41.5093899  59.0535545
  54.9081247  10.1366301   0.1085463  55.4641550  10.4545994  -0.6027612
  55.5151957   9.7157116   0.7172480   5.0079020  10.9153788  58.7207127
   4.1699990  10.6307357  59.0855694   4.8895701  11.8496840  58.5495043
  77.7924109  45.6511497  12.3123085  78.3317375  45.3783226  13.0545497
  77.3928308  46.4733934  12.5960064   8.2099017  11.9062465  38.2935047
   7.6857766  12.1599620  39.0532112   7.8689965  12.4423068  37.5775099
  66.6696453  42.1272612  47.6850796  66.7388058  41.9959497  48.6307049
  66.8359327  41.2622929  47.3103619  82.7196273   1.2000315  36.4492154
  82.4422321   0.3273528  36.7279768  81.9231758   1.6069739  36.1081886
  25.6927412  16.0671921   8.2960406  26.4593428  16.3697787   7.8092184
  25.0228756  16.7287751   8.1233444  84.1565809   2.3402541  63.5770607
  83.3700952   2.8762381  63.6789560  83.8324937   1.4397090  63.5626221
  22.2324913  15.8648463   8.1327477  22.7409666  16.5845318   8.5065546
  22.7714556  15.0880022   8.2819405  19.2285347  51.6542673  38.9952755
  20.0299120  51.5343761  39.5048332  19.5344150  51.8984890  38.1217623
  34.2282885  16.5163870  21.3394871  33.6147230  15.9113570  20.9227028
  34.9522656  16.5895100  20.7176056  54.2312002  74.9222231  35.9095597
  54.8504734  75.0130177  35.1853442  54.3297386  75.7310963  36.4117956
  49.5591307  64.6682310  46.6112137  48.9530134  63.9898348  46.3135147
  48.9983511  65.4148817  46.8216228  63.5256180  29.2165320  61.0453510
  64.2343959  29.6698230  60.5888462  63.1815586  29.8661654  61.6584110
  61.1066103  58.2440281  41.3084984  61.7236567  58.1415844  40.5839348
  61.6039133  58.7065792  41.9830132  11.0458564  57.5230789  35.6712985
  10.2334689  57.6133251  35.1731849  11.5618895  58.2920790  35.4292750
  79.5036897  17.3531573  49.1889191  78.7251482  17.9009383  49.2891026
  80.2376470  17.9568427  49.3034029  27.4776292  72.4867821  33.1729698
  27.9203749  72.8066349  33.9590359  27.4898171  71.5338278  33.2622075
   0.8192547   4.6411746  58.8937759   0.7022675   5.2366298  58.1535196
   1.0870417   3.8131659  58.4951162  69.9021482  63.4250402  54.0979242
  69.3783569  62.8104401  54.6118689  69.9251318  64.2217398  54.6279955
  45.2522278  77.8883266  32.6597929  44.4837379  77.3644543  32.8860998
  45.5324936  78.2734871  33.4900546  58.3182573  70.5617237  68.9570618
  58.7974119  69.8712492  69.4151926  58.5936928  71.3708305  69.3880081
  36.7594116  17.8794213  39.7682610  35.8258122  18.0233832  39.6136608
  36.9775837  18.4732027  40.4866257  25.5759447  37.6068182   9.1716423
  24.9832695  37.1602459   9.7762480  25.2304667  37.4022789   8.3027115
  29.5598626   4.6188143  59.2008018  29.3113899   4.3748716  58.3091831
  29.0813446   5.4305387  59.3691969  80.1258469  63.2071495  53.1905127
  79.4988441  63.6296082  53.7775660  80.9757519  63.5601950  53.4536695
  53.3128088  32.9085512   8.1860485  54.2511290  32.9731674   8.3638182
  53.0869024  32.0073529   8.4163561  61.0393381  64.7850370  59.9676704
  60.2610159  65.2926445  59.7379303  61.7725849  65.3205776  59.6647215
  27.8721207  33.2440443  32.3864880  28.7245148  32.8378649  32.2294083
  27.2966021  32.5133200  32.6124420   8.8447564  11.0098954   7.2685566
   8.2304304  11.2527437   6.5758362   8.3050340  10.9487505   8.0567160
  74.2110968  41.4008904  22.0153737  73.9103460  42.0758152  21.4068890
  73.9621305  41.7291927  22.8793550  62.9945755  68.3541965  23.8529754
  62.4526072  67.9783773  24.5467043  63.8237619  67.8798056  23.9133000
  30.2716279  75.0623131  65.2215195  30.4833245  75.8455563  64.7136402
  30.8069015  75.1371908  66.0115242  67.0303211  12.7314322  29.1063285
  66.8655691  11.8232100  28.8529420  67.3601350  12.6738589  30.0030684
  41.0723465  30.0482197  33.2637348  40.5704992  30.1983567  32.4625912
  41.6632193  29.3277045  33.0447521  15.5570877  63.9415503  51.8561792
  15.6520987  63.6031771  52.7465200  15.1032138  63.2446671  51.3822699
  49.0830517  68.5194206  64.9521208  48.9421606  67.8688049  64.2643118
  50.0319481  68.5342121  65.0770760  22.2969025  36.5579291  39.1136685
  21.9329231  35.7139464  39.3809548  23.1746119  36.3496657  38.7935391
  59.7983694  51.9384098  68.6338949  59.7570848  52.6656818  69.2548609
  60.6657124  52.0123148  68.2357931  37.6393574  25.3817196  15.3127709
  38.0227488  24.8416729  16.0038605  37.9397696  24.9777193  14.4986668
  53.5873303  23.0148166  51.2654161  52.7415976  22.7812808  51.6480732
  53.4596262  23.8999980  50.9242630  24.5723533  29.2527056  35.3060961
  24.1504573  28.4555292  34.9855638  25.3645705  29.3345261  34.7751141
  25.1677918  60.6735420  51.9734192  24.4877601  60.0078726  52.0767450
  25.1080084  60.9364605  51.0549784  16.3403901  72.9356816  18.5287323
  16.0013112  72.6154163  19.3646088  15.8784970  72.4184611  17.8689137
  53.6259699  29.6407795  67.8195715  53.5624838  29.0064287  67.1055651
  52.7329397  29.9671435  67.9301071  77.6729584  36.0364604  53.6245489
  77.7780104  36.7897344  54.2057323  77.1762657  35.4023671  54.1417027
  38.9335632  74.8295450  38.2668829  39.6959019  75.3814602  38.4414148
  39.2129660  73.9489889  38.5174537  65.9463453  42.0381451  43.4107494
  66.3631344  42.8774834  43.2157564  65.0273514  42.2571325  43.5647917
  47.1761227  68.1514072  58.1543303  47.3384809  67.3006868  57.7467155
  47.8859377  68.2525063  58.7884998  60.5532265  55.7031155  56.2037373
  60.2678299  55.8265400  57.1090269  59.7442961  55.5451679  55.7170057
  50.3751326  49.3204832  62.8714180  49.7458172  50.0358438  62.7794409
  51.1660337  49.6399212  62.4370623  57.7913761  44.4820309  51.9971848
  58.7215853  44.5234489  52.2190619  57.4003601  43.9631128  52.7000761
  53.4622717  62.7544737  43.2594776  53.1113338  61.8814754  43.0835581
  54.3208790  62.5931120  43.6506128  52.1756268  59.3076420  66.7016840
  51.3150263  58.8904142  66.6627884  52.5305510  59.0458393  67.5512266
  72.9849815  61.2354183  52.4010706  73.4079933  60.9601021  53.2143927
  72.8246450  62.1716309  52.5194979   9.1741427   9.6216338  46.2761354
   9.6184214  10.0624602  45.5519009   9.8752984   9.1760390  46.7515945
  23.7822247  46.7933893  56.4651012  23.5803390  47.4007463  55.7533455
  23.8440108  45.9380770  56.0398245  56.5502262  35.2736831  66.3871050
  57.0414162  36.0715222  66.5830994  56.1937284  35.4210114  65.5110693
  50.9920502  68.6831713  61.3514137  51.6921663  69.2875147  61.5980721
  51.4475346  67.9282284  60.9788227  84.2552757  68.0520487  29.6090269
  83.4211349  68.3348274  29.2342138  84.4034576  68.6497498  30.3418493
  81.9533310   8.8500541  49.5699072  81.8026456   8.0853217  50.1255274
  82.8151331   8.6982005  49.1820049  84.3377495  72.5358248  29.6611810
  84.4022751  71.7743397  30.2375555  83.5111141  72.4134827  29.1943336
  31.2486720  75.6307220  38.0412483  30.5635405  75.6070709  38.7092805
  31.9576049  76.1330175  38.4429216  44.3298912  59.3670893  62.0407248
  43.9217663  59.7406912  62.8218079  43.6112309  59.2766380  61.4149666
  40.6477785  57.4543285  15.0845730  40.1159716  56.9583511  14.4621420
  41.2364721  57.9732084  14.5364559  64.4036874   7.7565997  44.9584055
  64.5707306   7.6499694  45.8948660  64.9377451   7.0805304  44.5413399
  27.5690389  68.9604187  59.9070692  27.0491266  68.2746506  59.4879627
  27.5777984  68.7216234  60.8339596  33.8379496  15.7877083   2.6234760
  34.7029131  15.4911108   2.9064884  33.3663099  14.9823637   2.4108496
  30.8980187  14.9400370  44.1991472  30.4481133  15.7304900  44.4974661
  31.8191250  15.0954001  44.4081163  53.4093666  61.0411310  38.2649779
  52.7949619  60.4977512  38.7584114  52.8673649  61.4813375  37.6102400
  43.8212507  56.8296643   0.6619396  42.9176586  56.8710060   0.9750500
  44.1859263  57.6902313   0.8685198  65.3978920  55.5549526  65.2584362
  65.3239346  55.2071285  66.1471319  66.1211824  56.1801624  65.3053522
  12.6955031  73.7267828  54.6278095  13.1860064  74.4707584  54.9772882
  12.2070884  74.0881014  53.8881207  39.6172398  13.8209315   9.9233618
  39.3223970  14.5252486   9.3460980  39.4650763  14.1559716  10.8070030
  52.8406191  70.2909184  54.6423054  53.0056238  70.5249977  55.5556583
  52.0589066  70.7896233  54.4047070  62.2386169  80.5710506  26.0984993
  62.7309895  80.0198078  25.4902816  61.4881277  80.8779335  25.5897546
  57.5861249  11.1845820  60.3743219  57.5694356  10.4804461  61.0225201
  56.9202718  10.9358065  59.7332430  76.7376644  42.2341652   6.0459557
  76.5039891  41.7002983   5.2866068  75.9213871  42.6683064   6.2938442
  39.8618095  26.0663195   6.2772169  40.5166977  25.7545204   5.6526127
  39.3331736  25.2934428   6.4758148  70.3257799  58.8844395  32.6989436
  69.5632315  58.5020781  32.2647214  70.8077002  59.3207836  31.9963837
  74.8518705  66.4911509  55.6443691  74.7028160  65.7377911  56.2157345
  74.0522861  66.5577888  55.1223946  33.9798468  26.7772694  35.7677880
  34.0017193  27.4410553  36.4570942  34.8642510  26.4112110  35.7596340
  14.2897337  29.4338722   3.9539805  15.1258867  29.5997925   3.5186091
  13.7147158  30.1328917   3.6426010  40.9362078  58.5586548  64.0970564
  40.7492781  57.9204464  64.7855186  40.4802895  58.2201576  63.3264780
   3.7153252   3.3504527  54.5649290   3.2981261   2.9597991  53.7970972
   4.5979794   2.9801886  54.5723057  21.3256001  41.4787054  39.7449803
  20.9821653  41.4581490  38.8517499  20.8130145  40.8202076  40.2138805
  64.2086944  17.8223460  64.8075151  64.5485649  18.2166713  64.0042543
  63.2576713  17.8438418  64.7010899  63.8755560  62.1592331  54.5276690
  63.4765244  62.7878761  53.9261580  63.3261490  62.1950150  55.3106785
  54.8627567  65.6840611  66.0289049  55.5484962  66.1675835  66.4895535
  55.3033304  64.9021816  65.6960583  37.0347612  44.4608422  20.8920326
  37.0751350  45.2917404  20.4185238  36.7796057  44.7044201  21.7818680
  11.8072756  75.2925780  32.0408955  11.5478667  75.9326818  31.3781681
  12.2959431  74.6287158  31.5543595  63.3168333  51.8586178  13.1289616
  63.9047163  52.1665592  13.8187351  62.6770514  51.3124485  13.5856953
  31.8835610  26.7196007   1.7814436  31.7858141  26.9799300   2.6973620
  32.0102423  27.5432749   1.3105478  72.9320765  77.2611761  34.7284007
  72.3419046  77.6660728  35.3640008  72.5815821  76.3791656  34.6041298
  44.0675705  33.5256882   7.1919003  44.2593878  34.3325062   6.7138996
  43.9942520  32.8560705   6.5118494  42.0598858  31.7209025  39.3674603
  42.5173157  31.0012312  38.9326420  42.6121586  32.4864216  39.2086926
  46.6029167  77.5840902  68.3082771  45.9216976  76.9378328  68.1224680
  46.1333704  78.4158754  68.3705997  65.6012964  75.1249027  31.1692476
  66.5433025  74.9880123  31.0686541  65.2172041  74.7328281  30.3850412
  71.1308973   8.2317419  24.7018852  70.6744021   8.3283348  25.5376568
  71.2777346   9.1294880  24.4040241  33.7459486  11.9180603  14.9017182
  33.1724661  11.6932555  14.1690388  34.6314114  11.8210335  14.5513287
  76.5651125  31.3601990   3.1541958  75.8925158  31.1592264   3.8049307
  76.5852112  32.3165007   3.1179991  27.0060921  65.8162642  41.3920641
  26.2323713  66.0197783  41.9175816  27.7318597  65.8384371  42.0157623
  72.3360920  77.2029066  56.1523294  73.0935526  76.9108629  55.6451845
  71.6032457  76.6971636  55.8010626  84.7117996  79.8986959  44.4099140
  84.7141171  79.0888548  43.8996410  84.0634632  79.7466898  45.0975084
  49.5523270  16.6464751  37.2889113  49.5216473  16.6565554  36.3322568
  49.1756161  15.8006900  37.5317335  71.9963741  43.3494377  66.3560200
  72.4258471  43.2621098  65.5050421  72.6926088  43.6352110  66.9474745
  39.3163651  25.4573174   0.2407398  39.3151014  24.5034237   0.3202477
  40.2273386  25.6805153   0.0495615  54.8783827  52.3835754  53.7488127
  54.3257141  51.6416359  53.9944077  54.2816496  53.1318331  53.7329435
  61.2063217  71.5842104  42.5049162  61.8677855  71.5083218  41.8172121
  61.6272640  71.2195444  43.2834101   5.3994196  58.1599732   7.1543684
   5.6505197  57.7291603   7.9714241   4.5419472  58.5430832   7.3393002
  68.7139255   5.7432242  37.5124588  69.3408210   5.0501223  37.7194443
  68.8160235   6.3780947  38.2214966   0.5798634  34.5631068  50.5733013
   1.3497265  34.5096438  50.0070095  -0.1462404  34.7377055  49.9745369
  64.8124227   5.5313342   0.7971714  64.0385494   5.5284827   1.3605028
  65.1493463   6.4252417   0.8575754  76.5424976   9.6335261  64.0843773
  76.7594251   9.8955195  63.1896544  75.5907783   9.7219508  64.1357613
  42.4937248  65.4368639  64.9614048  42.8920507  64.6625900  65.3589773
  42.4239826  66.0658455  65.6795645   4.0581468  31.5763521  49.8099470
   3.8977161  31.6219187  48.8673878   4.7508934  32.2181368  49.9662971
  77.6278734  59.7424364  50.4863644  78.2938099  60.3922749  50.7110262
  76.7970371  60.2081490  50.5815554  12.4383028  12.5159972  61.6283178
  11.9475754  12.9934352  60.9593821  11.8892773  11.7592852  61.8337154
  42.9613941  18.6973162  21.2876644  43.8201445  18.3394261  21.0625019
  43.0028504  19.6123095  21.0096302  21.1645191  37.8726883  62.8835907
  20.4336613  38.3672686  62.5128212  21.6013973  37.4858971  62.1247997
  55.7782667  17.2470160   6.6605797  56.4914148  16.8570109   6.1550703
  55.0812643  17.3902054   6.0203305  25.6878280  46.5153313  66.6703653
  26.2358855  47.1485329  66.2067795  24.8865222  46.4652443  66.1491776
  15.5866736   4.7612353   2.0420161  16.3585251   4.7436257   1.4761868
  15.9349936   4.6448012   2.9259577  65.1240969  71.2109375  57.6400280
  64.4669390  71.7500257  57.1998501  65.3440905  71.7008209  58.4323978
  14.2264956  22.5105019  26.8006745  15.0298231  22.3315926  27.2894325
  14.5265072  22.7279015  25.9180870  37.1341198   6.6959019  14.7970715
  36.1973494   6.8530579  14.6787777  37.4235600   7.3995419  15.3778877
  10.7540034  70.1950932  52.5581360  10.6505011  70.9340191  51.9585466
  10.5597495  70.5586243  53.4220457  15.2682655  40.8724900  26.6644421
  14.9526852  40.3703804  25.9130898  16.2146872  40.9303112  26.5334263
  48.6988735  54.4629335  61.9385052  47.9726744  54.8189497  61.4265347
  48.6634016  54.9393892  62.7679443  20.8873080  65.0303268  49.7906733
  21.6481398  65.3198290  50.2942133  20.8373736  64.0882206  49.9524641
   7.4039515  27.2614329  67.3996353   6.9862231  28.0472033  67.0470858
   7.8234156  26.8529170  66.6424036  31.7776680  55.5270433  67.7475691
  31.0353899  54.9285316  67.6636505  32.3495603  55.1104403  68.3922482
  54.0283575  75.4388500  48.4598064  53.7328711  75.4544033  47.5494909
  54.6978178  74.7550870  48.4826708  48.3418187  79.5026233   0.8081522
  48.6218651  79.2346075   1.6833534  47.4934109  79.9236443   0.9466067
  83.3619785  75.1480770  53.5224390  82.9980183  75.5568218  54.3077374
  82.9363728  74.2918062  53.4789228  61.0599899  59.6975756  61.1631298
  60.8471203  59.7779322  62.0928955  60.4546213  59.0324640  60.8354330
  60.6071329  71.7518711  64.6452904  59.8105240  71.7794466  65.1752758
  60.3092718  71.9397831  63.7552309  11.3823040   6.6214507  17.7813375
  11.1437615   5.7030433  17.9072928  11.8199070   6.6406958  16.9302392
  10.9520825  41.6206583   2.1881809  10.6966456  40.7224931   2.3986187
  11.1530360  41.5995482   1.2525501  80.0277147  40.3372901  65.0023317
  79.2636499  39.7607653  65.0091743  79.6670780  41.2111037  64.8519182
  31.2744873  18.8351460   8.6297980  31.8729990  19.3691082   8.1073990
  31.8259447  18.1412239   8.9911833   1.1444085  32.4071617   3.4460631
   0.8736675  31.9051523   4.2147770   1.7137807  33.0924769   3.7959042
  33.5779493  18.2879324   6.7064371  33.2214134  17.6876183   7.3612156
  33.1902855  17.9990073   5.8803215  72.3591042  74.0287733  46.1264086
  71.7950821  73.9194012  45.3608084  72.7801704  73.1763601  46.2374401
  50.9952307  75.5118895  68.7610531  50.6523800  75.1422691  67.9473782
  51.0360765  76.4541435  68.5975695  56.7411280  64.3547964  25.8728170
  56.7525673  63.9584303  26.7440200  56.2142992  65.1471424  25.9770679
  62.7823973  31.8420792  69.5139122  63.3001423  31.0733032  69.7529936
  62.7349806  31.8112016  68.5583878  28.3154553  32.1687765  19.4749394
  27.3780459  32.2303458  19.2913571  28.4232443  32.6055069  20.3198567
  61.9612727   1.1113875  66.4115763  61.2960729   1.6094725  65.9365511
  62.6741252   1.7350428  66.5498972  25.2796649  72.1157360  38.6641026
  25.8333396  71.3896799  38.9513612  24.4113921  71.7271852  38.5574698
  54.5557308  75.2492809  67.0638275  54.5942497  74.3754482  67.4526215
  53.7589598  75.2405357  66.5334368  61.7084217  78.3977747   4.5476103
  61.3064337  78.2763243   5.4077774  61.8045855  77.5108099   4.2007881
  57.8148508  60.2127695  47.3949337  57.5128460  59.8010492  46.5852976
  58.7681675  60.2342653  47.3115683  84.8970375  45.6592887  53.3886766
  85.2000007  45.9567492  54.2465591  84.5570669  44.7785895  53.5468721
  24.4831341  17.8363772  13.1866112  24.0999239  17.3150130  12.4812355
  23.8583439  18.5482378  13.3249035  34.9190109  25.3120442   0.9558907
  34.4962900  24.4601889   1.0648861  34.1985624  25.9418030   0.9802237
  11.6976508   4.6270411  32.7551222  12.2986754   4.0669577  32.2639012
  11.8452891   4.3914836  33.6710620  46.4888763  76.1166763  24.7412515
  45.8780336  76.1373377  24.0045881  46.4557838  75.2128077  25.0545549
  77.8303385  68.3105373  61.8037319  78.3430767  68.3792448  60.9983683
  76.9196129  68.3535957  61.5122604   8.6579331   6.6709845  42.4363422
   8.2624730   5.8298533  42.6651287   7.9219111   7.2115653  42.1495056
  34.2889762  71.0744953  24.9249077  33.5284972  71.1110497  25.5050492
  33.9190435  71.1077070  24.0427065  20.7679289  22.0737000  33.5962429
  19.9214857  21.8098564  33.2354775  20.5557554  22.4639054  34.4441548
  48.4371090  72.2624874  46.4554071  48.0786800  72.6636648  45.6636906
  48.2121468  72.8739405  47.1566582  82.5051970  16.9763823   1.6863909
  82.2370905  16.8079491   0.7830706  81.6932840  16.9249506   2.1907559
  18.4957140  43.1858845   7.5410309  18.9765137  43.6831494   8.2026901
  18.4519690  42.2972794   7.8941479  23.4358811  76.8128538  53.5450792
  23.9015508  76.8598032  52.7101088  22.5801730  77.2018433  53.3642912
  30.9552258  26.4413901   7.2693196  30.1741283  26.7524500   6.8117562
  31.3096874  27.2216387   7.6957026   1.3772639   9.8956721  36.7717290
   2.2733172   9.9307864  36.4369416   0.9255894  10.6101458  36.3225579
  55.9932518  39.5269322  68.9281559  55.9034157  39.3241572  69.8593092
  55.1140690  39.4036722  68.5702801  36.5130258  73.6234713  64.5215416
  36.8037915  73.4966135  65.4246426  35.7921505  73.0032206  64.4126463
  77.2807503  62.6334620  48.7279892  77.9319429  62.2721386  49.3293428
  77.3347855  62.0748329  47.9525852  20.5659550  11.4713640   6.4611616
  20.8684557  10.5639620   6.4244070  21.3055819  11.9557257   6.8280115
  37.6048756  59.9542904  58.4051323  36.6615582  60.0906992  58.4933138
  37.7270842  59.7121239  57.4871731  30.9547520  72.3997068  62.6852989
  30.8053446  71.9725752  61.8418169  31.7195654  72.9565525  62.5396490
  37.3037767  77.7363873  52.7635813  37.5321221  78.6659479  52.7673054
  37.9611826  77.3305273  52.1984911  69.2483950  47.8212547  68.4444666
  69.9021721  47.4520779  69.0381956  69.1478491  47.1611643  67.7586079
  19.9976557  28.6699839   4.7818699  20.3154295  29.0804739   5.5860796
  20.4194468  27.8108282   4.7686615   0.4165744  59.0944529  61.7353582
  -0.4358197  58.9665079  62.1516323   0.2528952  58.9464235  60.8039474
  66.6657019  41.0204744  61.4834213  67.4212885  41.5256214  61.7836666
  66.7631721  40.9864521  60.5318022  44.7983170  51.6355276  55.8237648
  44.1554594  51.7146921  56.5285349  44.3657351  51.0923910  55.1648951
  62.4011850  57.6745415  11.2882459  61.7401457  58.0013371  10.6779456
  61.9922686  56.9126987  11.6988683   1.0446557  76.2314513  51.2045899
   0.1408490  75.9301712  51.1118736   0.9698733  77.1768978  51.3340798
  31.4032477  25.1171847  19.6830502  31.2644070  25.8822985  19.1248837
  30.9849995  25.3469773  20.5128041  79.2380008   4.0733474  69.4945765
  78.6156091   4.7868007  69.3537283  79.7335634   4.0229457  68.6771917
  66.2446651  11.6407149  65.3794861  65.4347238  11.3817447  65.8189821
  66.9382724  11.3969939  65.9924650  82.7371502  53.3477974  51.1766481
  82.9634571  53.9785051  51.8601894  81.8519688  53.5934067  50.9076786
  35.9246653  37.2944422  20.2952614  36.6527289  37.9157372  20.3072682
  35.5041855  37.4345799  19.4468537  27.9993367  37.1234369  63.3570862
  27.8781772  36.5289855  62.6166964  27.7441621  36.6080666  64.1222763
  50.7942200  43.8167477  70.0982571  50.9627533  44.1207266  69.2063904
  50.6286907  42.8786612  70.0043058  15.6291550  30.6835575  12.5570717
  15.8666342  31.2508364  13.2905808  16.4571779  30.2916689  12.2795239
  17.6209801  22.6590367  13.1464997  18.0927675  23.3121891  12.6297322
  17.8637808  22.8495283  14.0525856  37.3741835  13.9614840  15.8835545
  36.8792313  14.6359082  15.4183617  37.7902477  13.4488507  15.1904907
  62.1142006  75.9701967  65.9415388  61.8572187  76.2485981  65.0625134
  61.5552235  76.4805984  66.5274239  33.6522015   6.7822593  55.0561380
  33.6020955   5.8302253  55.1418495  33.5898503   6.9415610  54.1143465
  73.3652792  29.1610568  53.5632420  73.9816579  29.8625224  53.3528805
  73.8725671  28.3564132  53.4563255  57.3725367  77.9941797  52.4864531
  57.1259594  78.6297941  53.1583357  56.5723896  77.8600025  51.9785166
  65.0123105  23.4557193  17.3022270  64.2948660  24.0865557  17.2426200
  65.7675299  23.9769404  17.5746346  55.7841253  45.2959824  28.6587310
  55.4831839  46.1066580  29.0691924  56.0087681  44.7247076  29.3931770
  46.1400604  72.4490690   9.3189061  45.9738016  73.3402824   9.6260267
  45.3017187  72.1594620   8.9589792  46.8526753   8.0282061  34.5626998
  46.4760407   7.2759383  35.0192761  47.6925572   7.7109855  34.2307329
  79.6442375   5.1672499  53.0734873  79.4441137   5.5886882  52.2376823
  78.8008461   4.8371928  53.3833027  17.4348219  36.6133254  17.7689528
  18.1152686  36.7329734  18.4314525  17.3411282  35.6639426  17.6905966
   2.3752554  39.8650878  57.5799894   1.4544543  39.8801368  57.8410006
   2.6169785  38.9393275  57.6077700  84.8677215   3.2637923  54.9445534
  85.2546749   4.1379016  54.8952770  84.1579303   3.2795375  54.3025398
  23.3399971  16.2394946  54.5632696  22.4511107  16.5620940  54.4148350
  23.4336003  16.2249987  55.5157709  52.4268579  75.5846214  59.3607378
  51.5272903  75.8688784  59.1988373  52.7355051  75.2707529  58.5107613
  51.2374496  55.4052973  36.7728782  50.7239008  56.2106609  36.7105341
  50.7883978  54.7894621  36.1938000  23.0745696  72.9844999  55.3881025
  22.5871848  73.7858772  55.5791140  23.8426780  73.0298567  55.9574699
  42.8761547  34.9189587   9.2065563  42.6757019  34.4959088  10.0414696
  43.3076542  34.2379732   8.6905089   4.6628474  59.7702456  46.7589474
   3.8555812  60.2612400  46.6057301   5.3596782  60.3577805  46.4666128
  58.6146364  34.1637748  30.0221705  58.8091955  33.2367175  29.8845553
  59.2888984  34.4619601  30.6326532  46.0752695  14.5454045  33.0747071
  45.5887478  13.9200659  33.6118069  45.9176462  15.3925867  33.4914341
  37.0819386  22.7708476  51.9233274  37.4625882  23.4032576  51.3139105
  37.6361950  21.9948619  51.8404579  58.0175894  53.2435723  30.8421173
  58.4081286  54.0221043  30.4451122  58.4518259  52.5095959  30.4074421
  71.8858671  79.2508316  38.5163999  70.9416342  79.1187525  38.4314466
  72.0038462  79.5670795  39.4121122  24.8177250   0.8181327  19.7750163
  24.9534424   1.3440459  18.9868319  24.1293725   0.1983016  19.5337796
  77.5958014  79.5904779  45.5054522  77.4194193  79.7042608  44.5715475
  76.8403625  79.9845457  45.9416294  73.5816887  19.0848792  31.7843952
  73.1923750  18.2192672  31.9083824  72.8552559  19.6342719  31.4899388
  68.5950756  66.5450716  50.9684706  68.2576370  67.4148417  51.1826324
  68.0231810  66.2321901  50.2675629  22.8339069  45.1310654  10.0466051
  22.3521488  45.7183571  10.6290379  23.5333984  44.7726651  10.5929508
  12.1487921  24.4602080  17.9134503  11.6761034  24.8666020  17.1870651
  13.0487412  24.7719641  17.8178539  21.4963412  58.2308674  59.7477818
  21.3898039  57.6752424  58.9756680  20.8025289  57.9484415  60.3436804
  56.1984842  42.0315953  12.7367439  56.4095800  41.1401005  13.0140438
  56.9873541  42.5367661  12.9335251  52.6774406  75.9156704  52.5726748
  52.3079634  75.0780582  52.8521776  53.3165693  75.6827402  51.8992567
  66.9022417  52.6042986  53.1694078  67.8490353  52.7283525  53.2359314
  66.5319347  53.2742834  53.7440538  28.7071293  67.0566292   3.8551798
  29.2056149  67.2380944   3.0584326  28.9830511  67.7361126   4.4703188
  17.5617465   6.4670413  47.9584408  17.9888972   7.0133727  48.6182117
  16.8514117   6.0326045  48.4305859  52.4400172   4.5472472  60.4923677
  53.2525358   4.8947566  60.8601713  52.7033600   4.1507666  59.6618938
  77.8579244  57.1571200  37.6483512  77.5194654  56.3957732  37.1771526
  77.6461992  56.9845813  38.5657597   9.6428012  64.6569443  43.6603737
   9.5904063  65.1131058  44.5002556   9.5622348  65.3505516  43.0056620
  49.8709305   0.6275122  40.1784849  48.9312180   0.7620280  40.3013134
  50.0218686   0.8222335  39.2535353  20.0270289  51.4704628   4.2725411
  19.3263643  52.1174164   4.1904011  19.5713919  50.6316872   4.3439093
  10.7757562  35.9713288   2.9586115  10.0382202  35.9867878   2.3486653
  10.6687897  36.7643185   3.4839239  11.8467291  28.5089057  43.5428429
  11.5606698  27.6942580  43.9560795  12.3190506  28.9745562  44.2329931
  26.6178139   2.1711867  48.6961889  25.7572659   2.5900691  48.6809254
  27.2008809   2.8351443  49.0641928  11.9218214  15.7230895  21.6337180
  12.1688660  15.5144351  20.7327938  12.6384219  16.2683337  21.9584107
  23.1784533  64.7910881  41.0866213  22.9470252  64.2209721  41.8198586
  23.3035849  64.1938925  40.3491068  58.2119083  70.0143290  54.3015766
  57.7719641  69.4475269  53.6680079  57.7698421  69.8344612  55.1313114
   7.7356806  52.0318053  66.4769179   7.4443999  51.8103430  67.3614192
   7.3362770  52.8833888  66.2994111  15.8374032  14.2378848  34.7227812
  16.2482985  14.4762748  33.8917756  15.3689440  13.4248298  34.5337868
  71.3656503  52.5788422  16.3245239  70.8581824  53.3897705  16.2912502
  72.0152981  52.7308293  17.0108834  61.9057274  74.2888737  59.3909550
  61.0252857  74.5795345  59.6287918  62.0027971  73.4404039  59.8232794
  57.1088484   3.9266837   7.2876015  56.4531305   3.2337630   7.3659172
  57.8443887   3.5106719   6.8379965  18.6432179  18.0047362  58.4037685
  19.4511279  18.2905810  58.8301563  18.1388672  18.8091891  58.2824373
  50.9607991  14.7851126   9.7132927  50.5171689  15.4526179  10.2366078
  51.6437348  14.4431823  10.2902865  44.4202240  19.2837947  41.3072252
  44.1599091  20.0008529  40.7290363  45.2492722  19.5726149  41.6886663
  54.3673277  78.4642124  58.5419416  53.7044048  78.8194656  59.1340208
  53.9477396  77.7025080  58.1419611  13.1701907   3.6314147  59.1846275
  12.9130228   3.7178366  60.1025772  12.3748644   3.8358729  58.6928129
  36.4252060  26.1116810  11.8703690  35.6757849  25.9909315  11.2872544
  36.9094294  25.2880736  11.8117562   6.1909007  60.2373505  11.0274887
   6.6507529  59.6479177  10.4297113   5.5077170  60.6382704  10.4901350
  72.5374079  79.8274517  28.7802887  72.0362949  79.0930319  29.1348982
  72.4843454  80.5024910  29.4568515  43.1504869  80.1136398  64.2030668
  42.3200798  80.5737591  64.0808582  43.2194996  79.5377016  63.4416437
   3.2764634   1.6408294  68.2395411   2.7268752   0.8677714  68.3682394
   3.8610753   1.6479533  68.9974403  44.2422390  69.6087885  56.5862942
  44.8850155  70.3017950  56.7373228  43.9395761  69.7540474  55.6898975
  33.0343350  17.5548499  54.7845888  33.3951291  17.1225589  55.5586624
  32.1188076  17.7219527  55.0084543  40.1118803  62.9105330  37.0072436
  41.0452843  63.0665636  37.1509027  40.0468159  61.9671679  36.8587255
  39.5455194  78.5758924  14.9896634  40.2193880  79.2346478  14.8218095
  38.8935661  78.7200212  14.3037951  79.1289902  62.6136827  62.8287935
  79.0370226  61.6885757  63.0567360  79.4698906  62.6072311  61.9343805
  57.8414249  76.4054918  54.8149061  58.6652279  76.8926144  54.8320389
  57.3023939  76.8689871  54.1739321  61.0022181  18.5305138   8.4488669
  61.5475576  18.7812395   7.7032271  60.2452486  19.1142340   8.3989849
  61.2920284  75.2298069  45.1088428  60.6571484  75.9161711  44.9037647
  60.8234692  74.6383381  45.6977797  60.6173468  58.8719463  28.1109619
  59.8538446  59.0051889  28.6726975  60.3321743  58.2211161  27.4696112
  53.3980894  66.1752176  69.1418314  53.0089760  66.6855526  68.4316301
  53.1594753  66.6511059  69.9373341  20.2292737   0.5252593  60.1358986
  19.6572598   0.7574504  59.4043827  20.5344494   1.3657515  60.4774570
   8.2852839  76.3790798  31.8431306   7.5361823  75.7868767  31.7769289
   8.4171771  76.6991329  30.9507155  33.6021345  43.9165230   5.2497330
  33.1567400  44.0532131   4.4135704  34.1696613  43.1607838   5.0980702
  11.0862922  76.5619993  57.4055576  11.7198371  77.2679710  57.2772646
  11.6171740  75.8068991  57.6589918  83.5176468  70.6673288  43.8945484
  83.3193874  70.2676725  43.0476761  82.6921844  71.0656691  44.1705275
  10.9888943  19.4675868  23.4697080  11.2054738  19.8504393  24.3198538
  10.7604559  18.5592788  23.6672735  72.8156853  67.4018574  62.8147888
  73.1499147  66.7686701  63.4500837  72.1303701  66.9287062  62.3428726
   3.0259513  28.8645005  62.8106403   3.3758639  28.8186932  61.9208670
   2.8576182  27.9528737  63.0490351  47.3385069  42.5862067  68.9843798
  47.7214703  41.7182868  69.1120148  46.8043336  42.7295440  69.7656202
  68.5244236  32.7442878  56.9875145  68.3146772  33.4031050  57.6494789
  68.1529007  33.0924361  56.1769629  29.1065662  29.1797323   3.5398998
  29.9535912  29.6197386   3.6118021  28.4857624  29.8841639   3.3538475
  12.9254015   8.2708686  59.3032455  12.6816567   7.3963492  59.6066189
  12.3836812   8.8644259  59.8233080  46.7682505  73.1341267  44.1048956
  47.0629311  73.3032990  43.2100344  45.8137751  73.1014156  44.0405989
  23.9934453  12.2988551  60.7055664  23.2008656  12.6763766  60.3240871
  23.7392815  12.0582431  61.5964890  70.6591815  36.1243696  17.5838127
  70.8284384  36.1630125  18.5251370  69.7051090  36.1496945  17.5107708
   2.3700436   8.5191768  29.4788599   1.8030222   8.9794390  28.8600850
   2.6141699   7.7122920  29.0254712  20.8153551  47.9615708  20.1705494
  21.1793535  48.1206818  21.0414257  21.4889448  47.4533863  19.7186032
  84.6511898   1.4173739  17.9707062  83.8477525   1.7167228  18.3962810
  84.9194584   2.1534388  17.4207246  70.0684261  47.2348356  45.3777838
  70.0748634  46.4267063  45.8907366  70.5927992  47.8489304  45.8917427
  52.1657166   9.5550101  68.5360146  52.9171524   8.9757865  68.6627913
  52.3815260  10.3407233  69.0383244  38.6815556  23.0915015  36.4816689
  39.5424374  23.0654090  36.0640144  38.8245495  23.5753291  37.2951174
   2.0346888  18.3287757  46.5247583   1.5946587  17.7080958  47.1055889
   2.9247673  17.9871695  46.4393187  42.4572229  45.8828402  66.3137865
  41.9034958  45.4322767  66.9514465  43.2074976  46.1899090  66.8227339
   9.3612536   3.7794059  55.0092649   8.7924250   3.0103247  54.9749756
  10.2323493   3.4425776  54.7995615  63.7445498  67.1957922  54.4169283
  64.0926552  68.0815268  54.5195341  63.1801796  67.0703888  55.1798153
  61.6945982  70.3767490  32.0357990  62.4572134  70.3494692  32.6136446
  60.9552193  70.5363655  32.6223803   3.5531100  30.5409186  35.3603482
   3.1855067  29.9258750  35.9950328   3.2804497  30.1982825  34.5091772
  27.0650411  78.4623766  68.7826157  27.5321913  77.6744461  68.5048294
  26.2882900  78.4897900  68.2239246   7.1882685  43.3627742  68.7825775
   7.7669915  42.7557891  69.2439604   7.3070200  44.1977828  69.2352438
  78.8414526  67.7655554  32.5072861  79.7296619  67.9225683  32.1868658
  78.8919306  67.9383755  33.4474015  30.1026638   1.1542552  30.3935695
  29.5187767   1.1353343  29.6353149  29.6771344   0.5883639  31.0377169
  34.4364142  55.6655169  43.1185055  33.9405894  54.8531437  43.0163240
  34.7958803  55.8377934  42.2482586  26.1586159  36.1897297   1.6495314
  26.4324349  37.1052952   1.7042484  25.2245300  36.2309380   1.4445439
   6.0462373   5.6778164  10.9649315   5.8398097   6.2149496  10.2000084
   7.0024651   5.6365938  10.9776440  59.2658329  67.0954657  63.2376194
  59.3126440  66.2283707  63.6403370  59.1706896  67.6975155  63.9756727
  11.6843318  71.9092464  64.7757864  11.8189143  71.2687254  65.4742479
  11.3900565  71.3896084  64.0277195  42.2411450  21.3288348  59.5760155
  41.3596543  21.5716784  59.2927456  42.4875458  22.0095866  60.2021885
  73.1495905  73.3384228  58.3439732  72.3401022  73.2986498  57.8346825
  72.9243469  72.9374743  59.1834593  47.4950798  22.0672839  64.8738337
  48.2954319  22.5397151  64.6447659  47.0075234  22.6766913  65.4280376
  36.9606989  28.9154740  21.1268082  37.0248859  28.7993689  20.1788464
  36.8421572  28.0294819  21.4691487  64.4114923  80.4903126  31.9767761
  64.3299437  79.5369816  32.0037794  65.0937319  80.6540012  31.3256335
  77.4213123  70.8605194  33.2496548  77.8285789  69.9983788  33.3337784
  76.9658089  70.9923935  34.0811324  15.1008996  41.0816615  62.7388954
  15.9561261  41.1305754  62.3117781  14.4941147  41.4629500  62.1043396
   6.3237857  67.0391893  24.6992564   6.5350150  67.4200058  25.5516601
   5.9953784  66.1634588  24.9029160  73.0803585  59.4234896  50.3672647
  72.7516317  58.5941315  50.7141542  72.9661417  60.0456667  51.0856533
  81.4692697  25.4259627  66.0653019  81.1604461  26.0853045  66.6866922
  81.4288292  24.6019213  66.5506268  51.1282110  77.3155212  47.2113705
  51.0445595  77.9120779  46.4674902  51.7660713  76.6622543  46.9239473
  66.0643229  19.1482585  55.2137232  65.1906046  19.1974013  54.8258686
  66.6408977  19.5354598  54.5550394  66.0487032  29.8956275  48.1798267
  66.5089989  30.7218575  48.3271360  66.7347431  29.2833567  47.9139233
  24.5078667   7.3482268  29.6665359  24.7010239   8.0614512  29.0580750
  23.5538395   7.3515456  29.7443509  47.8143986  32.1131175  25.5547619
  48.5732563  31.7009871  25.1418209  47.4394520  32.6659434  24.8691726
   5.8340462  10.6110804  54.6810246   4.9109658  10.8632319  54.7049379
   5.9340819  10.1468985  53.8499022  50.5113047  73.1887360  43.8825836
  51.4365500  72.9855938  44.0200176  50.0551813  72.3692246  44.0738621
   3.0980300  79.6868706  38.5555410   2.6825427  80.5439663  38.6503911
   3.5851764  79.7464800  37.7337337  61.0963076  28.8487788  32.4329891
  61.3476770  27.9481144  32.2284165  61.9255274  29.2968293  32.5999394
  69.1588783  80.7977962  45.5134583  69.2515945  79.9705172  45.9859562
  68.2199574  80.8722401  45.3428268  78.7189627  55.5203676  29.3328476
  78.2175636  54.9270630  29.8921514  78.2779169  55.4795790  28.4842920
  81.8874454  57.9189634  32.4255753  82.1451283  58.7224483  31.9736385
  82.5674534  57.7871370  33.0862141  11.6026943  33.8104649   0.2560082
  12.2432297  33.6688729  -0.4410562  11.5630882  32.9733725   0.7185402
  80.6918240  74.9078798  51.8749857  80.0068569  74.3925953  51.4489222
  81.0142422  74.3433189  52.5775146  74.2831087  28.0153942  45.9170198
  75.0963020  27.6814532  46.2957430  74.1877651  27.5362325  45.0938892
  51.0618036  12.5796767   1.5193787  52.0142763  12.5114937   1.4532795
  50.7844942  11.7318125   1.8664637  58.8315558  59.1859514  53.4011030
  58.2979427  58.4959061  53.0069876  59.3094992  59.5687849  52.6654148
  20.1257029  38.9143474  28.3039498  20.9595528  38.4628112  28.4344792
  19.5716658  38.6062724  29.0211415  50.4539919   8.9284784  10.5659425
  50.6766796   8.1163210  10.1109231  49.4976568   8.9258182  10.6065047
  29.4238877   2.4498045  16.2631953  28.7211323   1.9430918  15.8562434
  29.7426438   3.0212501  15.5645716  35.3620139  68.6593647  41.5118170
  35.5806008  69.1914041  40.7467127  35.7428494  69.1342671  42.2505093
   6.5146485  61.3568408  44.8640966   6.7495718  61.5695483  43.9608812
   7.2528448  61.6737301  45.3845549   3.3457983   9.4850391  10.1484728
   3.7496632   9.9761766  10.8639503   2.6852703  10.0795388   9.7927976
  22.1660256   9.1824430  64.9313307  22.4991298   8.2949489  65.0640965
  21.6240931   9.3526167  65.7017756  23.5648489  16.5085983  57.2118998
  22.6647067  16.4850330  57.5365829  24.0451837  15.9205854  57.7947807
  37.4739019  69.6282382  33.7081337  37.8805045  70.3523237  34.1841650
  36.8876115  70.0526495  33.0817389  17.6382375   6.9194180  23.3879709
  17.4905765   7.8474253  23.5702634  16.8956363   6.6614878  22.8418517
  46.4747135  60.1504547  15.2145267  46.8279652  59.8697169  14.3703508
  46.3934378  61.1009593  15.1359975  82.1644370  58.7208206  45.6261492
  82.9328028  58.7543375  46.1959887  81.5108148  58.2395298  46.1334658
  83.5447089  72.1015877  35.2111840  83.0264894  72.0180161  36.0116172
  83.0287091  72.6816363  34.6512556  58.5549624  72.1299017  39.7637558
  57.8802356  72.4917377  39.1892552  58.0818889  71.5303893  40.3408337
  18.1207743  40.7514865  26.8215132  18.2506934  40.2062232  27.5974250
  18.7665215  40.4302699  26.1921835  55.8999634  15.6477463  40.8361769
  56.3934422  15.4495573  40.0402880  55.9722519  16.5973306  40.9325933
  21.4396381   1.1205376   7.9987216  20.9373522   0.4208258   7.5811756
  21.4989018   0.8575635   8.9171791  72.6971487  74.1943915   1.4216255
  72.7104227  73.4631098   2.0391063  72.3969809  73.8078404   0.5990020
  13.9576364   9.7370505   8.2915241  13.0479109  10.0345445   8.3029342
  14.2602718   9.9259245   7.4032843  66.0978631  75.2758963  45.3349257
  66.4161209  74.7472877  46.0667181  65.6427715  76.0090623  45.7491636
  29.4402170   6.5519845  22.5528622  29.9711013   5.9637791  22.0158243
  28.8254237   6.9497269  21.9363713  14.2964211  68.9078874  68.3062077
  14.2376461  68.9488930  69.2607212  14.8336640  69.6630151  68.0666637
  53.6468143  62.3878164  34.3051243  54.1570152  62.3542971  35.1143241
  53.2808537  63.2721526  34.2891765  27.7970505  21.3875818  49.3756437
  27.4187136  22.2104502  49.0658331  27.1410465  20.7253909  49.1579437
  27.5965786  31.0159278  56.7894077  27.0243955  31.7650056  56.6229105
  28.3456993  31.1532068  56.2095785  28.1680942  23.1320906  35.5073309
  29.0419769  22.7500653  35.5886745  27.7251983  22.8924108  36.3213491
   3.2499233  69.9897427  51.8855476   3.7350741  69.5018930  51.2200689
   2.3316589  69.7816140  51.7131901   6.8906560  64.8783500  29.9627471
   6.0718646  65.2319700  30.3102589   6.6542330  64.0144689  29.6250415
  49.7445250  28.7085056  10.5226266  50.2396870  29.5053053  10.3324759
  49.4949436  28.3706188   9.6625257  72.0804612  45.0964648  35.4403114
  71.9415180  44.1496451  35.4188776  73.0207042  45.1972658  35.5886841
  72.2549428  10.9140396  33.7252307  71.8358959  11.6184723  33.2308555
  73.1656314  11.1943293  33.8164258  48.0851069  50.8896072  68.2943487
  47.9070845  51.2318618  69.1703606  47.2246018  50.8365972  67.8784752
  46.0332374  80.1667744  51.5775871  46.8058864  79.8682339  52.0572948
  45.4488019  80.5090253  52.2539997  74.6182064  31.5698726   5.0527549
  73.8926951  31.1993320   4.5501977  74.3292431  32.4553878   5.2732021
  11.9955054  79.4685477  49.5422125  11.1012330  79.7518500  49.7326136
  11.8887988  78.6752162  49.0173578  19.2948666  17.0408609   4.6630659
  19.8664406  16.2766149   4.7369852  19.8816464  17.7558639   4.4167128
  79.5433394  64.4944925  38.3952069  79.4093052  63.7900288  37.7611732
  79.4523303  64.0696222  39.2481041  13.2586801  24.3738365  43.6755943
  13.2338023  25.2082849  44.1438961  13.7195456  24.5705318  42.8600311
  22.9149508  45.4983997  37.6355982  22.0883155  45.1560450  37.2954512
  23.2114553  44.8340702  38.2576799   5.3295779   5.6723011  53.1672812
   5.4006195   4.7252482  53.2867622   5.4666966   5.8063525  52.2294855
  11.8887961   2.1645482  27.0899463  12.3939228   2.1164462  27.9015899
  12.2539902   1.4720863  26.5391636  76.5908865  45.7577450  58.3057737
  76.5810970  46.1823995  59.1635656  77.0265881  44.9192650  58.4585714
  55.1049059  47.2726495  13.1439888  54.4151671  47.9123409  13.3208740
  55.9073201  47.7924211  13.0970788  75.9757153  65.4735858  12.8983665
  76.1056534  64.5811779  13.2192314  76.7392103  65.6432433  12.3465288
   3.4721723  58.2790358  11.0136735   3.3347001  59.1422136  11.4038777
   3.2834044  58.4038145  10.0836051  13.8954058  63.2176811  38.0205965
  14.2225399  64.1144581  38.0913734  13.0738297  63.2999463  37.5363708
  29.1395464  73.7383951  55.2158308  29.8567095  74.3500502  55.3825283
  29.4175425  72.9235972  55.6342268  81.0390083  76.5280170   7.9211956
  80.1243869  76.5981806   7.6477379  81.0060374  76.0419191   8.7451214
  36.3391256  16.6653442  16.2804031  36.0385323  17.5162959  15.9614098
  36.1878800  16.6966212  17.2250605  72.9976467  33.3037145  45.1801348
  73.6390940  33.9885909  44.9911356  73.4995607  32.6222808  45.6273127
  82.3754732  64.7855980  53.9479256  83.2903735  65.0012750  54.1286802
  82.1663300  65.2760322  53.1529617  11.6463318  79.2312642  67.4263716
  11.3712182  78.5921209  68.0836678  11.3494697  78.8622763  66.5945339
   9.2165595  46.2071466  61.4751148   8.6809826  45.7751513  62.1405220
   9.4419611  47.0534277  61.8614244  60.4427959  18.9282012  52.1085548
  61.1270143  18.7042105  51.4777565  60.4558064  19.8845601  52.1465206
  79.6109144  75.7296506  26.0242152  79.4470231  76.0182361  25.1263905
  78.9428536  76.1755891  26.5448546  23.9805841  12.7150810  14.8014581
  23.2532573  12.3673129  14.2854321  24.7617841  12.4906814  14.2958844
  62.4294186   8.8886410  21.7293739  62.1267700   8.6052227  20.8666372
  63.2080364   8.3575380  21.8964458   0.6486431  39.7934015  38.8876796
   0.4233089  40.7059390  38.7067699   1.2043991  39.5337255  38.1528735
   2.8283563  78.5252736  30.3745389   2.3241439  79.1064225  30.9439850
   2.7777114  78.9336585  29.5103121  61.5961552   6.2033039  19.8036897
  61.8840885   5.9776914  18.9191413  62.4078846   6.3187319  20.2976584
  41.5868759   0.7256049  54.6447563  41.3907480   1.6497532  54.7987556
  40.7328701   0.3221858  54.4893265  42.4852514  11.4156735  58.4732676
  42.7261162  12.2469628  58.8821363  42.7722311  10.7495248  59.0978622
  70.4226303  52.2474527   2.1574050  69.6898794  52.8628254   2.1825615
  70.8130503  52.3041391   3.0295223  61.5749797  44.1600116  12.5606289
  61.3383278  44.8913255  11.9901791  61.4085779  43.3799204  12.0314732
  77.1517572  30.6655999  30.0389614  77.1238765  31.4680829  29.5179310
  77.8108606  30.1223054  29.6069374  68.4083165  25.1608109  39.7272778
  67.9581894  24.7208953  40.4484510  67.7209700  25.3282142  39.0824819
   9.5731294  11.2808216   0.0165409  10.3927100  11.0982525   0.4760933
   9.3699175  12.1889114   0.2408377  21.3650107  12.8395808  42.4901581
  21.1836457  12.0950949  43.0638123  20.8452463  12.6689196  41.7046976
  50.1660442   3.9435676  53.3122683  50.0497770   3.5413519  52.4514914
  49.5105505   3.5188577  53.8656044  61.2028892  78.7961722  38.9616752
  61.1351688  78.5037819  38.0527449  60.6431446  78.1923502  39.4498515
  18.0094028  25.8410001  42.0773983  17.5041974  26.2123513  42.8006554
  18.1749618  26.5826011  41.4952898  11.3343513  25.2537107  52.4181366
  11.9309378  25.9453464  52.7044201  10.8824122  24.9814773  53.2168055
  62.3703263  71.4635224  59.4988966  62.4908558  71.3446785  58.5567808
  62.0419584  70.6187714  59.8067951  73.8912455  65.0363416  48.4329939
  73.9197890  65.9366710  48.1092262  74.7022943  64.9351413  48.9311838
  50.2176476  35.6925750  21.7562294  50.1695538  34.7520328  21.9274068
  51.1131144  35.8346939  21.4493585   3.9109269  74.1170038  63.9869595
   3.9805284  73.2170136  64.3054008   4.0809169  74.0523727  63.0471945
  83.6500463  37.7940529  14.5353356  82.8882227  37.6504379  15.0967922
  84.0236959  38.6191001  14.8450413  23.4034624  63.4533710  56.1149693
  23.0823508  63.9186449  55.3425455  22.9850951  63.8968975  56.8528605
  84.7647683  78.8678404  61.0809565  84.6117369  79.1171185  60.1695442
  83.9177863  78.9930216  61.5089560  41.9555855  17.7462649  23.8539267
  42.3535395  18.2387531  23.1360698  41.2143421  18.2844806  24.1316199
  41.8549538   9.0429986   7.0782787  41.1462593   8.9946747   7.7198768
  41.8516493   9.9544615   6.7859501   8.3275190  74.5507551  27.6909757
   7.5143567  74.9525810  27.3851418   8.7034550  74.1460056  26.9092607
  75.6197099  56.5639884  34.0706444  75.3318790  55.8405549  33.5138440
  76.5751425  56.5422756  34.0167022  35.5324211  70.5962939  31.9420671
  34.6980896  71.0225833  31.7461014  35.4462090  69.7186501  31.5698576
   4.2854282  49.8138666  67.2090101   4.2398697  50.6187820  66.6929913
   5.0604606  49.3603802  66.8774891  21.4006904  27.6558247   7.8877249
  22.3075810  27.4341013   8.0989590  21.4362714  28.5713413   7.6106014
   5.1353541  80.1549206  42.0861769   5.5713358  79.8956574  41.2744331
   5.6785980  80.8618312  42.4345970  43.9418554  16.8418610  47.3511124
  43.4528303  16.7731738  46.5311289  43.4853029  16.2533212  47.9522848
   6.9995656  46.2157876  34.5084047   7.9263845  45.9766299  34.5018196
   6.7750516  46.3297732  33.5849166  45.3776455  12.8948009   2.8241464
  46.0563040  12.7361798   2.1680257  45.2367163  12.0413947   3.2341081
  73.1633148  38.8109525   4.8256245  73.1079731  38.1334844   4.1516772
  72.6202163  39.5252472   4.4923773  67.5375733  58.3247700   2.3314657
  68.2810435  57.9035702   2.7628317  67.9154739  59.0871801   1.8931141
  44.9236202  15.0567877  60.1314354  44.1581249  14.9276876  59.5714521
  44.8245287  15.9461272  60.4712725  60.1902024  64.1453380  49.7288895
  59.6190123  64.4954819  49.0452385  60.6873150  63.4525008  49.2940474
  27.8865090  62.1086616  19.4280195  27.0960083  62.2862084  19.9377429
  28.1069937  62.9495175  19.0272975  83.7636976   8.0025136  23.1682992
  83.5190627   8.1541580  24.0811992  84.2281436   7.1656334  23.1806397
  50.2363396   2.5432914  42.1319580  50.0404406   2.1422955  41.2851620
  51.0455608   2.1185988  42.4166012  67.9633317  31.0449007  20.5269757
  67.8997359  31.9143721  20.9222069  67.1669993  30.5948081  20.8089390
  22.3701892  45.7345357   3.8786593  22.8756753  46.5473797   3.8780441
  23.0238018  45.0459316   3.7568131  10.3067627  51.1173351  38.9081526
  10.1679411  51.1333377  37.9612088  11.1795726  50.7394178  39.0159178
  32.5775615  20.9152522  15.2690258  32.7627111  21.2039914  14.3753948
  31.7222092  20.4895582  15.2108135  26.3745236   5.4204464  46.3706160
  26.2765312   5.1984924  45.4446745  25.9906363   6.2937385  46.4495039
  27.7806401  12.1397924  28.5201716  27.5010347  11.2910688  28.8632727
  27.3449683  12.7806115  29.0821075  16.0201478   9.1712403  40.9547043
  15.5203390   9.2363453  41.7684507  15.8329248   8.2910687  40.6283951
  84.5399236  12.6902616   3.3106646  84.0177591  12.5672007   2.5179276
  83.9176188  13.0209672   3.9584321  43.9298534   4.8128316  62.0756388
  43.7398386   5.5301958  62.6802158  43.0697775   4.5159835  61.7783451
  28.7365284  34.3211705  48.7719202  28.9449206  33.4675939  48.3921719
  29.4058504  34.4545800  49.4430685  25.1226568   7.4000442   9.7482520
  25.4844546   7.5243431  10.6256819  25.7704473   7.7941102   9.1640329
   5.4879990  66.3204379  40.8823538   6.0366931  67.0112474  40.5109406
   5.3786412  66.5689332  41.8002462  51.9665480  13.7038636  43.3743572
  51.1592865  13.2508087  43.6178684  52.6466274  13.0334985  43.4401894
  47.6821470  17.2558558  51.1448479  47.5537872  16.4000571  51.5539503
  47.1003485  17.2476780  50.3847980  73.5517279  44.0985686  29.3416476
  74.3593244  43.8850672  28.8742757  73.6814598  44.9967606  29.6460390
  34.2527953  77.7753330  58.5936308  35.0885573  78.0587248  58.9643240
  34.3660059  76.8379206  58.4365559  29.3973771  63.8578648  25.4105663
  30.1775589  63.3501143  25.6335807  29.7201672  64.7501952  25.2849340
  81.1609308  60.8238859  35.1281619  80.4448382  60.8467407  34.4934058
  81.8878595  61.2614162  34.6850204   8.1642270   7.7662426  17.2866583
   8.8336265   7.4805647  16.6649473   8.2563871   7.1690798  18.0290437
  69.0714893   3.3495858  13.0918255  69.1554317   2.6865509  12.4065724
  68.1528363   3.3049824  13.3570042  84.9120966  46.2962420  57.2708607
  84.4355027  47.1176750  57.1511364  85.7266871  46.4187128  56.7833424
   0.4310876  31.8224216  24.4352460  -0.4392411  32.0902514  24.1402435
   0.9440617  32.6305556  24.4326973  66.8501143  58.3108051  18.4205747
  66.9978575  58.4899552  17.4919689  66.7507265  57.3599727  18.4682119
   3.4632251  10.2755177  45.7334042   3.7957770  10.7656181  46.4853668
   4.2228669  10.1714683  45.1603889  18.5722578  18.5169685  50.4657412
  19.0988052  19.3161094  50.4845810  18.3704793  18.3848727  49.5394182
  74.9080626  35.4695852  66.2530375  75.0912074  35.0313623  65.4219866
  73.9526085  35.4955394  66.3046598   0.4872139  20.0882556  22.2250786
   0.1290806  20.4301765  23.0442562   1.4340838  20.0750258  22.3646870
  47.6934862   0.7405985  44.2726660  48.5487366   0.9112734  44.6671915
  47.5769091  -0.2060064  44.3537855  30.7082501  60.1178653  31.0640287
  30.9339896  59.3681700  31.6146922  30.8276883  59.8018105  30.1684427
  78.7657920  73.6093594  49.5315742  78.3769123  74.4686688  49.6946430
  78.1421248  73.1700374  48.9534140  80.2605356  17.5381744  68.5733080
  79.6866692  17.2275555  67.8730059  80.9283886  18.0559564  68.1237459
  84.0633384  78.1822967  25.3213882  84.1448466  77.4292005  25.9065676
  84.6585742  77.9884754  24.5972633  83.3080951  43.3372338  46.6830969
  83.4190790  43.5470993  47.6103878  82.5259296  42.7862246  46.6541767
  78.9392719  49.9262907   4.6866408  78.2996759  50.4995480   4.2641154
  79.1668472  49.2844691   4.0139570  39.5144057  25.3270960  57.8739405
  38.8787436  25.8419275  58.3710480  39.5025182  25.7128787  56.9980097
  76.9393171   9.0852898  38.8953400  76.3638724   8.5496598  39.4414115
  76.9088365   8.6682409  38.0343103  31.0692263  11.1433005  23.9493513
  31.2307119  11.2488687  24.8869061  30.7191610  10.2564144  23.8649797
  37.8971243  22.5194621  33.2137275  37.0902014  22.0131063  33.1203914
  38.4833264  21.9468737  33.7084389  81.5640084  76.7941306  55.3952742
  80.8569733  77.2035999  54.8966074  81.8034998  77.4478138  56.0522175
  27.2397947  28.1516767  36.3164687  26.5912867  27.5354600  35.9759569
  27.0738888  28.9633083  35.8369255  60.1801777  22.0778108  28.1452203
  61.0265732  22.0946646  27.6985002  59.7263288  22.8585863  27.8279805
  47.8321934  31.9206715   3.5093826  47.4910879  32.7779651   3.7641856
  48.4177494  31.6735053   4.2251116  11.5051713  78.0500145  34.4602680
  10.9657040  78.0826277  33.6702394  10.9252324  77.6906062  35.1316309
  45.3389788  18.1150389  63.7337589  44.8952007  18.9020813  63.4177542
  44.8415899  17.8545475  64.5089865   8.1817323   1.3430436  49.3235970
   8.8077253   0.7237672  49.6989107   8.6615086   1.7669883  48.6120367
   6.8923893  65.4539938  37.6201987   6.0608330  65.2674002  37.1843886
   7.5589195  65.1429767  37.0076299  78.9371404  29.8298206   1.9265070
  78.4813127  30.5029985   2.4317589  78.3311233  29.0890160   1.9130268
   1.1368221  32.8762031  38.1461453   0.3859789  32.7576947  38.7278867
   0.7545079  32.9350090  37.2705841  47.7053395  59.8080785  51.7802382
  47.6529208  59.0358789  51.2170410  48.6368075  59.8935301  51.9834471
  70.2318048   3.5983443  24.2145181  70.0858974   4.4398651  23.7823296
  69.3625689   3.2005751  24.2639351  58.0992556   1.1166549  28.9375496
  57.3799896   1.1483418  29.5683312  57.6948547   0.8028098  28.1287289
  58.7303162   6.3399971  35.5504823  58.1516552   5.7134187  35.9849739
  58.7973785   6.0200989  34.6508169  78.5396067  31.9365174  13.7006068
  78.4415428  31.4950568  14.5442462  77.6424495  32.1071536  13.4138584
  54.4166478  44.5974048  14.9268189  53.9217194  44.9081426  14.1687241
  54.3331440  43.6444491  14.8931446   2.5284498   8.8214083   1.3213291
   2.3228925   8.2634087   2.0714083   2.0877426   8.4015723   0.5825796
  12.7366248  78.4390784  45.4523230  12.0208016  77.8743384  45.7436895
  12.6472750  78.4667961  44.4997025  75.0179664  72.7674288   2.9738519
  74.6790699  72.6105268   2.0925103  75.9171287  73.0649711   2.8352594
  60.0922966  13.1998515  43.7644958  60.6275463  13.9517653  44.0181875
  59.2860508  13.5847890  43.4209394  34.5416212   2.5270924  58.5884905
  34.8565435   3.0686826  59.3121862  33.7165427   2.1597913  58.9056110
  15.8282375   3.9962989  25.5767035  16.4848864   3.6482829  24.9734378
  14.9896467   3.7707007  25.1740813  16.3926208  40.5124855  54.1917849
  15.5686498  40.5057764  53.7046957  17.0683551  40.4162359  53.5207033
  24.8256588  22.4947548  43.3913422  24.8008513  23.3112645  43.8902712
  24.0689778  21.9994044  43.7048674  18.4878480  28.5411978  49.7916317
  19.2882073  28.4579992  50.3100252  18.2809258  27.6454449  49.5250940
  42.1130896  18.7645054  58.1183147  42.4612141  19.3223143  58.8139343
  41.6437531  19.3665636  57.5408363   0.7641235  78.9808741  52.0754004
   1.1504021  79.6284752  51.4857960   0.9651842  79.3059196  52.9529858
  28.9252830  19.8330808  39.1026926  28.1006384  20.3099966  39.0091825
  29.1543055  19.9296212  40.0270653  21.9902316  78.4157779  40.7378435
  21.8724528  79.1997410  40.2014112  22.9380169  78.2847544  40.7656431
  27.5583863  20.6497335  44.9779606  28.0128264  20.2887797  45.7391644
  27.2608709  21.5134072  45.2639389  49.4262886  15.5766034  45.2999735
  49.4641066  16.5250516  45.1764870  49.9770117  15.2220404  44.6019602
  47.0149803  25.0431037  32.0090008  46.3246775  25.6466079  32.2837615
  47.6323605  25.0363827  32.7404571  69.8329834  75.1882006  28.9827323
  70.1725356  75.9019713  28.4428549  70.0384800  75.4484213  29.8806667
  18.1815710  65.3049094  16.5353298  17.6989546  65.6779463  17.2729981
  18.8070002  64.7026593  16.9382811  37.3402047  17.7633119  44.8740673
  37.2138882  18.5460794  44.3378305  36.4752364  17.3548591  44.9091244
  21.0381126  21.8885565  58.2821274  20.5885625  22.6087308  58.7242651
  20.4298282  21.6110468  57.5971365  83.3682728   4.2894474  25.2864480
  82.7287483   3.5802361  25.3516841  83.7621307   4.1779628  24.4211841
  47.0472717  25.0691891  28.1294966  47.6085329  25.4810596  27.4725509
  46.1566305  25.2255630  27.8155947  30.6707135  70.5025489  30.9963536
  30.9773770  70.0895674  30.1891136  30.2915898  69.7847457  31.5035582
  13.8035059  29.0939331  53.1849527  14.5204437  29.0642262  53.8184738
  14.2223990  29.3414092  52.3606253   7.7145559   0.0517230  42.3618412
   7.1503836  -0.4552769  42.9456997   7.9390424   0.8341300  42.8655052
  44.6548223  17.6100504  60.8899117  44.6869469  17.6384878  61.8461466
  45.0607586  18.4311914  60.6121016  60.4366636   6.1244798  46.8227768
  59.6765709   5.7828712  47.2937250  60.2784300   7.0666802  46.7640257
  38.0238676  32.5406241  68.9633274  37.9318953  32.7491283  69.8930025
  37.2220564  32.8759265  68.5622025  14.9955311  51.9577820  52.9258347
  14.1999092  51.5971358  52.5344944  15.5381813  51.1920602  53.1140852
   0.3566804  71.6208656  66.5705967   0.8476320  72.1886433  65.9766054
   0.5004278  71.9999273  67.4377060  33.7438965   4.2485508  54.7105455
  32.9809070   3.8566983  54.2856598  34.4934630   3.8067770  54.3115282
  50.6817112  35.7219776  29.4975319  50.7473883  35.2930256  28.6443558
  51.4470229  35.4113677  29.9813214  43.9743948  12.4226665  47.3736048
  43.3873177  12.9053092  46.7916918  43.5389805  11.5810204  47.5087976
   9.4130459  71.9167323  29.4637823  10.2119198  72.1605212  29.9313307
   9.4958010  70.9734322  29.3238950  25.6829729  79.8343148  44.8061037
  26.5078631  80.3193518  44.8292255  25.7567730  79.2020673  45.5209827
  65.4089603  55.1270559   2.5093069  65.3381714  56.0249915   2.8332367
  65.0440487  54.5894101   3.2121649  13.9449110  63.0062909  24.7737551
  13.3346453  62.6077635  25.3942251  13.8831129  62.4582011  23.9914417
  29.8894930  14.8135591   8.8377124  30.0985861  14.3879235   8.0062401
  29.1548920  15.3919470   8.6326283  30.3662086   6.5071011  32.9287982
  30.0012040   7.0299321  33.6426973  30.3122497   7.0777190  32.1621728
   9.2901158  24.8471999   8.2272428   9.9953610  24.8233485   8.8739985
   8.5131091  25.0933957   8.7291205   6.1585369  70.0461800  36.5738893
   6.2075558  70.6900687  37.2804546   5.4058209  69.4996686  36.7996693
   3.8039222  66.2916262  65.4488564   3.9808121  66.0204549  66.3496399
   4.4614020  66.9632144  65.2674055  31.0238934  23.1014037  29.2956138
  30.8270240  23.9081287  29.7717094  31.8800759  23.2606125  28.8983321
  57.9582262  31.8425751  18.7810016  57.8681564  31.0130024  18.3120358
  58.8802671  32.0776367  18.6769724  14.3731523   4.1638240  40.5195808
  15.0805140   4.3134943  41.1468506  14.2054141   5.0253618  40.1376772
   6.0997104  13.8358629  44.4160557   6.7008399  14.4116521  43.9434719
   6.6663264  13.1813991  44.8245335  27.1580958   2.6228264  30.5668783
  27.8582978   3.2484055  30.7528853  27.1093941   2.5949818  29.6113229
  29.7608829  18.8284588  32.5292349  30.1143980  18.1399822  33.0924916
  30.4977536  19.4222641  32.3855424  48.4187555   3.9562580   8.2233107
  47.5972128   4.4300407   8.3530271  48.8771820   4.4528636   7.5454760
  37.9099751  29.1072083  68.3116961  37.0823026  29.5827246  68.3829498
  38.5514450  29.7770786  68.0749989  63.5331392  46.0985518  32.1248412
  62.8255463  46.1161137  31.4804554  64.2370701  45.6133223  31.6944218
  39.3764496   4.1361982  57.4271441  38.7917399   3.7390977  56.7816496
  38.9924598   3.9043933  58.2727480  24.1314402  68.4045357  33.2826424
  23.3777848  68.0000443  32.8529692  24.8256436  67.7489085  33.2157707
  81.3073284  54.5551066  62.9588297  82.2049505  54.7668879  62.7025924
  81.3203413  54.5751946  63.9157305  30.2298441  65.2323312  35.7095146
  30.7541743  65.8861763  35.2471280  30.8680954  64.5915277  36.0229445
   4.8511067  67.0714671  51.8336058   5.1633730  67.4735481  52.6441956
   5.6100884  66.5977366  51.4933729  57.6757362  71.3153816  42.5030804
  58.2382216  72.0882268  42.4525547  58.1464259  70.7138813  43.0800390
  25.4491830  21.4525008  37.4173212  25.4248405  21.1969519  36.4951873
  25.3942227  20.6257105  37.8965187  64.9282369   7.2580340   6.5969887
  65.2475223   8.1210210   6.3332739  64.5052585   6.9091132   5.8124056
  45.6917286   5.5656350  40.0465012  45.5948114   4.6402860  40.2713728
  44.7940397   5.8905518  39.9771214  35.9855986   4.0446600  60.7272816
  36.1366630   4.9762303  60.5673170  35.6292653   4.0087691  61.6149569
  31.4503041  31.2782445  14.7661534  30.7116135  31.6662743  14.2971173
  31.8263427  32.0044955  15.2635327  41.4027643   2.5378767  66.1038017
  40.6624842   2.2224727  66.6221952  41.9259596   3.0501065  66.7203426
   6.7051982  12.1238267  25.0694442   7.5320052  11.8171728  25.4417133
   6.3618182  11.3677156  24.5934010  45.1404762   9.1732615  51.5821218
  45.4855871   9.5009458  50.7516098  45.6769323   8.4050941  51.7780018
  45.9325743  26.3180995  41.4147234  45.4535294  27.1352267  41.2766933
  46.8315411  26.5945983  41.5925884  49.5781898  24.1914606  40.1142263
  49.1859722  24.4030738  39.2671037  49.9601793  25.0163341  40.4140568
   9.8160091  76.8791405  22.6340032  10.7611170  76.9434170  22.4966383
   9.7150078  76.8288065  23.5845280  55.2168784  69.3870428  10.9274426
  54.6604356  68.7174847  10.5295792  55.8757553  68.8923576  11.4146748
  56.8795681  17.4086332  43.1458712  57.0836067  17.9998755  43.8704634
  55.9673882  17.1575606  43.2911968  13.9271944   0.5949993   2.0159378
  13.8681429   1.5129919   2.2805777  13.1647652   0.1799460   2.4192562
   2.3146304  45.7957139  10.5990544   3.0915698  46.2685689  10.8973828
   2.6505002  45.1535147   9.9737492  44.5924034  77.6015485  41.2374401
  44.7067871  76.7302848  41.6169739  44.5452299  77.4474705  40.2938986
  55.6390047  18.3907795  39.7598219  55.1363325  18.2302916  38.9612007
  55.1281500  19.0446293  40.2370453  49.7097430  77.7778389  15.9879818
  50.3309307  77.1183445  16.2968960  49.2094740  77.3336103  15.3034249
  27.6790905  29.0884161  38.8623500  28.4446239  28.5571933  39.0814209
  27.5669003  28.9693832  37.9192281  58.5612011  22.9142833  34.7562218
  58.8843250  22.1338534  35.2065015  59.0256500  23.6404538  35.1723886
  35.4678965  19.5408070  19.5815122  35.3830314  18.8531744  18.9210641
  35.1744699  20.3365850  19.1378140  66.7707777   4.4526547  36.0323262
  67.5233793   4.9145955  36.4016938  66.5482140   4.9488252  35.2445984
  11.9793797  21.3272882  37.7460694  12.2495735  22.2230530  37.9481363
  11.9952333  21.2822247  36.7900610   7.7918714  22.3961639  53.1647587
   7.2828412  21.7555285  52.6680613   8.0251205  21.9412613  53.9740133
  54.7311932  53.9700548  66.7395083  53.8872439  54.3979172  66.5948877
  55.2648122  54.2333512  65.9897373  36.7800379   7.6027161  44.6647263
  37.1215558   7.2500646  43.8429976  37.5126672   7.5354755  45.2770710
  17.1888971  48.4391499  40.8333540  17.4041021  48.4175014  39.9009132
  16.3270509  48.0265284  40.8898926  41.1492888  62.3358972  26.6499710
  40.8462552  61.9957120  27.4918008  41.9152693  61.8025119  26.4378238
  70.3897104  61.7249157  18.8057461  69.8680744  62.1859386  18.1487980
  70.0967178  60.8154204  18.7491169  25.9479761  30.2863407  28.9245009
  25.4327846  29.7299457  28.3403492  25.4802966  31.1214566  28.9340067
  52.5632668  24.7237396  44.6345806  53.2968998  24.8438120  45.2375698
  52.0480585  25.5257607  44.7215033  33.4858537   0.8368292  62.3855162
  34.2472124   1.3290450  62.0784569  33.8033724   0.3572135  63.1506205
  44.6947861   8.1610209  61.4791870  44.2404032   8.9978057  61.5769386
  45.3657103   8.1716210  62.1618176   0.0734725  59.7035868  23.4135461
   0.7129064  60.3992040  23.2603431  -0.7298073  60.1653392  23.6538768
  22.1256924  11.8647671  27.8778648  21.8681455  12.3564458  27.0980239
  22.0150805  10.9469378  27.6296997  30.3237809  61.3650014  22.3742237
  29.5742824  61.9516232  22.4759999  31.0766042  61.9503715  22.2915783
  17.4102154  58.3598334  24.8766708  17.6925173  58.0781896  25.7468510
  16.6166106  58.8707454  25.0360274  78.1205473  55.7241502  12.8455200
  78.3610782  55.9229257  13.7504330  77.7185258  56.5303173  12.5219479
  33.9831495   6.7847693  38.0060768  34.6437120   6.1981583  37.6375985
  33.3125997   6.8477565  37.3259068   9.9300042  61.1303444  33.0955124
   9.6350255  61.8776698  32.5752020  10.8025852  60.9315581  32.7559257
  84.2672444  16.8275440  68.3372974  83.6829808  17.1459329  67.6491833
  84.5952697  15.9918463  68.0052710   1.5043120  20.7668018  42.1560574
   0.9290011  20.4335904  42.8446913   1.9103143  21.5446115  42.5386858
  79.4217435  59.6212680  53.0678749  79.9463192  59.0593989  52.4974728
  79.7265855  60.5082113  52.8764820   6.1587101   8.4607595  58.2448864
   6.0865420   8.1512737  59.1477919   5.8391082   9.3625396  58.2745266
   8.2623711  77.6789580  60.6363297   8.1439057  76.9235236  60.0605536
   7.5635925  78.2831552  60.3855515  73.0792245  22.2102525   9.4851437
  72.7513179  21.5776112   8.8460198  74.0281162  22.2079232   9.3593302
  10.0773990  17.5841045  43.5956717  10.3795600  16.7374599  43.2668495
   9.5132732  17.9234362  42.9007959  33.7380290   6.1794621  66.8967676
  33.3235550   6.9803250  66.5757370  33.1718969   5.4743582  66.5828276
  38.3181047  40.6670904  14.4822693  38.1253052  40.5836058  15.4161263
  38.4234905  39.7656989  14.1779435  46.1820689  56.8722398  28.8809776
  46.4200964  56.0236461  28.5075331  46.4998951  57.5119550  28.2438111
   0.5707337  17.7790177  38.6732125  -0.2357483  17.4741566  39.0889978
   0.6934048  18.6664164  39.0104175  27.1191311  30.4057217  25.8573127
  27.5246096  30.5629373  26.7100167  27.8555965  30.2396488  25.2688646
  37.5869370  17.1826530  63.5361195  38.5063720  17.0916259  63.2859421
  37.3657274  16.3455021  63.9441347  27.9150319   2.7240035  46.2801981
  27.0568204   2.3540732  46.4872122  27.7206707   3.5756674  45.8888865
  41.0662726  66.8957181  48.6132288  41.9913677  67.0892818  48.4616947
  40.9037093  67.1898825  49.5094824  53.8455677  22.5066233  43.0758762
  53.2509518  23.1973958  43.3682680  54.2371416  22.8514743  42.2733927
  56.3933849  13.1223679  19.8075223  57.0784426  12.7393866  19.2595696
  55.9764528  12.3712325  20.2296543  35.5977321  24.7028780  45.3937864
  35.7352400  23.9169049  44.8650408  36.1053157  24.5475268  46.1903143
  10.0509787   6.4046514  56.2462282   9.5308340   5.9769237  56.9264698
   9.9253756   5.8588636  55.4699755  67.8014151  62.7215261  39.5690203
  67.5687245  63.1375677  40.3990793  68.6882023  63.0318470  39.3858767
  74.2802620  14.5901155  48.3549833  74.9233150  14.7792792  49.0383101
  74.5716858  13.7614858  47.9746199   7.0182457  67.1981842  15.5865562
   6.1753979  67.4925370  15.2413094   6.9987908  66.2464125  15.4866338
  40.0442266   4.9156517  41.8391657  40.6671906   4.7296456  42.5416946
  40.2878189   4.3123406  41.1370897  62.6718751  76.2354771  29.5525455
  63.3954690  76.6963119  29.1279578  62.1207563  75.9368367  28.8291407
  42.4801207  16.6391873  45.1307344  41.7332935  17.2336257  45.0591230
  42.7146244  16.4389658  44.2245626  73.1911421   8.4017354  42.5742960
  72.7797699   8.7458909  43.3671141  72.4807835   7.9614031  42.1076822
  11.6770783  66.0402758  37.9676342  11.4005127  65.3781564  38.6011481
  10.9289732  66.6334660  37.8991270  82.7370612  75.7650478  26.5935111
  82.0038620  75.7001309  25.9815955  83.0202929  74.8601861  26.7247963
  22.1455183  66.9019336  39.2801499  21.2761107  66.9233842  39.6800303
  22.6652565  66.3519270  39.8663235  13.3280793  74.0526194  36.2249851
  12.5028983  74.1826601  36.6923118  13.8842907  74.7754759  36.5153933
  57.2929382   7.9701108  30.7946682  58.1223440   8.2316452  31.1945677
  56.6366768   8.5196739  31.2230706  55.6393242  22.1501851  36.3317871
  54.7623730  21.8502259  36.0926056  56.1624765  21.3498139  36.3759542
  15.3229845  27.9034662  56.8620634  14.6172667  28.3673573  57.3126221
  15.6087971  28.5086823  56.1777735   9.3728679  28.4214020  64.1300488
   9.7541046  28.9541960  63.4321833   8.7543726  29.0065503  64.5674276
  30.3775072  38.6364794  63.1843519  30.0414109  39.4082808  63.6399794
  29.7312403  37.9531050  63.3620453  40.6742620   9.6001077  51.5944767
  39.7699761   9.9113077  51.6350985  41.1961222  10.3389704  51.9074917
   9.4508529   8.2279813  27.4187279  10.3754902   8.4508967  27.5263691
   8.9971012   8.7699848  28.0641508   3.6419311  46.8073089  43.5325241
   4.5973030  46.7932684  43.5899591   3.3528772  47.0574219  44.4100904
  24.1966057  16.7368305  45.0224972  24.4770312  15.9824145  44.5043755
  23.4057021  17.0487630  44.5827198  38.0431700  33.1972790  26.0924745
  38.1455684  32.2711039  26.3114333  37.5200391  33.1974697  25.2908731
   1.5997799  44.0506380   6.1696806   1.9359168  43.9517411   7.0604458
   1.1507519  43.2246008   5.9900370  39.0474701  20.8957720  29.7983980
  38.8168383  20.3353596  29.0574694  39.9629974  20.6852698  29.9820566
  38.4174418  18.9655983  65.5539989  37.9657626  19.8091400  65.5284119
  38.3410597  18.6258721  64.6623802  13.3936155   6.2071431  39.0096021
  13.0558252   5.9372747  38.1556106  12.6740503   6.0352767  39.6169901
  31.4321804  26.7973208  54.1846848  31.6818094  25.8777165  54.0938854
  30.9251261  26.8288827  54.9959373  16.4849353  18.3526683  52.6973581
  16.2402177  17.4369311  52.5640583  16.9742739  18.5870469  51.9087887
  60.0958488  71.7491437  53.3883190  59.5910112  71.0795773  53.8498926
  61.0035435  71.4525003  53.4540844  53.7437248  20.1735258  32.9512620
  54.2902327  20.1173139  32.1674275  52.9104185  19.7810435  32.6908922
  35.9271121  14.1408598  43.7349796  35.8208799  14.6699452  42.9444027
  35.5065131  13.3073807  43.5236931  17.8173581  62.1890576  66.5158415
  17.3750677  63.0379481  66.5155888  18.6370459  62.3462028  66.9845057
  45.4661179   0.9355116  42.6162767  44.9118567   0.2462026  42.9821730
  46.2491322   0.9307318  43.1668186  77.3190657  66.5273554  23.3805299
  76.6385595  66.0055442  23.8058019  77.6600377  65.9591205  22.6898193
  84.2072582   5.7369840  34.4951749  84.7977066   5.3068310  35.1136971
  84.7055817   6.4869082  34.1703439  28.5246420   0.1927015  63.6374950
  29.4576621   0.0761122  63.4583044  28.1488776   0.4472418  62.7947378
  39.6866870   7.3124766  47.3889256  39.4754243   6.3809669  47.3265553
  40.3383207   7.3639870  48.0881739  12.8642011  34.3337607  34.3392396
  12.1762347  33.6719775  34.4097733  12.3924661  35.1649857  34.2866611
  37.9720250  58.2272489  37.3978877  38.2172099  57.8609426  38.2475567
  37.7943745  57.4628765  36.8497944  30.0667563  45.6384523  43.3730650
  29.1847506  45.8852989  43.0949354  29.9604979  45.3521616  44.2802477
   0.7252367  62.0080712   2.9210272   0.5040558  61.0767748   2.9206934
   1.6047820  62.0452168   3.2968655  31.9874516  70.7304800  64.8775864
  31.3974562  70.4736716  64.1689348  32.0393267  69.9565060  65.4383945
  31.2652850  15.6776237  41.5481901  31.3025641  16.6199100  41.7123270
  31.2489986  15.2830803  42.4201441  60.7304955   0.3947909  46.1764145
  60.2263212   1.1504666  46.4780664  61.6309309   0.5879606  46.4374495
  50.3817606  10.1929927  60.9845114  50.3940678   9.4739848  61.6162634
  51.2961674  10.2958274  60.7208443  77.1178762  78.9446282  64.2892265
  77.1057216  78.4849792  65.1287556  77.7732030  78.4782721  63.7702942
  26.4324808  16.7834365  33.7409782  26.2662768  15.8649266  33.9529848
  27.2000599  16.7622352  33.1694841  50.2826643   1.9228752  45.3590441
  50.6816149   2.4956632  46.0140133  50.9338379   1.8689199  44.6595526
  32.2717881  22.2706628  65.9762239  32.4447966  21.6730070  65.2488279
  33.0598021  22.2235274  66.5175581   2.4689451  67.2685690  31.3530731
   2.1147766  67.0267243  30.4973245   2.7872839  68.1636924  31.2362576
  44.0580463  31.2914681  32.5873399  44.0579700  30.8004260  31.7656898
  43.1313324  31.4091277  32.7961302  64.7168757  23.2495832  51.8972874
  64.4050361  23.6801529  51.1012983  63.9353801  23.1591654  52.4425602
   0.1778236  64.8065216   3.6554787   0.9791198  65.0702996   3.2031742
  -0.0132856  63.9328570   3.3142763  17.5584736  69.6940894  32.6854944
  17.1814242  69.7202058  31.8060708  18.4646263  69.9784679  32.5661254
  33.0511141  23.7438965  45.3410912  32.5821733  24.5033073  44.9952269
  33.9339972  24.0681577  45.5188704  22.1716022  16.5394306  49.5877075
  23.0052066  16.9708502  49.4000578  22.3433995  16.0167623  50.3709936
  76.4034367  14.8367620  41.8597317  76.1077023  14.1401780  41.2736082
  76.1305428  14.5487738  42.7308369  19.4274416  66.3115341  40.5258751
  19.3624201  67.1639998  40.0954008  18.7376252  66.3250191  41.1893559
  26.6840100  27.0239091  16.6943181  27.4796700  26.6936827  17.1115780
  25.9762311  26.7496562  17.2774684  55.2832222  22.2187090  24.8333645
  54.5041895  21.9911551  24.3258619  55.5320644  21.4033675  25.2687097
  36.2596741  74.4620431  24.2248249  35.4440203  74.6645779  24.6830010
  36.2933579  75.0927729  23.5056043  44.8731661  25.0685096  21.6213107
  44.1040325  25.0696754  21.0515165  45.3996277  25.8067203  21.3145375
  29.5188308  20.0702024  20.4277372  29.7451496  20.9508586  20.1286483
  30.3567863  19.6777403  20.6727552   5.3338081   9.8184216  43.6836863
   5.7684505   9.2502284  44.3196678   6.0233033  10.0549304  43.0632877
  25.7888818  29.7684264  14.1548550  26.5185022  29.7999883  14.7736359
  25.3760576  30.6289911  14.2272282  26.2228575  57.7323897  44.5654964
  25.9959546  57.1128232  43.8720369  27.1102991  57.4858124  44.8260260
  55.3119096  35.3584286   4.9454441  54.5563135  35.9419599   4.8761931
  55.0545201  34.7100344   5.6008568  23.4124651  69.4700844  47.4471045
  22.7399531  69.1240008  46.8604326  23.6589852  68.7248571  47.9949141
  17.4480286  67.3364825  14.6831930  17.4704113  66.5964694  15.2899146
  18.3628931  67.6052363  14.5993721  35.8803341  25.6838801   5.0960007
  35.1785591  25.0348284   5.1457682  36.3919190  25.4251876   4.3294564
  24.6491694  38.3123994  35.8573294  24.9435997  39.2119384  36.0000658
  25.2905393  37.9440188  35.2497339  30.0788903  20.1008034  53.5405159
  29.8013425  20.9221554  53.1348324  30.7707620  19.7719836  52.9665661
  41.7406654  12.4571192  68.0663872  40.7987547  12.5657594  67.9350758
  41.8610430  11.5129375  68.1676769  78.0324316  65.1270580  21.2540603
  77.2062922  64.8634720  20.8487821  78.5843754  64.3467426  21.2021470
  40.3982782  29.4865108   5.3732705  39.5350146  29.0929890   5.5003524
  40.6054688  29.8872209   6.2175065  54.9152327  42.8859806  17.3789930
  54.5489550  42.1412516  17.8559124  55.0031471  43.5734129  18.0392504
  40.2946234  33.2164264  34.1738129  40.7806730  33.6774325  33.4900999
  40.4601622  32.2894764  34.0017962  73.2180738  15.6744576   8.9582354
  73.0249643  15.2747011   8.1102180  72.8191471  15.0843155   9.5976245
   6.6975635  46.7939568  15.5613661   5.9497863  46.5627909  16.1123860
   7.0638275  47.5776529  15.9711313  20.0536710  68.6876468  68.9250281
  20.9565430  68.8119034  69.2176370  19.6011143  68.3310132  69.6893801
   6.3062078  50.7794809  48.5734749   5.7316232  50.2535343  49.1297722
   7.1248496  50.2846336  48.5390615  58.8448191  31.3600254  29.7490454
  58.0453300  30.9497094  30.0787330  58.9924383  30.9473753  28.8980675
  29.7388983  62.5922585  47.2615623  30.5857325  62.6893854  47.6970720
  29.8986554  62.8755617  46.3613176  70.6311131  37.5264049  34.3131995
  71.1137104  38.2016754  33.8363934  70.5749273  36.7938375  33.6996675
  43.6921740  24.4787240  33.6487985  43.0400229  24.8310781  33.0431771
  43.6458063  23.5306096  33.5256696  80.3946377   3.2554996  50.9467697
  79.8043592   3.6905402  51.5620279  80.2794106   3.7335771  50.1255560
  58.5875446  66.7317252  60.2509693  58.4068090  67.0476989  61.1362532
  58.4220893  67.4881582  59.6882376   1.8224984  54.6122551  46.8599558
   1.0275377  55.1240683  46.7105770   2.5294563  55.2573490  46.8427229
  39.6814728  13.0659568  46.2093067  39.2181754  13.8189673  45.8424759
  39.0651846  12.6879108  46.8366051   3.5848998   5.2511877  36.8567252
   3.2663821   5.0875556  35.9690285   3.6719893   4.3802962  37.2442746
  46.5709972  20.8736920  45.5130148  45.8820248  20.7427096  46.1644650
  47.0678091  20.0555658  45.5220222  31.8716812  27.3644876  30.9156585
  32.1981835  27.2209525  31.8039298  31.4265132  28.2108140  30.9579492
  16.1407566  39.1642761  43.5764027  16.2483156  38.9488077  44.5028162
  15.2749979  38.8242745  43.3503675  77.7333155  77.1252272  27.3785353
  76.9055357  76.8935169  26.9574308  77.8333464  76.4819712  28.0802822
  38.6212921  38.7583280  19.5867622  39.2138958  38.4700012  18.8925564
  39.1682172  39.2938995  20.1614499  77.9815302  56.1915925   6.9076290
  77.2109804  55.8042433   6.4923611  78.7025509  55.6115427   6.6628733
  28.0220199  29.3602228  30.2260375  28.0150819  28.7034726  29.5297170
  27.1880674  29.8201180  30.1298356  67.8900055  79.7990921   5.7200509
  68.4480027  80.1128717   5.0084245  67.4042145  79.0677250   5.3388155
  82.8672409  19.9289751  44.9741554  83.2488632  20.4306602  44.2538023
  82.1839333  19.4002092  44.5621729  13.3084083  17.1167088  65.6597710
  12.3684418  17.1201301  65.8405542  13.6634088  17.8032744  66.2244272
  78.9034081   5.6337118  38.0937529  78.5432816   6.3468206  37.5664783
  78.5774803   5.8014315  38.9779902   6.3177355  57.2176089   1.6558924
   6.1500081  58.1556823   1.5658035   7.2412308  57.1162047   1.4254513
  39.9631014  60.1196844  36.7761970  40.5916205  59.7512252  36.1553669
  39.3307391  59.4162185  36.9227839  62.7088308  27.7329755  18.3307040
  62.6807165  28.6026597  17.9318440  61.8890381  27.6674819  18.8204789
  31.9292879   7.6255018  56.8741417  32.4609661   7.3091334  56.1437607
  32.1828842   7.0716876  57.6125240  16.4745617   8.8758659  20.9646654
  16.8934643   9.7266948  21.0944414  17.2026563   8.2580030  20.8986640
  15.5575123  71.7538960  34.1925859  15.6300583  71.1118836  33.4863377
  15.1591483  72.5201226  33.7797475  30.1708245  31.6754413  32.6156092
  31.0368729  31.9666719  32.9008770  30.3006625  30.7662201  32.3459911
  21.5135613  48.5154636  28.5568213  21.3002148  48.0294735  27.7602482
  21.7564955  49.3880231  28.2472157  66.6684389   3.1972897   9.6934509
  65.9522581   3.7419778  10.0200021  66.3629246   2.8853661   8.8416314
  24.1009068  24.5141459  45.4108810  23.4808040  24.8016429  44.7407722
  24.7472620  25.2186418  45.4571342  74.6434689  10.7204592  57.2765112
  75.1489830  11.5024447  57.0547390  74.3065691  10.8943355  58.1554317
  40.3863621  20.1489472  48.1546307  39.9227858  19.3465233  48.3943081
  39.7782087  20.6145167  47.5805044  52.6294184  18.7316024  28.9052749
  52.6037216  17.7813768  28.7928343  52.5081301  18.8649118  29.8453546
  69.4625568   4.3606976  33.0580688  69.3074226   5.0826365  33.6671424
  70.0435352   3.7668601  33.5335183  44.4345617   2.0873939  55.0164509
  44.8243189   1.4111674  55.5705595  43.9905691   1.6012038  54.3216658
   8.8666120  47.3556907   9.7471595   8.2514825  48.0890615   9.7512573
   9.5820465  47.6463253   9.1815472  40.9615135  35.6124783  40.2567768
  41.7123270  36.0765219  39.8864079  40.3311729  35.5646491  39.5380163
  45.9309530  27.7171326  11.8488944  46.6974068  28.2850599  11.9278622
  45.9719419  27.3827100  10.9529519  43.7682745  66.2491467   7.5024071
  43.5318372  66.3991930   6.5870848  44.7110209  66.4114311   7.5359574
  48.4958172   2.2413991  57.3428774  49.3225098   2.5994715  57.6662874
  48.6099148   1.2923515  57.3931026  24.0645695  27.5059056  31.8369603
  24.8275614  27.0704007  32.2169757  24.4323325  28.1354928  31.2167978
  63.0706501  15.8104491  62.1510649  63.3072281  16.7064154  61.9112635
  62.1842051  15.6968725  61.8082190  21.7266837  62.2178514  46.7471886
  21.7223683  62.1000440  45.7972765  20.8730975  62.6034040  46.9446039
  35.8009219  31.8728185  56.2225103  36.3040638  32.2906160  56.9214582
  36.4366984  31.3214612  55.7664108  60.3480434  19.5928895  40.9171486
  59.6074295  19.3991649  40.3425217  60.1045799  19.2087746  41.7594147
  72.1951389  21.2331057  40.2105188  72.6620293  21.9059348  39.7149873
  72.7036285  20.4347181  40.0682211  69.9645185  16.7630327   7.2636127
  69.7269106  17.3527741   6.5480864  69.7578239  17.2550881   8.0582142
  26.2023020  26.3940787  27.7990150  25.6606483  26.9678736  27.2571635
  25.6069803  26.0714412  28.4755707  56.0267401  11.6244626  23.8931942
  56.3024521  12.5226188  24.0763068  55.1552916  11.7153001  23.5077548
  27.1227065  67.5247748  33.3420348  27.2562828  67.1442301  34.2101216
  27.3262015  66.8133981  32.7347755  64.3564701  42.4957657  26.0687852
  65.1499796  42.9732370  25.8267188  64.2966270  42.5966835  27.0187664
  38.3790731  19.0745234  16.7328894  37.6585841  18.5731471  16.3511181
  39.1651106  18.7161005  16.3206923  52.9165926  63.9346487  26.9065881
  53.2121363  63.4513528  27.6781559  51.9918719  63.7035091  26.8188739
  37.5617361  18.9460337  51.6452122  36.7781734  18.8735855  52.1902037
  37.4407125  18.2858276  50.9627819  27.8026509  41.2194061  66.6096067
  27.0529652  41.4919186  67.1387053  27.4901199  41.2719822  65.7063961
   8.9495562  16.0497260  33.8178015   8.5676669  16.4986336  34.5720410
   8.3900832  16.2989891  33.0822110  69.4247055  10.9497774  28.9165616
  70.1511049  11.4409721  29.3003631  69.1512966  10.3470409  29.6080732
  77.1323919  30.9103584  39.5462298  76.5781975  30.2951741  39.0659690
  76.8990612  30.7761145  40.4647970  50.7497272  48.8308843   2.0247259
  49.9075636  48.7644621   1.5746346  51.3875470  48.5076722   1.3883677
  49.0488720   7.0822251  36.0137820  49.2301655   7.9928064  36.2466025
  48.8701153   6.6522163  36.8500662  64.4693375  18.0703783  45.8016300
  64.3975925  18.8978648  45.3258657  63.8568306  17.4845004  45.3568649
  14.5103892  77.7211645   4.5726338  15.0575312  77.9711606   3.8280764
  14.6947487  78.3836582   5.2384749  68.7135649  15.2002180  48.4314013
  68.5291004  15.1245546  47.4951982  67.8527546  15.3006935  48.8377762
  15.2687970  74.2184956  43.5924292  15.8334580  74.4758476  44.3212366
  15.6369534  73.3900822  43.2851458  72.6827335  31.0829926  42.4308634
  72.7783871  30.1837587  42.1170759  71.9970846  31.0326028  43.0968809
  33.1737843  74.9195368   6.8798411  33.0114928  74.5072205   6.0313785
  32.6629868  75.7286573   6.8545562  63.5304880  14.1748369  40.2282000
  63.4123421  14.6386528  41.0571432  64.0664005  13.4143960  40.4534960
  20.8385825  15.5612504  35.2563357  20.2210069  14.8333979  35.3274965
  21.6844296  15.1818454  35.4947209  65.4263076  12.9184478   6.0860127
  66.1214718  12.4963706   5.5812091  65.8814249  13.5627883   6.6281611
  67.7954483  40.1560211  19.0136576  67.8559971  39.2192650  19.2008936
  67.5667095  40.5538750  19.8536718  57.4585819  64.1395473  43.7222910
  57.5318623  64.1381359  42.7679014  57.1588516  63.2571363  43.9408016
  58.9687538  56.3147402  33.4915400  59.4511509  57.0258141  33.9133120
  59.5356846  55.5497169  33.5893178  71.3785553  37.7135134  20.1167965
  71.4419699  38.5016227  19.5772672  72.2841692  37.5095558  20.3502440
  56.9621229  33.3071113  32.8201246  56.7909288  32.5201035  33.3373666
  57.8813553  33.5113811  32.9919362  75.0257730  73.9448261  52.3756886
  74.8430347  74.7906399  51.9665003  75.4415607  73.4292793  51.6846275
  78.7624121  18.7304914  41.5827847  77.8143167  18.6482608  41.4798641
  78.9828396  18.1088471  42.2764683  60.4857635  37.6007867  42.1337891
  60.7572556  36.6885209  42.0323229  59.7850609  37.5711107  42.7852249
  36.9990262   1.0236399  20.3004885  37.2710045   1.0175937  21.2182188
  36.4317139   1.7907851  20.2238512  20.1845129  32.6328107   0.2747622
  20.0079401  33.5537955   0.0828257  20.9960612  32.4414947  -0.1953707
  70.7026482  20.7583451  37.1488380  70.5394745  21.6390324  37.4864697
  69.8945713  20.2785850  37.3306942  54.3306828  47.4283504  30.3655815
  53.8821220  48.1638050  29.9482965  53.9173603  46.6511822  29.9895477
   2.2204207  28.5543752  30.7880497   1.8119525  27.7210784  31.0225797
   1.4844989  29.1439581  30.6236172  48.1581879  36.9873691  20.6334209
  48.7095165  36.5752459  21.2985682  48.0279303  37.8810978  20.9504628
  49.2704725  45.1514721  46.0188103  49.7808743  45.1318979  45.2092838
  48.4708881  44.6686554  45.8095598  76.3889980  67.7001524  35.7890296
  76.3599157  68.6517572  35.6898570  77.2887087  67.4632740  35.5640030
  47.6395836  66.1133344  27.9735160  47.6642266  65.5580194  27.1942544
  47.2828522  65.5484421  28.6589885  54.8799658  40.6998920  41.7998028
  54.1615391  40.0917578  41.6258335  55.1571703  40.4940176  42.6925564
  39.9507570  27.0269895  27.8764606  40.4670620  26.2791562  27.5757861
  39.7878051  27.5394392  27.0845819  56.6502953  36.1110353  24.9060559
  56.2173033  36.9396806  24.7008753  56.0515308  35.6708789  25.5093622
  67.0724440  37.9525852  59.1318989  67.1843576  38.4815097  58.3419943
  66.2125635  38.2042289  59.4688129  67.3268318  37.8715158  39.9394488
  67.9926205  38.0835152  40.5936718  66.6019201  38.4654689  40.1342726
  75.9689760  43.1381035  28.2413077  76.6238880  42.5608253  28.6338353
  76.4207649  43.5451555  27.5021029  68.7521505  58.5869265  29.8532367
  68.3355474  57.9103851  29.3194175  69.6819115  58.3594990  29.8453379
  66.5230656  22.2569227  31.7750359  66.9661188  21.4939523  32.1462655
  66.0442162  22.6375604  32.5112748  70.1501274  24.0322042  60.4283905
  69.8018408  24.4153047  59.6233034  71.0681295  23.8487792  60.2287388
  41.0637140  74.8605251  34.9184179  40.3966379  75.5454063  34.9651122
  41.5062666  75.0137472  34.0836120   0.8667659  69.7863054  58.0870867
   0.2584838  69.3001509  57.5304127   0.8513831  69.3200588  58.9229155
  53.0831718  44.4556761  67.3483753  53.5875750  45.2635908  67.4436665
  53.6612892  43.7712288  67.6853323  36.5378881  25.7087159  35.4741669
  37.0887589  26.4425826  35.7465839  36.4945507  25.7827353  34.5208168
  56.6491556  59.6009445  64.2054224  56.3817120  58.9634514  63.5433769
  55.8657885  60.1288986  64.3597937  66.0241318  41.9499540  36.2713170
  66.5223169  42.2870111  35.5267119  66.6731596  41.4937925  36.8069649
  63.6135626  60.9782648  31.9298744  63.6361790  60.6115627  32.8137589
  63.9750051  60.2873993  31.3746285  59.7728586  45.3984642  44.6284485
  58.9985180  45.4372692  45.1898050  60.4096937  44.8928547  45.1334524
  42.7094316  66.0740328  58.5613537  42.1440935  66.8263054  58.3861017
  43.4742975  66.2140322  58.0031300  61.8864679  78.5702181  11.9630516
  61.7445707  78.3500624  11.0423851  61.3302183  77.9576492  12.4442804
  42.1719235   3.5047598   7.9541579  41.8418329   2.6923294   8.3378592
  43.0425757   3.2786579   7.6269284  61.4749670  43.9833450  46.6615820
  60.8496714  43.3263540  46.9675303  62.3193216  43.6868763  47.0012856
   2.2300242  47.1356630  46.6099310   1.8757724  47.7832603  46.0005379
   1.7444419  46.3338232  46.4163017   1.0378550  26.3130069  31.5807724
   1.6704177  25.9864402  32.2206545   0.7892035  25.5400801  31.0738325
  81.9094372  26.3857222  42.9679251  82.2809219  25.5754018  43.3166456
  81.2860012  26.6704035  43.6361408  76.1827278  39.8661757  25.1973176
  77.1029854  40.0561285  25.0149107  75.7794809  39.7830367  24.3331909
  69.3221045  35.3859615  43.3801460  69.0839624  36.0528016  44.0242338
  69.5398426  34.6145558  43.9033604   3.6940860  60.2566385   1.6357864
   3.5372638  61.0947895   2.0706905   3.1553553  60.2924299   0.8453906
  55.1417923  21.1981726  49.7103882  55.9975767  21.6002822  49.8592997
  54.5617628  21.6302919  50.3373337  79.0885878  77.3464346  34.3065381
  78.1837273  77.6505280  34.2358780  79.5273447  77.7205467  33.5424948
   3.9706515  58.3649635  44.4650316   3.4953975  57.7135563  44.9808216
   4.3188285  58.9765930  45.1138067   6.8911456  20.9108377  30.4445744
   6.5437316  20.9530520  31.3355064   6.3504981  21.5245914  29.9473453
  49.5371532  46.6881895  17.2916365  49.5161295  46.0976124  16.5386379
  50.3478909  46.4646626  17.7487767  66.3131714   0.1694674  47.4631977
  66.6823626   0.7918872  48.0897188  66.8131065   0.3133711  46.6597128
  75.5246925  34.0774488  34.1648030  75.7666254  34.9436164  33.8370013
  75.4279566  33.5418034  33.3774304  59.4878197  52.0924616  40.5995750
  59.5569992  52.4797392  41.4721918  58.8620281  52.6510811  40.1385355
  69.0164471  41.5856409  42.1400738  69.4618559  42.3952103  42.3899508
  68.1699467  41.8736362  41.7984152  84.8121166  68.5063171  45.1029348
  84.4998932  68.4040213  46.0019779  84.2425346  69.1771936  44.7264576
  23.0683964   5.3560753   7.3663511  23.7896889   5.9577055   7.1819296
  22.5985354   5.7616825   8.0950060  23.6968392   9.6405955   4.5325365
  24.2563122  10.1476021   5.1208916  23.0382794  10.2659865   4.2301836
  58.5224104  23.3160019  46.7975426  59.3312454  23.6748314  46.4324999
  58.5518217  23.5536122  47.7243185  56.3890743  60.5190754  41.5635204
  56.5359735  59.5833731  41.4252758  55.8569193  60.7910204  40.8157969
  12.1353968   4.2793792  64.1520834  11.9211920   3.4003871  64.4647026
  12.6750048   4.1324179  63.3752632  69.6636295  61.6085720  27.6262522
  69.4855499  60.7028866  27.3727679  70.4854870  61.8235683  27.1851635
  34.4647956  51.3189220  46.1733246  34.0997505  51.8236780  46.9000912
  34.4633722  51.9274902  45.4344893  82.2433662  29.8421216  49.6889734
  81.9245148  30.2955866  50.4693174  82.5927067  29.0142989  50.0189781
  71.8395481  20.1203864  61.0033989  72.3513326  20.4046481  61.7607021
  72.3918256  20.3277724  60.2495956   4.9486255  24.4277024  42.1274090
   5.3490638  24.5519733  41.2669182   5.5225276  23.8028955  42.5706768
  55.5353975  46.1239433  41.3446951  54.8666573  45.5817556  40.9263086
  55.2786160  47.0226860  41.1384010  60.1715374  55.8231258  42.3259211
  59.3539047  56.2573957  42.5690556  60.6017256  56.4378929  41.7315865
  45.7924842  20.2427316  16.2884927  45.9765242  20.3874159  15.3603613
  46.2016963  20.9854937  16.7324352  60.4331684  55.4924297  46.4354134
  61.3155365  55.5076742  46.8061352  60.3005028  56.3776779  46.0963583
  49.4400692  63.6510277  40.5781460  49.1759920  64.3255091  39.9523950
  50.0917101  64.0804577  41.1323929  77.3453999  50.7282400  50.2296257
  76.9536018  50.2368164  50.9515905  78.2685471  50.8103848  50.4689646
  56.7680502  42.8942108  38.4277344  56.4007282  42.6631832  37.5745440
  57.2194004  43.7247896  38.2772207  59.2631912  24.0301919  41.4237165
  58.6799717  23.5303450  40.8525467  59.7093296  23.3667922  41.9501114
   8.9241980  41.0088444  47.8141785   8.4676265  41.7130995  48.2743931
   8.5116671  40.2066374  48.1343460  68.2360220  28.3880305  16.9248700
  69.1850185  28.2647324  16.9458592  68.1043053  29.2855978  17.2302461
  51.2660265  49.0790939  57.0653677  50.8941174  48.5684156  57.7844810
  51.4478397  48.4336996  56.3822556  75.8792686  47.0245171  36.3775706
  76.7232704  46.8335867  35.9683728  75.4268026  46.1812592  36.3980508
  77.3403645  51.4536095  18.5560417  78.2223082  51.7516994  18.3334374
  76.7949438  52.2357607  18.4724152  51.3801718  53.5235691  38.9011025
  51.3947201  53.8565207  39.7984123  51.4854240  54.3025303  38.3548617
  71.1369610  29.1254497  26.1506820  71.8811798  29.6096849  25.7930660
  70.5215025  29.8035836  26.4292073  43.1964636  58.0489683  22.6235747
  43.5898113  57.4531794  23.2611823  42.5109148  57.5304365  22.2024083
  76.1289358   6.7372108  25.6506586  76.7490959   6.2362695  26.1804652
  75.2707195   6.5127259  26.0102510  77.3848534  31.9518805  22.7021384
  77.6516438  31.4493704  23.4719038  78.1027937  32.5683141  22.5578928
  66.8972033  20.8779116  12.2150746  66.6689032  21.6569157  12.7222862
  67.8299349  20.7462473  12.3851052  80.3229237  80.4246712  59.2805862
  80.2035046  79.7711849  58.5914373  79.5437241  80.3386784  59.8298359
  66.4661789  42.9913616  39.5241165  66.7640305  43.5740709  40.2226639
  67.2676229  42.7357769  39.0673971  52.1262598  51.7532063  51.5012980
  51.2476873  51.3986349  51.6377544  52.0043278  52.4564362  50.8634615
  71.3928127  39.5201945  56.6670656  70.7613039  39.0280414  56.1424541
  71.0290194  40.4044008  56.7124939  74.2229795  78.3725500  57.9578400
  74.0002394  77.9471016  58.7858534  73.6417818  77.9654360  57.3154259
   3.4168719  69.7978783  61.6854095   3.0807875  69.7367668  62.5795794
   2.7081870  69.4574976  61.1393881  61.3381481  69.4366598  49.8369217
  60.4559851  69.3099499  50.1861620  61.9153500  69.0631962  50.5029488
  75.4392061  18.6031478  66.9663191  74.9218282  19.3952124  66.8207359
  76.2074241  18.9046328  67.4512720   8.6783980  54.2412615  48.1719780
   7.9279517  54.3569851  47.5891590   8.9047431  55.1287508  48.4501171
  84.9093723  52.8251648  66.6327429  85.5009174  52.1449327  66.9545889
  85.0225544  53.5509872  67.2464275  22.8571414  53.2671547  56.7920780
  22.9998111  52.3207951  56.8090153  23.6792754  53.6274052  56.4595985
  85.1126385  32.0514011  62.4364948  85.4462814  32.4700713  63.2299852
  84.9215603  31.1519718  62.7024746  58.4195280  65.9204483  28.9324117
  58.0215883  66.7767000  29.0895987  57.6805210  65.3123283  28.9156294
  69.0151596  59.0534496  46.2106371  68.6329556  58.2277489  46.5079117
  69.9087858  59.0408754  46.5534353   3.7071856   6.7471068   9.0016180
   2.8089436   6.4169352   9.0211195   3.6482438   7.6242106   9.3803549
  79.7801018  73.7159348  62.2228384  79.6967268  74.5339441  61.7327929
  79.0674114  73.7454176  62.8611422  65.0724888  19.8928881  27.4551105
  65.3213358  19.3007720  28.1648326  64.5187712  19.3615878  26.8829679
  73.2348537  74.6397495  65.1408625  73.1083202  75.2813911  64.4419241
  74.1549540  74.7328806  65.3877926  79.4107676  63.7021494  14.7767150
  78.5804510  63.5828161  14.3156731  79.1706228  64.1406250  15.5929863
  81.0108528  20.3617900  28.2865119  80.5094394  20.6161921  27.5118518
  80.3486929  20.2065127  28.9600587  21.5865325  60.8214378  56.9086742
  22.1926879  60.7375288  56.1726284  21.4574717  61.7648602  57.0063162
  43.2037973  54.7050619  19.7498047  42.3822975  54.2185116  19.6816707
  43.7662792  54.3207121  19.0774083  65.9821415  63.0302000  47.3558760
  66.2120676  62.1329975  47.5975323  65.3144598  62.9317999  46.6770935
  43.2909887   5.9564753   9.1828099  42.9082316   5.9905024  10.0594893
  42.8336018   5.2358218   8.7495747  70.0539732  57.5597334  51.7579889
  69.6054077  58.3104801  51.3688803  69.3573141  56.9251394  51.9259024
  12.3504504   6.9483893  68.7100887  13.0581149   7.4051612  68.2553387
  12.3626383   7.3098891  69.5963144  72.7246094  72.0940208  26.3631487
  73.0542278  72.4262619  25.5281639  73.4688282  71.6303110  26.7469954
  60.7456636  58.1434202  44.8201132  61.5504026  58.2004118  44.3049622
  60.0917912  58.6045599  44.2947292  73.1857967  16.2771523  32.0760798
  73.2330561  16.1127710  33.0178738  73.4616470  15.4529917  31.6749597
  53.2642651  54.6068764  53.7618160  52.9477262  55.3794670  54.2299366
  53.2605886  54.8668051  52.8405905  61.5177488  78.5162687  48.1450176
  60.6316185  78.7364388  47.8577280  62.0794392  79.1459417  47.6930761
  57.2548437  56.0978127  44.5018435  56.5307999  56.0595131  45.1267672
  57.0130873  55.4746437  43.8166857  56.7011642  62.5376320  32.4564552
  56.3612366  62.8881359  33.2797575  57.6247883  62.3605347  32.6347327
  73.5659170  66.6265106  26.4845657  73.1154633  67.3338366  26.9461036
  74.0612936  66.1728859  27.1665144  60.0638342  73.1860542  46.3816118
  59.5702744  72.9018402  47.1509314  60.9104776  72.7472734  46.4646721
  48.3714008  48.9154005   8.5347277  48.6807489  48.7311602   9.4216269
  47.4277020  48.7598467   8.5730761   8.3519744  57.8295708  59.8986959
   8.8676070  57.8050280  59.0926218   8.2544040  58.7618971  60.0923109
  39.3888617  70.1321888  68.2636070  40.1412630  69.5447683  68.1924820
  38.6277270  69.5569229  68.1863403  62.6897621  46.2222672  44.2119026
  62.4572372  46.1242390  45.1352406  62.4714041  47.1309900  44.0050936
  82.5744247  51.3125515  53.4501553  82.6526356  50.4690409  53.8958073
  83.3809280  51.7771673  53.6735725  42.5269993  14.7494166  33.9816260
  41.7447957  14.2270701  34.1592145  43.2563790  14.1767257  34.2188025
  53.4394741  37.9375672  30.5134034  53.0175781  37.2250128  30.0332999
  52.7453327  38.2989264  31.0645986  74.4788417   5.0144427  53.7284327
  73.9312515   5.7772773  53.9140558  73.9544544   4.2673343  54.0166855
  36.8298912  65.5411482  26.3480878  36.4889598  64.6470022  26.3255811
  36.0526919  66.0914516  26.4448166  73.1287479  22.8347230  45.5390787
  72.5057650  22.1220660  45.6813526  72.8298378  23.2569361  44.7337103
  39.5006188  36.3390677  35.5513000  38.6396321  36.7279380  35.3973365
  40.0749501  36.7706912  34.9187851  84.3671131  71.5362215  46.5963411
  84.8727322  71.1238527  45.8959579  84.8450184  72.3415518  46.7945290
   0.7649421  73.5850859  47.8430796   1.6633033  73.8767624  47.9983664
   0.2676963  74.3942213  47.7235651  65.2895069  37.7287459  18.5631359
  64.7186947  38.1992173  17.9556298  65.3400469  36.8419862  18.2062984
  50.8766985  51.1405182  34.4321275  51.2894535  50.5535364  33.7986326
  50.6087446  50.5674267  35.1504564  17.0775175  59.5148134  53.0690289
  18.0030298  59.4044781  52.8511190  16.6779137  58.6730051  52.8501320
  80.1492405  50.3876781  33.2407975  80.0348091  50.2687979  32.2979259
  79.2757034  50.2503347  33.6072731  30.5262478   4.1924517  25.4490423
  29.8111161   4.2718451  24.8177671  30.1553734   4.5101207  26.2723088
  34.8196801  76.6383936  35.5357590  35.4874047  76.2549069  36.1043682
  34.3171605  75.8886507  35.2170220   9.5711326  43.6120939  35.9248495
   9.8805999  43.7863636  36.8137193   9.2344474  42.7167368  35.9596896
  12.3355206  10.8216422  40.4294109  11.5934380  10.3101676  40.7518005
  12.9108056  10.9139102  41.1888647  56.7042732  17.3162651  16.5105069
  56.5715742  16.8139350  15.7065868  57.2921038  16.7746174  17.0371044
  29.9518538  78.3915567  15.3433442  29.6893477  78.5754204  16.2452948
  30.2650738  79.2319918  15.0089943   8.4853362  76.7879772  29.1233540
   8.4213351  75.9432316  28.6777711   8.3689402  77.4351168  28.4277320
  60.5064631  58.5264111  34.4634151  61.0025358  58.8682079  33.7195587
  60.6948185  59.1357231  35.1772046   6.8547725  47.3115778   7.2005516
   7.1563147  47.7639818   6.4127469   7.5109290  47.5235558   7.8644454
  71.1612415  66.4230871  23.4917331  71.9882107  66.3884115  23.0109549
  70.5157614  66.0615206  22.8843951  14.6091842  62.5068951  32.0169687
  15.2424334  62.8415489  32.6519799  14.4784545  63.2309723  31.4047146
  12.4718760  37.6548052  36.4007163  12.8695487  38.4943223  36.1698413
  11.9281196  37.4315333  35.6452656  53.7044048  48.7055826  43.3417892
  54.0617752  48.6908770  42.4539280  53.7642956  47.7977133  43.6391497
  10.7926177  66.9190216  34.5181298  10.8303927  67.5638342  33.8117146
  11.2506198  66.1543608  34.1691899  63.0303001  43.4454441   8.3357292
  63.1293774  43.6140585   7.3987198  63.8874292  43.1217003   8.6127758
  75.0918388  65.8472157   0.6978197  74.1634798  66.0318375   0.5553594
  75.5386782  66.3008356  -0.0168825  80.5140018  78.5822248   4.7826630
  80.6071472  78.6020660   5.7351136  80.8547592  79.4278383   4.4910184
  31.6832169   8.0317920  23.3263755  32.0397290   7.6163333  22.5411844
  30.8758648   7.5502055  23.5066128  10.7092946  24.5088501   2.4882307
  10.4976218  25.2574415   3.0459395  11.5523260  24.1963072   2.8166332
   3.8370322  46.5735245  30.4203153   3.7932204  47.2979498  31.0444260
   3.1971740  46.7998552  29.7453451  67.8763485  37.4737525  44.3231106
  67.6598549  38.1574488  44.9570847  67.1618032  37.5021720  43.6868334
  73.6563158  40.1734734  13.6460114  72.7530527  39.8577595  13.6720240
  73.6681271  40.8067036  12.9282987  43.3222645  24.7658844   8.5952654
  43.3873194  25.7163639   8.5025921  42.3977631  24.6064873   8.7853232
  73.9312792  50.8633709  54.6721268  74.3537235  51.6512012  55.0143290
  73.4174585  51.1720371  53.9258432  12.4442862  52.5405169   5.0499678
  12.8605460  51.6879940   5.1771206  13.0084132  53.1549168   5.5195487
  74.7813225  30.1819301  65.1595926  74.2435312  30.9671664  65.0575399
  74.4564009  29.7715902  65.9610176  57.0247984  51.0058165  59.2267799
  57.5988626  50.8679199  58.4733438  57.2417784  51.8855429  59.5353794
  62.9131985  76.3603783  34.1834021  63.3306932  75.5001593  34.2275620
  61.9878960  76.1866760  34.3562531  47.2026443  48.3197021  55.9846973
  47.7607250  49.0710926  55.7842207  46.7444372  48.5690403  56.7872620
  36.8140515   9.2459719  50.3370810  37.4966057   9.8181289  50.6877804
  37.2588070   8.4140055  50.1750755  85.1987171  56.3688135  55.5632639
  85.0107193  56.1926508  54.6413898  85.1864243  57.3234653  55.6320333
  66.8615723  69.9124813  20.0432849  65.9537411  69.9009037  20.3464913
  66.8316889  70.3930950  19.2160308   0.4226493  26.6970944  45.7063198
   0.8509826  25.8453822  45.6205893   1.1152171  27.3327255  45.5258656
  16.4596470  15.6663459  18.7906528  16.0651835  15.7834857  19.6548927
  15.7188567  15.4871886  18.2115424  15.7880068  55.2567911  41.7176247
  16.0465777  54.5030403  41.1873102  16.0788465  56.0160875  41.2125349
  19.0374058  31.4571924  15.1819935  19.1792172  30.6435843  15.6658974
  19.7492521  32.0312424  15.4647770  51.0314226  46.0090113  34.4849586
  51.2224722  45.0818729  34.6269083  51.2497520  46.4286852  35.3170848
  54.5245656  78.0592515  11.2059250  54.7807225  77.1406915  11.2887612
  53.8535508  78.1822684  11.8773785  43.1314802  69.1310358  49.2695045
  43.6377525  69.9396133  49.3477392  43.5067034  68.6860895  48.5095930
  69.2975473  16.4658082  34.6282101  69.9425316  17.0326734  35.0511670
  68.8891315  15.9876287  35.3498554  17.6335247   3.1304496  53.4947062
  18.5572918   3.2603209  53.2802010  17.6357420   2.4340194  54.1513777
  38.4432650  73.0580759  62.6613617  37.9609966  72.8079462  61.8732738
  37.7721405  73.1302786  63.3400440  83.3610725  68.5641861  58.3301401
  83.1471920  67.9172802  59.0024519  83.8780308  68.0791712  57.6869059
  82.4591064  76.0804272  23.7164021  82.4543571  75.1302338  23.6009192
  83.3692551  76.3355064  23.5654640  10.2047061  64.2661428  55.4538155
  10.0564860  65.0763416  54.9661255  10.7254599  63.7225580  54.8625851
  64.4413614  49.5598888  25.3026700  64.4451523  49.6700716  24.3518400
  65.3627634  49.6213913  25.5545855  15.2535382  29.8800395  68.8038756
  15.8738079  30.6066487  68.7444410  14.5561018  30.2063916  69.3724809
  70.5436182  32.1248507  46.0375834  71.1740685  32.7543759  45.6876373
  71.0750532  31.3714004  46.2947273  84.1918468  40.4268074  55.0443459
  84.6864700  39.6224356  55.2010870  83.3248520  40.1257277  54.7724867
  69.4366121  53.1923628  36.4237857  69.6015072  53.6331034  35.5902481
  68.7431002  52.5621986  36.2284279  39.1749430  70.9983253   3.1821528
  38.6376119  71.3244867   3.9040437  38.9027929  71.5192509   2.4266365
  83.2920265  76.8437910  10.3102696  83.4810925  76.1676979   9.6595919
  82.7136612  76.4144564  10.9406638  11.8488501  39.6374917  51.9644499
  12.0808314  40.4527044  51.5196562  11.4753436  39.0870190  51.2761879
   8.9099883  23.8780975  48.4395075   9.5501040  23.5403705  47.8130674
   8.4024142  23.1098437  48.7010098  62.3819494  67.4890900  63.9368057
  62.0419645  66.5966702  63.8717842  62.9065847  67.4877882  64.7374201
  65.2632556   1.2478583  54.9607658  64.6428237   0.7241671  55.4677677
  65.0734720   1.0275786  54.0487957   1.2620353  67.2878790  28.7092686
   0.9556006  66.3814783  28.6814666   0.4627131  67.8086472  28.7874961
  57.7015131   4.3776579  37.9563656  56.9598501   4.8193903  37.5427952
  57.9060572   4.9171610  38.7201252  44.9541283  66.0432529  51.3633060
  44.2087173  66.1452055  50.7715273  45.4788876  65.3462029  50.9696341
  37.0324629  42.2773667  11.5948239  36.6526430  41.3993283  11.6266861
  36.5099686  42.7869625  12.2141304  14.7457798   0.9892218  26.1318851
  15.4383572   0.3754561  26.3765669  15.1639756   1.8494361  26.1689687
  50.6685799  10.0726099   2.5624218  50.3161305   9.4773932   3.2240334
  51.1064499   9.4992371   1.9333353  83.3020124  77.9129651   6.5874615
  82.5398597  77.3829939   6.8208828  83.0627975  78.8031771   6.8453922
  57.1816635  79.0332603  37.5755620  57.1410799  79.9493265  37.3009491
  57.3948669  78.5526562  36.7756891  69.3004608  61.2127829  37.1439838
  68.5939789  61.7380905  36.7682624  70.0993443  61.6892624  36.9181848
  52.4447680  79.3586349  64.2212296  53.3937073  79.3146181  64.3387413
  52.1135044  78.5693932  64.6497154   8.5539912  25.1147294  65.8964729
   9.1220569  24.9631214  65.1411295   7.6901625  24.8183060  65.6098318
  72.7637148  55.8884001  10.0643992  73.3814573  55.1702642  10.2018964
  73.3165741  56.6486692   9.8839307  35.3069943  34.1339226   3.0475989
  35.4075497  33.7642069   2.1704235  35.3175276  35.0812502   2.9108801
  46.9906712  73.0385780  22.3252487  47.2480011  72.3455620  22.9333115
  46.5007877  73.6600304  22.8638077  58.2442331  57.6857901   5.0995201
  57.9590273  58.5492086   5.3985071  58.6649036  57.8513813   4.2558095
  67.9985762  57.4279976  39.8187494  67.3009729  58.0612755  39.9876904
  68.5716105  57.8652382  39.1889262  54.1710091  27.8974175  36.6985869
  55.0697851  28.0875635  36.9674373  54.1424608  26.9442654  36.6154027
   7.9847525  51.7633104  33.0030632   8.7012385  52.1783543  33.4832978
   7.2810935  52.4121284  33.0147529  57.5387192  40.8798742  40.2416945
  56.7483568  40.8281279  40.7791758  57.3229837  41.5152740  39.5590830
  66.7636538  69.3726015  46.4296103  66.7962170  69.5926762  45.4986238
  67.3475075  68.6192751  46.5182066  46.2759447  62.3240662  60.8080816
  46.6698599  62.5779009  61.6427279  45.7538652  61.5490580  61.0154963
   4.6111201  47.4781847  22.6190138   4.4761561  47.0927382  23.4847188
   5.4799842  47.1755791  22.3549151   5.1815699  53.2681322  48.6315584
   4.5861243  52.9307222  47.9623556   5.8770179  52.6126623  48.6858368
  58.5376835  74.7022438  56.8759632  58.1430674  75.0464582  56.0747004
  59.4801188  74.7998571  56.7398787  72.4959040  35.7227540  30.9807801
  72.4455881  36.5715933  30.5412698  72.2406912  35.9057260  31.8850040
  39.3988323  71.2277031  40.1473331  40.1150703  71.6221380  39.6496797
  38.7419391  71.0064220  39.4872141  40.8182209  27.8435583   8.4506407
  40.0863379  27.6469775   9.0353909  40.5112618  27.5759049   7.5843992
  23.3345412  74.6139860  50.3375673  23.2782458  73.7781811  49.8744392
  22.9323577  74.4434404  51.1892700  55.5440187  46.4533615  52.8355789
  56.4197636  46.3287926  52.4698067  54.9637651  46.4497948  52.0743179
  75.2266645  38.8445020  48.4075928  75.8473921  38.4369278  49.0115881
  75.1906586  39.7604823  48.6831236  37.7495432  71.6890717  46.1606646
  37.4271607  72.3039198  45.5016756  36.9615912  71.3880014  46.6131306
  25.6202506  42.4337006  28.1790113  24.7434615  42.7392530  27.9463935
  26.1213397  42.5025940  27.3663640  31.5929478   5.0112028  46.7469254
  30.9963768   4.4308110  47.2196617  32.4243181   4.9327441  47.2147980
  77.8449297  35.3639293  17.7753878  78.5683775  34.7637939  17.5945759
  78.0093527  35.6760645  18.6652005  61.0949183  62.7310753  44.4609547
  60.4892492  62.4919224  43.7593842  60.8256435  62.1913338  45.2041912
  74.0275764  79.6013880  20.3321028  73.4568644  80.3512859  20.1642370
  74.1960716  79.2300415  19.4661105  51.9156742  45.6340694  29.7814012
  51.2805557  45.7524681  30.4876852  52.5468540  45.0044870  30.1299214
  59.5689011  53.4180880  59.0858936  59.3866348  53.0033731  58.2426691
  59.6698761  54.3471909  58.8790035  81.8932724  53.6599588  58.6351109
  82.6698017  53.1524563  58.8710785  82.2285080  54.5360565  58.4445763
   6.5686892  73.0956984  57.5124168   6.1893367  73.1485367  56.6351843
   7.2085666  72.3861790  57.4543190  26.2143811  21.5840762   1.6620305
  26.5546616  22.4728339   1.5593913  26.9563015  21.0807841   1.9974205
  33.3990622  67.5510311  49.4136095  34.0400124  67.3276854  50.0885391
  32.7651143  66.8342972  49.4387817  82.1375951  12.7661650  58.8258600
  81.8808183  13.0146735  59.7138596  81.8622551  11.8531173  58.7435770
  72.6115379   3.5109370  47.1319437  73.1102905   3.1449931  46.4014912
  73.1494150   4.2361491  47.4497461  54.4081068  61.0276651  68.8837385
  54.2805529  60.1075983  69.1149092  54.0678883  61.5128756  69.6354389
  70.9430599  79.6290255  33.5839629  70.0523663  79.9586821  33.7032485
  70.9364796  79.2307281  32.7135921  60.6198263  77.4109221  54.5685911
  61.5092897  77.6701307  54.8092222  60.7139921  77.0020056  53.7082672
  14.9272632  65.2667189  46.6598988  15.4772281  66.0467482  46.5869427
  14.1928386  65.5419350  47.2086382  77.8482437  67.8455591  13.3314836
  78.0562496  67.4623537  12.4793589  76.9531155  67.5580835  13.5113060
   2.7928447  78.3600712  15.1610053   2.8625869  77.8516674  15.9690249
   3.0033492  77.7359819  14.4664311  72.6810837  17.5280142  23.9645815
  73.1529236  16.6999340  24.0533352  73.2263708  18.0527604  23.3784628
  17.8637274  62.5826647   0.7564345  18.7043341  62.8328207   1.1398926
  17.4972208  63.4031584   0.4267445  55.5469751  65.5760241  32.3853803
  55.6989145  64.6310282  32.3966527  56.0007858  65.8822298  31.6001892
   4.9942778  39.4503975  24.4323325   5.0574206  38.4954357  24.4152880
   5.8856391  39.7461081  24.6174264  67.6452827  46.8352985  27.7469683
  68.3341694  47.1688080  27.1721315  67.4629498  45.9555197  27.4168563
  21.4957356  72.5540590  30.1808047  22.3064876  73.0167198  30.3925896
  20.9360576  73.2211971  29.7834158  64.0982389  32.9054999  22.0514321
  64.3319941  33.8188481  22.2169137  63.8545513  32.8845239  21.1260080
  69.4936085  62.1791029  62.2579288  69.5064116  63.1236458  62.1033287
  68.6159039  62.0038176  62.5972557  81.0945606  47.2665739  46.8991613
  81.7413712  47.1733856  47.5985861  81.4313316  46.7222834  46.1874247
  36.7620962   5.8162184  10.5763855  37.1712750   6.4655896  10.0044337
  37.4252337   5.6309910  11.2413445  68.6369467  28.6379623  44.1981268
  67.7992535  29.0993309  44.2386198  68.4576225  27.8620648  43.6670303
  56.2252331  52.4205875   8.7759954  56.9844055  52.9067898   9.0977067
  55.5655050  52.5255728   9.4615370  82.4735069  74.5380783  29.5914888
  82.4723434  74.2647409  30.5088305  83.2643509  75.0696850  29.5009780
  84.9480534  72.7035141  42.9784966  84.4162083  73.3439493  43.4509420
  84.4002342  71.9195652  42.9392195  77.9358959  49.3276215  62.3354578
  78.4921837  49.8519659  61.7594004  77.3131466  49.9548101  62.7029467
  61.3049117  61.4215586  69.5016097  60.4852763  61.2666914  69.9711361
  61.1558428  62.2363207  69.0218509   2.8359603  54.1937542  39.3298388
   2.2569178  54.9300146  39.5269680   2.5466155  53.4970617  39.9190164
  56.5316010  62.6383066  59.0418673  56.8871641  62.2499275  59.8412228
  55.9410143  61.9705153  58.6933041   8.9741324  59.4319153  43.9306068
   8.4339618  58.6416960  43.9312220   9.4990443  59.3638468  44.7281456
  24.7848423   5.9992450  55.4926252  24.1547974   6.3529437  56.1204529
  25.3713139   5.4578536  56.0210085  68.0847549  59.8068094  43.5332727
  67.5020266  59.2178297  43.0539465  68.0257225  59.5142984  44.4427681
  78.3959532  15.9169507  40.0385714  77.8964949  16.2573254  40.7808113
  78.8233280  16.6872203  39.6640468  64.1614628  48.7065458  32.6994348
  63.7466860  47.9910803  32.2174525  63.4316015  49.2498207  32.9967403
   3.5587024  44.0522718  61.0564804   3.7298583  44.1808987  61.9894314
   2.6244735  43.8490438  61.0101557  67.6232958  52.0349360  27.8516579
  68.4017372  51.5241671  28.0738521  67.1827888  52.1769190  28.6895275
  47.1671200  59.2534971  40.3148794  47.5206232  60.0776148  40.6496859
  46.7463255  59.4914436  39.4887185   1.9176005  64.0642166  44.8059893
   1.1929034  63.5803986  44.4097948   1.4982222  64.6505451  45.4357338
   5.7723235  56.2941885  32.5045228   4.8530768  56.2973642  32.7713823
   5.9707736  57.2118425  32.3180985  33.1519485  50.3363657  68.5885668
  32.6258469  50.3744650  67.7898216  33.5148072  49.4506264  68.5943413
  79.1461229  70.1126623  47.7840471  79.8757410  70.2266359  48.3930588
  79.1447163  70.9133053  47.2594500  48.8318968  50.4881763  56.0384369
  48.8998508  51.2678766  55.4873657  49.6371222  50.4897404  56.5559721
  54.2453194  77.4436474  55.7140684  54.8753166  78.1618404  55.6546402
  53.4167004  77.8275633  55.4272985  55.8758688  73.6873055  48.5178566
  56.8089342  73.8169956  48.6875772  55.8299828  72.8473330  48.0611658
  55.7221270  71.4299011  47.0168257  55.2831793  70.6255436  46.7401266
  56.5368986  71.4430571  46.5146208   1.2490271  41.6463661  33.1582189
   0.8916377  42.3674250  32.6399732   2.1571826  41.5684748  32.8659534
  16.5435847   6.2067645  37.4775958  16.7397984   5.6334441  36.7366290
  15.9523591   6.8683856  37.1185112  74.5551825  35.8656812  20.3928494
  74.9930477  36.6068792  19.9743676  75.2690363  35.3298616  20.7385921
  68.6416483  37.6200652  20.1291776  68.3183479  36.7575073  20.3893733
  69.5902777  37.5651050  20.2445769  42.6274126  19.7596712   0.3663340
  42.6448982  20.4977055   0.9756174  43.3543604  19.2023964   0.6442299
   2.4447497  78.9296367   1.0367241   1.7311343  78.4622838   1.4709606
   2.4304875  79.8038843   1.4262333  49.1431999  55.2028656  18.8539386
  49.3269968  54.3500757  18.4599864  48.5408735  55.6248951  18.2413018
   4.5703505  62.6285934  60.6156969   5.0286673  63.0491781  61.3432169
   5.2536105  62.1488190  60.1474953  74.9797392  29.8422241  56.4006805
  74.2654800  29.3102813  56.7515373  75.4460716  29.2547917  55.8059645
  12.6815413  32.0901895  29.6704793  12.9957103  31.2629366  30.0354195
  13.4758281  32.5463891  29.3925905  38.7580442  71.5892172   7.6978678
  39.2794633  72.2054958   8.2122165  38.4784722  70.9265757   8.3295125
   1.2495135  74.0518856  56.1887550   0.5315398  74.6755075  56.2975931
   2.0033835  74.5931149  55.9542799  77.8336096  76.1917734  57.6573610
  77.0522261  75.6527996  57.5341702  77.5934505  77.0468807  57.3005056
  66.6956377  40.6922007  24.1404343  65.7961416  40.4804087  24.3900037
  66.8637991  40.1512766  23.3688426  79.4998693  49.5198774  13.6855578
  79.6709013  48.9770126  12.9159617  79.8522139  50.3795767  13.4553385
  14.1783293  23.3366149  62.3259544  14.8612793  23.6634677  62.9116011
  14.3735512  22.4047892  62.2268772  73.0389547  60.6626272  28.4302378
  72.8194046  61.4696264  27.9646468  73.9554930  60.4994488  28.2076168
   4.9007319  65.8716106  31.4962769   4.0039538  66.1697817  31.3442326
   4.8013591  65.0066185  31.8939543  41.2263783  23.2419055  35.2395153
  41.9316300  22.8659575  35.7663083  41.3723381  24.1869014  35.2833200
  40.0281611  50.3568480  64.3777851  40.5721655  49.6366141  64.6964595
  39.7025576  50.7806036  65.1719183   3.8612746  60.0667334  21.1398172
   4.1462611  59.2265701  21.4991713   4.6515845  60.4412985  20.7507944
  47.3792505  74.9451256  11.3245380  46.6640997  75.0176191  10.6924498
  47.0877647  75.4611206  12.0762134  43.1768616  11.5510409  65.0982952
  43.6580094  10.7295840  65.1979780  43.7286004  12.2053092  65.5269480
  16.2789534  50.9749699  38.9758992  17.1751021  50.7609224  39.2353797
  15.9173392  50.1474380  38.6586213  24.2012595  69.7353220  59.5206165
  24.5511531  69.5418072  58.6509323  23.6679648  70.5202150  59.3950272
  73.0618763  50.2977180  30.8748865  73.8532495  50.8354330  30.8462834
  73.3124113  49.4797897  30.4454017  55.9193373  52.8312683  28.0488038
  55.3308582  52.5856066  28.7626481  56.4211845  52.0365143  27.8678465
   9.6755122  66.5147972  54.2753267  10.3039645  67.1557951  54.6075869
   9.2563056  66.9522524  53.5342884  49.1431761  64.1378403  22.1846771
  49.0457249  64.9350500  22.7054405  49.6355438  64.4151354  21.4120770
  71.1330336  31.1665888   5.2195444  70.7732885  30.7478352   6.0015097
  70.5286902  31.8850870   5.0330963   7.7567824   3.1710856  33.0336761
   7.4924906   4.0732615  32.8534985   8.3151730   2.9327529  32.2936559
  80.5103397  64.5031452   4.7263420  80.9559822  64.4398785   3.8815743
  80.2799129  65.4287052   4.8068529  52.6531887  47.1217489  23.3013296
  52.4502707  47.0493507  24.2339683  53.1150913  47.9562473  23.2207918
   4.2723559  34.0203261  39.4794154   4.5922469  34.5555663  38.7531805
   4.4687938  33.1205678  39.2184997  36.8261918  11.6701262  36.8562603
  36.0046204  11.2120860  36.6789246  37.4914845  10.9820407  36.8441319
  72.3782969  33.7895656  11.0411942  71.9030809  34.4582200  11.5344536
  73.0562544  33.4839439  11.6438556  75.0747156  55.1853228  39.9197364
  75.4939985  55.9217167  40.3648806  75.6299877  55.0181913  39.1581774
  14.3924578  37.6901954  46.6831732  14.6238287  37.1650069  47.4492502
  15.1631888  38.2352965  46.5248299  22.7879332  72.6826477  63.7537193
  23.4987449  72.1827507  64.1550684  23.2280444  73.3962154  63.2918167
   5.4855146   1.5209458  60.3299234   5.2869214   2.3858807  59.9712024
   6.4039506   1.3732121  60.1043603  20.8011149  53.0962801  22.1675372
  20.5857753  52.6120663  22.9646587  19.9684714  53.1731129  21.7016673
  25.9960818  56.6038895  65.9210873  26.6392040  57.1141434  65.4288864
  25.1551914  57.0080805  65.7071638   1.9659137  76.0303831  45.9665108
   1.4713763  76.0788059  46.7846298   2.5755309  75.3041792  46.0977650
  62.3493576  67.7904654  30.3862524  63.2937527  67.8918600  30.5048728
  61.9650793  68.4892035  30.9157085  27.2809037  10.1595633  30.4624701
  28.1312951  10.0662940  30.8918643  26.6848954   9.6322291  30.9943724
  77.8596696   2.7038710  54.7242260  78.7399635   2.3360293  54.8017216
  77.5934229   2.5010436  53.8274479   0.7234954  69.2780638   7.9796374
  -0.1663018  68.9890432   8.1820178   0.9160899  69.9419737   8.6417270
  74.8019314  56.7448711  22.1407652  74.6266842  57.6777411  22.0172024
  75.7394791  56.7001009  22.3284793  24.3911265  58.1225681  46.4938498
  23.9411639  57.2814274  46.4147711  25.0103663  58.1324816  45.7640028
  40.4149931  23.9979000  27.1727219  40.1831596  24.1825457  26.2625637
  39.6000641  23.6906548  27.5698605  55.2541304  74.9321699  56.6414881
  54.8567629  75.7705688  56.4060736  56.1867476  75.0500870  56.4610767
  10.3138312  38.1455081  50.3665257  10.7734831  38.1910556  49.5281458
  10.2049979  37.2085707  50.5294085   0.1207255  78.7184954  14.8547006
   0.9365748  78.2467556  15.0222802  -0.0315286  78.6077738  13.9161956
   1.5192698  75.6996632  38.7762475   1.8054866  74.8242188  38.5156512
   0.6387614  75.5689192  39.1281390  16.8740367  52.3894310  41.4412546
  16.2087726  52.0199871  42.0219231  16.7411994  51.9385815  40.6073952
  44.6039286  13.4503100  66.1761889  44.1551295  14.2063448  65.7977477
  44.1799298  13.3199523  67.0244009  22.6774216  64.1410637  36.4703250
  22.5568938  65.0759029  36.3036489  23.4281611  64.0982103  37.0625949
  11.6471376  33.2363389  58.1250784  11.6311635  32.3512051  58.4891042
  12.2850217  33.7051461  58.6631868  70.9659243  46.9970179  55.7521200
  70.1630163  47.5032330  55.6283569  71.6255188  47.6485205  55.9902525
   0.4109954  63.3924913  22.5820756   0.2966212  63.8799334  21.7662621
   1.1007308  62.7580070  22.3872995  77.3304892  78.9157200  42.1355438
  78.1878185  78.5771847  41.8774462  76.7179680  78.5090017  41.5226603
  68.3205366  68.7003422  28.2647228  67.6437044  68.9362049  27.6302958
  68.4488440  67.7600622  28.1396341  21.4788159  26.6913359  50.0320959
  22.0266493  25.9338610  50.2378845  21.4589842  26.7197745  49.0755224
  81.6584110  51.3113070  22.2983384  80.9103584  51.8208885  21.9869375
  81.9073200  50.7692957  21.5496731   4.8354148  40.4909182  58.4734821
   5.2761172  39.6421385  58.4337425   3.9088534  40.2857876  58.3484077
  80.1662558   4.8920985   2.4643889  80.5994623   4.9244900   3.3173313
  79.8264807   5.7774992   2.3345509  81.6983891  41.5074205  37.3946404
  80.8030033  41.7984247  37.2219419  82.0795441  41.3770580  36.5263319
  24.1781147  47.2151416  50.0182104  23.8489350  46.7682402  50.7980537
  23.3945855  47.4045508  49.5020294  73.8980778   4.3336337  34.2285085
  73.5612019   4.0463679  33.3798504  73.5432347   5.2154773  34.3410134
  30.5245971  29.5120502  30.9931660  29.6235560  29.3004560  30.7490683
  30.7464885  30.2717423  30.4547763  12.9221829   2.9723113  51.8126011
  12.3100098   3.4762328  51.2763691  13.5589941   2.6258605  51.1875629
  53.1062508  60.9967899  31.9871473  53.5900927  61.5985107  32.5528860
  53.3304071  60.1262760  32.3160744  65.8333111  71.9652033   9.8095286
  65.2777386  72.7437639   9.8470598  66.5791798  72.1758986  10.3712368
  20.4070281  67.6533365  14.7494173  20.7525920  68.4568644  15.1382208
  20.8460235  66.9486952  15.2258539  75.8005857  60.4549122   0.4884813
  75.3954172  60.9540367   1.1976668  76.7074728  60.3327465   0.7693097
   0.9298896  70.4857016  10.2950454   1.4486979  70.7210207  11.0642660
   0.0845240  70.2119350  10.6509125   9.7771414  13.6807769  30.4879355
  10.0546034  13.9703410  29.6187973  10.4854496  13.1111663  30.7880664
  70.3322268  45.2814436  47.4350929  69.9551678  44.4263840  47.2278929
  71.0644722  45.0850630  48.0194616  37.8183278  25.1613467  20.0045276
  37.3249539  25.5856555  20.7065034  37.9512509  24.2650550  20.3131247
  28.5269173  72.0213988  14.5522442  27.6638897  72.3854449  14.7494259
  29.0611180  72.7819922  14.3234101  14.0522097  40.2678490  53.1301117
  13.3684062  39.7674775  52.6848316  14.0787982  41.1038637  52.6646948
  71.1187315  69.3964863  51.5921497  71.6192055  68.7137461  51.1453581
  71.7534304  70.0959921  51.7473316  54.4873064  72.6359196  10.6229534
  55.3414457  72.2364350  10.4583874  54.1068380  72.1073551  11.3244477
  61.0777617  68.9642811  27.2647238  61.8215179  69.5604181  27.3523593
  61.4000893  68.1281090  27.6010990  57.9366732  49.9426270  41.9653845
  58.6918354  49.4016123  41.7345953  58.0020428  50.7036972  41.3885593
  30.8721741  17.1662181  23.8089347  31.0954960  16.8480056  24.6836329
  30.4975708  16.4050906  23.3655691  69.4807625  19.9979842  27.1363473
  70.1570034  19.3392766  26.9781137  69.5452261  20.5918670  26.3884282
  31.9316166  66.3136025   3.5394087  31.5649098  65.4884835   3.2216873
  31.9065826  66.8951721   2.7795496  33.4556699  74.6498919  48.9591932
  32.7727008  74.1622162  48.4987974  33.0419016  75.4816246  49.1899490
  36.1700638  13.3294623  47.2238827  36.8230828  13.6931556  46.6259432
  35.5098446  14.0177768  47.3049259   0.3873070   6.6232627  48.4881020
   1.1463078   6.7501204  47.9188395   0.3980978   5.6892150  48.6970854
   8.5506820  60.9424973  27.4854994   8.5785865  60.0167751  27.7273607
   8.8280486  61.4051151  28.2762504  56.0232687  57.1212721  34.1090202
  56.9188976  56.8240452  33.9485955  55.5684614  56.3453436  34.4366050
  40.0709295  75.8194017  54.2000961  40.2540636  76.7140055  53.9130831
  39.5277905  75.9249115  54.9811840  18.5405358  14.6697753  43.9889002
  19.3226918  15.0799983  44.3579388  18.8439425  13.8201468  43.6690521
  78.3612165   2.9713576  40.5093575  77.4334488   3.1668608  40.6407070
  78.8094244   3.7941687  40.7050943   3.3374213  61.3908815  44.0759611
   4.2767428  61.2850714  43.9252949   3.2636069  62.2135735  44.5596600
  70.5720568  47.3814058  42.5544500  70.6029415  47.4589491  43.5080004
  71.4787245  47.5070429  42.2744417  77.2893429  67.7965164  54.4555807
  76.6218901  67.8076792  55.1415968  77.6081133  68.6982441  54.4168568
  49.8124442  79.5207932   3.3518973  49.9063954  80.3615501   3.7997141
  49.7197494  78.8819983   4.0587082  52.0621681  80.3531551  57.9607964
  51.5434074  80.8080769  58.6242437  51.7710352  79.4427299  58.0118752
  84.7481355  10.1362651  21.3797927  84.3317470   9.4387286  21.8860435
  84.8988208  10.8361285  22.0151806   4.0868949  48.2155371  32.7088618
   4.5491980  48.6484528  33.4265614   3.2275771  48.0013943  33.0721164
  81.8651772  65.7577419  51.3693285  82.0784092  65.5492496  50.4597712
  80.9164810  65.6433725  51.4251900  71.5466213  68.0073643  31.1336374
  72.0309496  68.7230968  30.7220721  70.6592560  68.3496332  31.2416577
   8.6042212  55.3741980  18.8954163   9.4414424  54.9486780  18.7104297
   8.7566279  55.8606291  19.7055936  79.5354605  51.7977715  52.8607035
  80.2737904  52.1516657  53.3565426  78.9829397  51.3784504  53.5203409
  81.4271164  54.4195604  28.9860392  80.6582355  54.9436188  29.2105865
  81.5314102  53.8189077  29.7239900  14.8363685  39.0609717  65.9838057
  14.4015120  39.7049069  66.5428114  14.7108363  38.2270598  66.4366436
  57.4007511  49.6092272  33.7956262  57.5969028  48.7595224  34.1902900
  56.5686655  49.4760752  33.3416057   0.5782698  44.0501118  27.9209661
   0.4180621  43.3302402  28.5311651   0.9131430  43.6248684  27.1315002
  45.0625389  18.7184353   1.5153923  45.6432121  17.9859133   1.3093271
  45.0957029  18.7893315   2.4693909  64.2058420  67.3680449  47.0085096
  64.2272282  66.7342329  47.7254915  65.1255369  67.5794363  46.8481874
  70.2148390  76.6292381  46.4991093  70.7186890  77.4302959  46.3553238
  70.5632019  76.2704277  47.3152733  36.9511994  16.1844962  22.7752686
  36.2919053  16.3351195  23.4526801  37.0711525  15.2349036  22.7647209
  51.5077734  75.1941061  25.5066156  51.0953188  75.5405760  24.7153687
  52.4455976  75.2134466  25.3159690  18.3142241  15.1721232  54.3169498
  17.6083191  15.4635184  53.7398720  17.8719672  14.6710818  55.0022173
  41.5914076  15.1643725   0.8396330  41.0632294  15.9567662   0.7427922
  42.4923008  15.4826184   0.8974829  20.8081110  19.3095439  55.6549072
  21.3901909  20.0466483  55.4702759  20.8860930  19.1734641  56.5991688
   9.9391936  36.8948674  63.6806536   9.7353267  36.9475484  64.6144104
  10.0824450  37.8032827  63.4151506  81.5379715  39.7412848  39.6188760
  80.7507801  40.2735567  39.7339463  81.8661594  39.9831557  38.7528372
   2.0476340  29.0109372  36.9523191   2.0555495  28.1107974  36.6268682
   2.5692271  28.9802456  37.7543354  60.9618950  64.9736595  52.2039032
  60.9140444  64.8653793  51.2540483  61.4322281  65.7981110  52.3275900
  17.3329266  11.2739032  46.8913221  16.4595278  11.5580218  47.1609259
  17.4421080  10.4151004  47.2996902  30.8609169   0.7230587   7.3048582
  30.1821535   0.6514473   6.6337528  31.4205044  -0.0402717   7.1619549
   5.6899070  29.2690802  32.9841232   4.9155997  29.0548420  33.5044885
   6.3786887  28.7054276  33.3364058  19.7259520  64.1754007  38.0021477
  18.8757514  64.5408249  37.7574968  20.1536178  64.8743153  38.4969640
  50.1765831   5.8131163  50.7709360  50.0721558   4.8630088  50.7198286
  50.5882939   5.9633868  51.6219044  75.1377916  60.9579802  10.7288551
  74.6467400  61.5045357  10.1153636  75.8074522  60.5359936  10.1905990
  14.4008072   2.4525397  10.7945621  14.7984274   2.3036330   9.9366832
  14.2614563   3.3987658  10.8329701  35.1558789  45.8903735  59.0118408
  35.2935894  44.9935668  58.7068748  35.8514317  46.0346453  59.6534157
  79.0517426  67.9232931  56.6333246  78.7974501  67.3312902  55.9254408
  78.2360268  68.1010485  57.1015644  71.9771004  50.7778883  42.8960180
  72.4968243  49.9778938  42.8177404  72.2418451  51.3098860  42.1456003
  79.2353019  15.7278769  45.4884768  80.0091037  15.1850837  45.6395912
  78.9628181  16.0053103  46.3631296  75.5551052  74.5408201  66.8431664
  75.6988001  74.0760231  67.6675129  76.4352655  74.7392750  66.5235329
  55.8720511  11.9657154  12.8445473  56.5141600  11.3105078  12.5713482
  55.9476011  12.6618023  12.1918717   0.6094741  45.3502131  38.3792901
   0.2149199  44.6723986  37.8305411   0.5801677  46.1412287  37.8410864
  14.5769404  75.8737946  41.1873627  13.8305472  76.3601828  41.5374517
  14.5942115  75.0629807  41.6958094  82.0233440  79.5927858  61.2957191
  81.4319801  79.9157381  60.6158495  81.5395546  79.7162390  62.1123838
  60.3772926  59.0305948  31.0130072  60.9779167  58.2867146  31.0590887
  59.5590305  58.6577797  30.6848526  67.9915810  77.4870443  16.2554514
  67.5442553  78.0395126  16.8964779  67.3332691  76.8436670  15.9929109
  24.6963661  34.4481583  11.5099468  24.2882269  35.3125687  11.4604416
  25.6102388  34.6271105  11.7313900  76.3794994  63.1928539  19.7850513
  76.9595146  62.4598312  19.9911940  75.5005169  62.8621483  19.9701273
  25.7709988  52.2497695  37.9039001  25.1187714  52.7133506  38.4291792
  26.4762410  52.0499461  38.5194755  61.4854527  56.6896439  31.3641548
  61.1371231  56.3825798  32.2011781  62.0347977  55.9694529  31.0546660
  83.0772495  70.4567242  54.3065739  83.8829136  70.6588936  54.7822475
  82.5878716  69.8838472  54.8969603  71.0760784  75.8418941  19.7853160
  70.8342266  76.2010193  20.6389952  70.7142258  76.4628029  19.1530418
  12.3806476  20.4350781  55.6979609  13.0087184  19.7414827  55.4962349
  12.7603816  20.8910203  56.4490604   0.4290675  48.5597467  23.0210638
   0.1344298  47.6689625  22.8315401  -0.1038171  49.1145658  22.4514651
  41.3347912   4.2001089  11.1597896  40.9736252   4.1594902  12.0453072
  40.8545113   4.9124140  10.7376742  83.1757204  27.2901256  28.9353800
  83.4121219  26.3934619  29.1727471  83.6526171  27.4562843  28.1222415
  18.0324021  67.3696620   4.9113184  17.4828186  66.9411988   5.5675256
  17.6417961  67.1221788   4.0732178  77.6249544   2.8284285  60.7231293
  77.1673552   3.5403416  60.2758977  76.9255165   2.2697184  61.0620371
  13.0614224  56.9608528  26.0024190  13.2588330  57.4196322  25.1858521
  13.4221211  56.0830981  25.8772254  13.8880673  56.6706950  15.8220840
  14.2320576  55.9779412  16.3859904  14.6627274  57.1580012  15.5416143
  22.2646561  60.7150216  25.3162313  22.4685946  60.5016143  24.4056821
  22.3679438  61.6651995  25.3684497  25.7860184  10.4695463  64.9658632
  25.4517126  11.3508844  65.1323414  26.1999321  10.5290651  64.1048384
  33.1849766  19.9077511  34.1763020  33.4171677  20.1146054  35.0815821
  33.9412045  19.4277203  33.8387775  27.8500175   4.9431884  24.2718697
  28.3343863   5.5396610  23.7010479  27.2975826   4.4372118  23.6760211
  70.0983278  63.9330322  39.0390086  70.1214472  64.1185195  39.9777818
  70.8880250  63.4168226  38.8773417  83.4871689  61.8766374  10.5296195
  83.6406509  61.0754914  10.0287783  82.5426666  62.0197291  10.4690409
  80.9002534  53.4953482  54.6857834  81.2362138  54.3830878  54.5621777
  81.6729824  52.9348499  54.6153355   1.6776314  71.3439889  25.5916834
   2.3476425  70.7991529  26.0045671   1.7389408  72.1843482  26.0458517
  29.8091736  54.7980578  35.3357315  29.4385758  54.1249187  35.9064960
  30.1102581  54.3185003  34.5639777  38.8987374   1.6186425  48.0314302
  38.4303880   1.1327332  48.7102318  39.7888708   1.2675489  48.0565214
  30.2854633   8.3165216  30.6871557  30.9790587   8.1271863  30.0552440
  30.4820752   9.1990566  31.0013342  -0.1686701  72.3184920  49.8356199
   0.0552931  72.9426886  49.1453695   0.6074729  71.7644609  49.9185848
  17.0666504  34.3155169   9.9532157  17.5074553  35.0246429  10.4212582
  17.6806545  33.5824299   9.9958056  37.9294777  38.2372928  33.8348651
  37.3908091  38.1444502  33.0490875  37.4765015  38.8977480  34.3591189
  63.8908482  25.5853963  46.6272640  63.2882214  24.9998856  47.0857906
  63.6488628  26.4613795  46.9278097  18.1156778   1.2901175  11.3532066
  18.3458495   1.5524435  10.4618943  17.6937473   2.0628226  11.7288840
  58.3407402   1.6907829  32.4641275  57.5190020   1.5503544  31.9937515
  58.1698799   1.3641918  33.3475184  68.0389134  60.5036099  31.4364600
  68.3447925  59.9130566  30.7480454  68.2406358  61.3796289  31.1076260
  69.0587408  16.7776708  42.7055225  69.6077949  17.1801214  42.0326147
  68.9083702  17.4768762  43.3417067   5.5543914  59.3445522  37.4184203
   5.7241264  60.0587494  38.0327058   5.0895467  59.7591574  36.6916084
  80.7894460  47.6779206  21.4440203  79.9695484  48.1537492  21.3114214
  81.4667455  48.2741577  21.1246514  60.6317377   8.3058000  50.1536703
  60.4763985   8.7256312  50.9997416  59.8212147   7.8310984  49.9694347
  28.2997084   1.9862676  13.6884749  28.7114930   1.1277694  13.7866950
  28.7958527   2.4112533  12.9888618  78.9205185  58.9633782  16.4174473
  78.7740008  58.3784516  15.6740582  79.5468656  59.6105153  16.0932064
  26.1011219  35.6927896  49.2735863  26.0488820  36.4932299  48.7512827
  27.0144534  35.4165316  49.1978121  39.1574335  17.0339799  67.5427866
  38.3654952  17.1138453  68.0744743  38.9807677  17.5679326  66.7682457
  19.3034544  57.7696855  61.3377094  18.8616314  57.2166545  60.6933594
  18.6085740  58.3219917  61.6959429   2.3046627  56.9861252  42.7197170
   2.2869101  56.1257369  43.1388187   2.8857842  57.5094588  43.2716703
  51.2061930  22.4261451  13.6435950  51.2108660  21.4695144  13.6763096
  50.9799767  22.6951408  14.5339310  62.7764940  13.5744298  52.5234175
  62.6531506  14.5067203  52.7018881  63.2070637  13.2352591  53.3081484
   8.1807580  52.6981861  24.4397163   7.8685060  53.5315902  24.0873432
   8.7435642  52.9443462  25.1738048  45.1091480   4.7973311  55.2044535
  44.9754477   3.8502806  55.1663399  44.5550394   5.1457417  54.5060205
  62.8412110  30.5263929  63.9392433  62.4089391  31.0315912  63.2506606
  63.4851820  31.1295180  64.3104235  31.0404530  58.2523091  33.2630658
  31.1590233  57.9003699  34.1452861  30.1305285  58.0505283  33.0449939
  24.3394556  76.5077339   9.6130365  24.9558583  75.9106545  10.0370371
  24.7812453  76.7755709   8.8072342  52.3644170  56.8534090  21.7662850
  52.1088156  57.0665874  22.6637593  51.6909203  57.2614481  21.2220993
  67.6889831  67.9698782  67.6780257  67.6022632  67.4105935  68.4499798
  66.9761974  68.6034755  67.7600107  73.1697065  32.5416558  66.3691458
  72.8027422  33.4219031  66.4511985  73.2592756  32.2344522  67.2712744
  24.1152373  79.1356795  10.6976962  24.4891634  79.5110308   9.9005008
  24.4039622  78.2230873  10.6910241  44.1755429  57.0401127  17.0837116
  44.8490086  56.3615615  17.1310604  44.1042319  57.3697145  17.9795396
  19.5097103  57.0942886  33.8939357  18.9575186  57.2707231  33.1322360
  18.9177456  56.6954000  34.5316648  39.7101641  29.1846752  39.3608475
  39.1608763  28.7313271  38.7213254  40.2711630  29.7538447  38.8340139
  58.2007933  19.7760379  10.0505078  58.3600712  19.7473776   9.1070873
  57.4080038  19.2544186  10.1755190  69.3546516  68.1760030  65.5170668
  69.0150577  67.9530744  66.3837907  69.5064432  69.1203336  65.5549154
  27.1680060  60.9069438  54.2167330  26.6758004  60.6437118  53.4391260
  26.8574181  61.7917854  54.4086218  13.7703362  69.0468676  56.1952782
  14.2513028  69.1656954  57.0142937  13.4877291  69.9288184  55.9533548
  36.3979793   6.6363710  61.6869593  37.0350909   6.1927480  62.2468853
  36.6182923   7.5648099  61.7624187  30.7349420  23.3253741   5.9216344
  30.7765102  22.4405098   5.5589765  30.8521271  23.2038164   6.8638247
  61.6528225  26.4884067  22.5314760  61.2002325  25.7184434  22.8757906
  60.9597301  27.1358728  22.4024630  72.9196978   5.4088622   4.5171610
  73.6626291   5.8976078   4.8712945  73.3009720   4.8521236   3.8382632
  13.2424822  68.0929966  35.6793809  12.3320332  67.8195805  35.7914305
  13.2199183  69.0452773  35.7736444  21.3088846   8.0218458  11.5276551
  21.2180400   8.8856137  11.9300056  21.7143059   7.4827230  12.2067809
  59.4409392  77.4765233  45.2727556  58.5137580  77.4956031  45.0356865
  59.4840098  77.9407752  46.1087275  36.3169360  27.4927521  14.2061782
  35.9055400  26.7958069  13.6950505  37.0667624  27.0711803  14.6260250
  58.6816072  18.4944713  20.3624439  58.1503582  18.8440335  21.0778546
  58.7058592  17.5508189  20.5210733  41.0627842  18.1687629  35.9495854
  40.4615164  17.9145956  36.6496611  41.1378574  19.1194713  36.0317469
  61.3091469   6.2783986  36.8424273  60.5054665   6.3645661  36.3296771
  61.0524416   6.5196431  37.7324462  56.3372421   9.4581795  36.9354010
  56.2283325   9.8924911  37.7814174  56.1339712  10.1356471  36.2904596
  14.6397817  19.1807580  43.9117575  15.1625431  19.9825549  43.9204025
  15.2701461  18.4819508  44.0865135  41.6737023  77.0093430   8.2037979
  41.7400208  77.0943505   7.2526896  41.9303074  76.1045347   8.3818668
  17.3316279  62.5089426  15.2834272  18.0207816  61.9470758  15.6378329
  17.6482478  63.3997662  15.4331517  49.2022161  55.3628928   5.2449936
  49.3046025  55.5354745   4.3090641  49.3371818  56.2140138   5.6616580
  14.1594639  76.7869044  57.5497866  14.4023695  76.1278362  56.8995094
  14.2247668  76.3309360  58.3888721  24.9372506  13.9986682  53.5111237
  24.1514134  14.2926919  53.9718199  25.2474689  13.2499659  54.0204763
  54.7435141  26.6269517  17.6856768  54.4455290  27.2949076  17.0682061
  55.6476164  26.4480710  17.4271512  14.4240844  34.9374247  10.3316879
  13.9770877  34.2332339  10.8013093  15.3136861  34.6099043  10.1991367
  34.2018118  63.9858551  15.9304869  34.3452158  63.0617077  16.1344945
  35.0813094  64.3614442  15.8898759  34.3823791  14.3425202  26.4553595
  34.4035363  14.7276759  25.5793238  35.2960777  14.3459022  26.7406154
  15.3748112  42.8115605  56.3450417  16.2714988  42.6284574  56.0645768
  15.4722005  43.4250082  57.0733473   3.4599685  14.0133154  27.5099635
   3.8831710  13.2666683  27.9338145   2.9161929  14.4013250  28.1955194
  26.9440546  57.4786932   5.1933712  26.8692723  56.7224819   4.6113175
  27.5387850  58.0741007   4.7372818  20.9183598  28.3805871  12.2909451
  20.8965182  27.5205970  12.7106738  21.7658615  28.7480760  12.5417900
  13.0166426  51.2687571  46.4950991  13.5697546  51.1491830  47.2671127
  13.0160609  52.2141106  46.3449764  25.2295709   4.6835715   9.8746163
  25.2738047   5.6379789   9.9327713  24.8315692   4.5138305   9.0207934
  71.4888334  48.7590885  17.7118146  72.0927095  49.4994450  17.7703965
  71.3560247  48.4859276  18.6195469  51.9845867  23.4293866  36.3027334
  52.1374893  22.6971245  35.7055354  51.1161613  23.2623911  36.6690469
   1.7392221  58.2051427  48.7028217   1.4530626  58.3836920  47.8070211
   2.0076337  59.0586002  49.0431166  28.7473812  64.1808147  28.8325095
  28.8855544  63.7363679  27.9960847  29.0722647  63.5637302  29.4881701
  33.8261118  71.0548509  46.5903759  33.7903347  71.3209815  45.6716156
  33.3701411  70.2135617  46.6139746  82.4261872  48.3927114  38.1422544
  81.8979923  47.5983364  38.2210565  83.3276621  48.0761559  38.0842495
  51.0425806   0.5912991  30.0482607  50.8264446   1.4775974  29.7584438
  51.1298609   0.0890021  29.2381287   4.1108218  73.2048763  26.4936471
   4.4755688  72.5374491  25.9124994   3.6387220  73.7986643  25.9098911
  17.6928463  67.2153516  55.5506754  17.7060976  66.6592545  54.7716951
  17.4946442  68.0903346  55.2169800  28.6179495  11.8560088  46.8416405
  28.0495763  11.7037535  46.0866594  29.3789148  11.2968230  46.6851950
  41.3177872   9.8393798  37.4078441  40.8718634  10.3122175  38.1105590
  41.6975021  10.5265045  36.8602061  26.3807478  67.0223756  20.1041245
  26.1424866  67.5810249  20.8439708  27.3088541  66.8303234  20.2381492
  75.0146341  46.1064625  26.9832087  75.6252432  45.5603075  26.4881277
  75.5672646  46.7705679  27.3952627  16.9040289  69.7259648  30.2025342
  17.1598807  70.4589004  29.6425557  17.2369614  68.9510758  29.7498369
   2.5134372  21.7405081  29.3894053   3.2514476  21.8883777  28.7980533
   2.7947043  21.0148501  29.9466681  35.7513085  61.9232995  60.2034092
  35.3893128  61.4720041  59.4408321  36.5077105  62.4006517  59.8624849
  52.0006514  32.6227832   3.2452595  51.1267138  33.0011940   3.1489378
  52.3935318  33.1088305   3.9702654  56.7729759  26.6593337  15.5442524
  56.8851423  25.7089520  15.5236626  57.0608997  26.9532681  14.6799982
  16.8552237  75.6497292  59.6673736  16.1430770  75.0209717  59.7846017
  17.6149302  75.2289419  60.0698898  65.8933687   6.8792397  27.6319861
  65.6986904   6.7370951  28.5583377  66.0363865   6.0007679  27.2797561
  20.1648092  10.2386832  12.8601933  19.8879230  10.5793095  13.7108052
  19.3614435  10.2102458  12.3405504  25.4700270  60.5988283  15.5059409
  24.6774903  60.9555108  15.9070587  25.3951683  60.8307142  14.5802760
  40.8836174  11.1096203  17.8007174  41.6420698  11.1150229  17.2168016
  41.1405373  10.5348539  18.5217369   4.9347725  51.9548685  59.9207783
   4.3756953  51.7596085  59.1687584   5.5474606  52.6159174  59.5985079
  53.3584261  20.9164858  35.4243374  52.5181818  20.5262899  35.6651139
  53.4605598  20.7107115  34.4951129  23.3896723  69.6962733  54.9231148
  24.0111485  70.3666157  54.6391487  22.7927866  70.1573224  55.5125141
  18.6583081  71.5905900  29.1787243  18.7962857  72.0758666  29.9921727
  19.5167532  71.2212510  28.9716125  29.6581578  10.4094434  36.9204855
  29.0791464  11.1067140  36.6126037  30.2424908  10.8410847  37.5437593
  33.5913124  65.3689677  13.5631275  33.7615958  64.9778647  14.4200242
  34.4195691  65.7824487  13.3197045  45.2615833  12.0616329  13.8968909
  45.6131029  12.4016809  14.7197092  45.3047037  11.1102486  13.9930212
  55.9870481  20.6629610  43.1299162  55.5238104  21.4210176  42.7735567
  55.7148409  19.9328423  42.5739861  15.6784972  69.1106918   4.2968121
  16.0331114  68.5114243   3.6400309  14.9417981  68.6357620   4.6814575
  33.4377289  47.1387100  41.6912365  34.3706155  47.1618080  41.4781141
  33.3387303  47.7718639  42.4022532  30.8013201   0.2875843  62.1161699
  30.4111481   1.1126764  61.8276882  31.7448378   0.4284369  62.0376301
  25.8190823   5.0916278  36.8172526  25.6717682   5.8381158  36.2364888
  26.5797234   5.3424215  37.3414278  43.1419945  30.2683234  27.0347857
  43.0386066  30.9675336  27.6802707  44.0140676  30.4095578  26.6663027
  32.8006911   6.1910057   2.3523188  33.7389970   6.0105926   2.4094395
  32.5452447   5.8605289   1.4910614  43.0128098  12.4923933  41.5767336
  43.4249926  12.5674498  40.7160902  43.6776733  12.8074992  42.1890163
  30.0999832   9.5371050  14.6357036  30.4849219   8.8102818  14.1460276
  29.6290350  10.0471163  13.9766681  36.4210215  65.4592020  30.5525041
  37.3059121  65.7086022  30.8189702  36.2257424  66.0282595  29.8080087
  31.9084144  24.4555092  38.3046556  32.1574354  25.3210640  37.9805636
  31.3375163  24.6346402  39.0517974  71.6772699   3.1889883  26.3929963
  71.6272211   4.0501234  26.8079329  71.1233568   3.2649326  25.6160522
  82.5565783  68.5952193  48.0412626  81.8659679  68.2716615  47.4628162
  82.0884244  68.9632172  48.7906885  22.3750868  76.7203630  11.9863009
  23.0747404  76.7213795  11.3330650  22.5196734  77.5192470  12.4933636
  75.1495830  55.4735620  12.9770267  75.3988139  55.6107933  12.0630872
  75.2149133  56.3412053  13.3759713  48.8428879   2.6558393  31.5225625
  48.2682180   3.3180547  31.1385560  49.6084356   2.6408860  30.9481525
  83.6172668  64.2203660  34.9601650  82.6750986  64.2508168  34.7939682
  83.9176313  63.4402210  34.4939160  27.8702345  60.8678062  40.1347446
  27.9502049  60.8875794  41.0883904  27.0259800  61.2821920  39.9565458
  32.0061278  17.5512075  34.1530943  32.1942759  18.4816885  34.0304661
  32.3643589  17.3461998  35.0167346  23.1621828  62.0787270  30.6626749
  23.1290474  61.1796064  30.9893489  22.6250782  62.5772459  31.2784886
  44.6552086   4.4731152  31.5691876  44.5550013   3.6668244  31.0631371
  45.5985546   4.6351945  31.5771818  70.8775312  59.8064832  41.4582715
  70.1655800  60.2628259  41.0098181  70.7954485  60.0752418  42.3732910
   5.6151882  73.2436539  54.8243666   4.7589484  72.8438635  54.6718788
   6.2329808  72.6638574  54.3789482  24.3985644  59.8818071  69.0014458
  24.4578781  60.6240017  68.3998966  24.7789040  60.2046282  69.8183632
  24.0557518   6.2619898  60.2787939  24.8464051   5.9217522  60.6975225
  23.7034645   6.8914864  60.9079704  38.2023564  56.2313707  35.5392075
  37.9525938  55.4400761  36.0163879  37.9829827  56.0404069  34.6272635
  53.4051218  52.2371847  32.8845835  53.3750525  51.5848596  33.5844398
  54.2886534  52.6019699  32.9349685  73.4744596  14.4784677  29.8898506
  74.0288353  13.7095487  29.7569442  72.5852776  14.1636837  29.7270703
  47.8902474  54.2460591  37.5194883  48.3435860  53.4055454  37.4542952
  47.9763451  54.4938571  38.4400415  69.7767067  23.2396340  37.9238129
  69.4286203  23.4854317  38.7809300  69.4470072  23.9134169  37.3292160
   3.6157416  29.2697716  19.2350054   3.1893157  28.4132957  19.2059672
   3.7925338  29.4805098  18.3181822  76.8258667  16.6209936   3.2725382
  77.3709583  17.3105741   2.8936073  76.8337345  15.9226239   2.6179764
  17.7781694   1.8550749   4.3018189  18.6426085   2.1200772   4.6160593
  17.5321835   1.1225195   4.8666945  20.3388405  30.5388093  24.3583870
  19.8974764  29.9904609  25.0070357  20.8793163  31.1350107  24.8767138
  58.2689667  27.6405597  13.5045123  59.0864182  27.9870129  13.8622522
  58.5464191  27.0210242  12.8296566  72.3852444  15.5163634  17.3130977
  71.9220114  15.3863311  18.1405854  72.5958681  14.6315193  17.0149028
  16.9622505  16.4421403   9.7905731  16.8537986  17.2532380  10.2871525
  17.9088771  16.3029790   9.7629362  25.5050888  61.0907514  38.3955932
  26.0531559  60.4802305  37.9025245  24.6967402  61.1516959  37.8865838
  21.9970894  18.1017375  26.9532847  22.7925539  17.5698817  26.9288206
  21.8119359  18.2129788  27.8857946  43.5051918   5.8345103  35.3511310
  44.3726349   5.9707785  35.7321906  42.8965330   6.1117142  36.0359120
  14.9654761  75.9507782  19.4248700  14.3146792  75.3422160  19.0750897
  14.7166243  76.0665629  20.3418756  63.3684731  12.3319018  19.5725024
  64.0684366  12.9779458  19.6668744  63.4184980  11.8062115  20.3708625
  13.3573904  50.1082093  32.6354265  13.4231987  50.4318030  31.7369914
  12.8908434  49.2761166  32.5567341  75.5284739   9.7018892  19.5218110
  75.8445930   9.0872431  20.1840138  74.5794296   9.7197253  19.6452057
  53.8270903   3.0505911  34.7755456  52.9301453   2.9706979  34.4509888
  53.7385082   3.4997395  35.6161714  41.1640110  72.7337236  38.6096025
  41.5395012  72.3162038  37.8344131  41.7418661  73.4763200  38.7852907
   1.1769619  74.4812275  13.4465373   1.9365397  75.0611252  13.5012507
   1.5336385  73.6476410  13.1397021  45.2155581  57.6377566  52.4170828
  46.0280028  57.8015597  51.9381952  44.5949593  58.2732112  52.0603132
  59.2770529  31.8991709  24.9312973  58.3420515  31.8367505  24.7360969
  59.6338892  32.4371147  24.2245340  23.5906363  21.0088515  24.5023203
  24.0018845  20.1858854  24.2380595  24.1472769  21.3391495  25.2075052
  24.2946329  75.4805584  32.1726441  24.8712674  75.5193240  31.4096093
  24.2693987  74.5528091  32.4068999  21.9368196   6.1972243  41.7182732
  22.1441770   5.4965019  42.3365164  22.3900199   5.9479052  40.9128618
  76.4033965  53.6709268   9.2055112  75.7795815  53.4917028   8.5019732
  77.0489255  52.9673655   9.1382301  39.0916586  43.1571913  14.0474284
  39.2790556  43.2841301  13.1173730  38.8416028  42.2359180  14.1178095
  47.5224295  71.1324573  58.7371349  46.8241492  70.4778011  58.7449789
  47.1854201  71.8354715  58.1817722  35.1007929  60.9924836  23.7666082
  35.8231774  61.5127868  23.4149313  34.4179526  61.0480733  23.0981255
  15.2668369  33.6149693  32.9865623  15.0736094  32.7682996  32.5840116
  14.4922149  33.8121605  33.5131645  38.1887531  27.4040008  10.2800071
  37.8661323  27.2527337  11.1684132  37.8831291  26.6459084   9.7818857
  11.3669386  79.6289406  40.5547285  10.7142058  80.2694097  40.8375216
  11.2435141  79.5633014  39.6077919  30.5507517  14.0873468  56.5355778
  30.2501726  14.3686604  55.6714296  29.9346566  14.4913244  57.1466923
  52.7142698  28.5474519  64.9655891  53.5756356  28.9627664  64.9231965
  52.8961522  27.6106302  64.8913318  36.0616231  23.1557703  36.0064507
  36.9731879  22.8656292  35.9733105  36.1120486  24.1102529  35.9549403
  34.4680357  13.1117344  56.2259912  34.2959213  13.3265698  57.1427584
  35.2644825  12.5813210  56.2497425   6.3986378  54.6688442  65.7827986
   5.5388480  55.0849204  65.7205058   6.7873126  54.7913353  64.9166823
  30.2849817   1.8255955  38.8676286  29.3705773   1.5432110  38.8864398
  30.5132747   1.9595051  39.7875094   1.0374545  13.4471524  38.9188480
   0.5599498  12.6193404  38.8645768   1.7423343  13.2765472  39.5435619
  15.5113792  21.7750144  51.0576439  14.8954296  21.5504551  51.7550755
  15.3220284  21.1478496  50.3597546  25.5459833  14.8677349  43.5476065
  25.6877184  14.9532771  42.6048326  26.4168286  14.6965981  43.9061785
  35.2176929  15.4362035  41.6772127  34.8059058  14.9513853  40.9619427
  36.0461879  15.7456255  41.3110352  47.0909548   2.8323680  39.4238806
  47.5762653   2.9655105  38.6096454  47.1590614   1.8925771  39.5923662
  48.1791496  21.1848330  30.9835124  48.2296419  20.5240202  30.2928543
  48.3354521  22.0147204  30.5328584  21.7871118  15.5256724  42.8682470
  21.4303017  14.7885072  42.3727608  21.7083573  15.2591300  43.7842083
  75.2537043  41.7233875  64.4722596  75.3810675  41.1556493  63.7122044
  74.4771606  42.2402667  64.2576763  64.0375853  24.8393989  14.2987502
  64.9386024  24.8870826  13.9791751  63.9958763  25.4936910  14.9961686
  73.1283665  22.2804546  53.0333853  72.3330927  21.7856956  52.8359365
  73.5288429  22.4410915  52.1789598  51.9104481   1.8952684  32.4536324
  52.8663540   1.8529172  32.4796700  51.6585255   1.2292470  31.8139601
  52.1798801   1.2991998  14.5526314  51.7984629   1.1992341  13.6804152
  53.1172514   1.4091019  14.3929756  33.6982274  14.2221081  35.5506158
  33.7468624  15.1592445  35.3618240  33.0654430  14.1543484  36.2656164
  18.9685812  70.6179703  18.0664432  18.0449620  70.7311333  18.2908356
  19.1571656  69.7045381  18.2816386   0.1207652  74.3019170  36.0023546
   0.9783569  73.8776285  36.0297370  -0.4558954  73.7076772  36.4825368
  82.1401850  28.8231475  39.8688006  82.9357020  29.2323024  40.2093554
  82.1520487  29.0194661  38.9320254  49.8959684  26.2891793  23.1632733
  50.7949972  25.9715343  23.0791354  49.3875933  25.7268834  22.5787973
  26.5065718  29.2286801  49.1841745  26.7430305  29.5881414  48.3291245
  27.3390579  29.1522574  49.6503925  21.2551051  77.3050513  37.1733689
  20.6435281  78.0271639  37.3174667  21.1603671  77.0926108  36.2448645
  22.0421171   1.9464388  19.3048155  22.2886086   1.0921150  19.6592236
  21.0860181   1.9226533  19.2655623   7.5637943  15.8830094   0.8510855
   6.7666596  15.6661272   1.3345832   7.9144305  16.6522384   1.3000551
  36.7146492  11.6448545  56.4109516  37.5952029  12.0192266  56.4374590
  36.8576837  10.7005072  56.3478518  65.0969196  22.3252845  22.6930308
  65.1559783  21.9292068  23.5624361  65.9216763  22.7999449  22.5895500
  31.1804533   8.7793744  19.4368672  31.8974733   9.1959083  19.9150026
  31.6137052   8.2653177  18.7554932  40.2423611  53.4934528  63.1463766
  39.5222512  53.1092698  63.6464548  39.8387852  54.2110092  62.6580429
  74.3377642  67.8026051  47.7825975  75.1626126  68.2794256  47.6904058
  74.1663651  67.4495036  46.9095707  45.3601646   3.2040423  52.1776438
  46.2762785   3.1520438  52.4501562  45.0757360   2.2919929  52.1185064
  25.7773772  60.8190472  31.2808633  25.7530871  60.5306155  30.3684759
  25.6886044  60.0129397  31.7893338  30.5837655  25.5720687  22.2757363
  29.6773577  25.6259441  22.5786448  30.9167743  24.7609162  22.6596236
   0.1647487  77.2842736  36.6463876   1.0859409  77.1668757  36.8784475
  -0.1240477  76.4159537  36.3655853  51.8262768  45.2047348  18.2405746
  51.5608740  45.2287626  19.1599321  52.7650833  45.0198746  18.2670486
  45.0005007   3.5861951  44.6861410  45.2721071   4.2785501  45.2887201
  44.6035480   2.9211974  45.2486706  35.7380366  25.4601026  17.6679790
  36.2860060  25.6328678  18.4335589  36.0023856  26.1227131  17.0297801
  56.7157173   2.5053513  46.2304926  56.5026665   1.7646711  45.6628370
  57.0574427   2.1041766  47.0295668  68.6971075  22.3369293  68.5928858
  69.1039831  21.4910869  68.7805891  69.2252094  22.7047734  67.8843448
  33.3991089  60.1836855  28.1200004  32.6799956  60.4628784  27.5532889
  33.5251179  59.2585952  27.9089022  31.1806846  13.9548051  37.3363376
  31.2913847  13.0887866  37.7287531  31.6368604  14.5482087  37.9330015
  23.8225356  77.2912965  24.5947647  23.3652678  76.9182063  25.3483844
  23.1563511  77.3369596  23.9089441  33.1963634  32.8620577  31.2336707
  33.9607453  32.6620960  31.7740107  33.2592082  33.8028264  31.0686255
  38.2094979  23.1787825  28.7178206  37.7734613  22.5306273  28.1646490
  38.7583208  22.6607656  29.3066192  45.2610674  60.1243288  50.7079792
  45.5181017  60.4815204  49.8579311  46.0420599  60.2183611  51.2533522
  11.8188294  10.4546397   4.3728322  12.5307568  10.0402777   4.8603690
  11.8218144  11.3641398   4.6712205  42.6662159  32.2886586  28.8408089
  43.2294083  32.8973508  28.3627462  41.8072462  32.7110004  28.8461876
  62.8905573  75.9923975  37.1642637  62.8586665  76.2708686  36.2490201
  61.9905939  76.0892455  37.4755812  43.0127525   2.4025254  41.1173105
  42.8922987   3.3225238  41.3525248  43.7433720   2.1097291  41.6620111
  16.4954081   4.4092820  57.4715874  15.9916916   3.6037324  57.5881562
  17.2783604   4.1351912  56.9939992  85.2375317  37.2809196  29.8452997
  84.6511269  37.8131938  30.3829241  84.8123455  36.4243722  29.8031235
  21.4012089  79.5284204  54.8910427  21.6678229  79.8513572  54.0303087
  20.4448977  79.5099114  54.8542356  72.7641678  16.1311615  37.7859235
  72.0292997  15.5628002  38.0165100  73.4522867  15.5295289  37.5017428
  18.2069254   8.0775923  43.4195423  17.3659134   8.0111194  43.8717747
  18.5133994   8.9635772  43.6127663  73.0983591   8.7359166  20.8600855
  72.2008848   8.6217225  21.1727023  73.5104609   9.2988724  21.5154386
  35.7122374  12.4185705  33.9698005  36.3323069  12.8389394  33.3739519
  35.4478216  13.1150830  34.5707870  60.2599573  24.3462825   1.6895582
  59.7089195  24.0260267   0.9753990  60.8561516  23.6209631   1.8758208
  36.6690111  28.1491852  31.0836554  37.5688243  28.0499482  30.7726574
  36.3998437  27.2628474  31.3248730  25.8616686  20.9820294  41.3429213
  25.7600021  21.3486981  42.2212458  25.3781462  20.1563954  41.3706064
  27.6961637  10.9930182  16.3526022  27.8758693  11.9317293  16.3000596
  28.2706285  10.6778717  17.0503879  52.0704222   6.9952893  26.7104053
  51.6964531   7.7870381  26.3237357  51.7689610   7.0069784  27.6188183
  35.9775019  29.8745155  34.2061925  35.9652710  30.5347013  33.5132003
  36.6611409  29.2599249  33.9394593  31.6977253  73.1283070  33.0595040
  31.4173928  72.4776329  33.7031412  30.9339133  73.2524235  32.4961066
  82.3449230  47.0843697  23.9916468  81.8253899  46.5498638  24.5921707
  81.9015121  46.9963360  23.1479216  58.8905430   8.6880726  36.5978718
  57.9901695   8.8052565  36.9009042  58.9112616   7.7976596  36.2472057
  73.0532408  31.1627936  19.8645091  72.7544880  32.0324993  19.5988178
  72.2985458  30.5937529  19.7133124  75.1771402  10.5775332  34.8777366
  75.8351994   9.9228907  34.6439981  74.8971510  10.3314996  35.7593870
  31.2752581  27.4842834  59.6039486  31.7880201  27.2779751  60.3854513
  31.1024809  26.6340995  59.1995144  51.4469138  71.0928274  35.0649452
  52.2636023  71.4845485  34.7554207  51.7219820  70.4527671  35.7213688
  84.7747612  15.8489430   0.8285370  84.4300842  14.9562585   0.8518650
  84.0636921  16.3893175   1.1729293  29.5553770  73.2419581  35.2755761
  30.3558436  73.1302435  35.7884192  28.8473168  73.0688352  35.8959889
  37.8153396  39.3106079  29.2411757  38.0848742  40.2288246  29.2196774
  38.4178567  38.8700318  28.6419249  52.2697401  13.7665224  27.2792721
  52.2911835  13.2389462  26.4808750  52.1625519  13.1287658  27.9849696
  40.8161354  32.6004958  22.6026058  41.4395094  32.0629168  22.1140957
  39.9924278  32.5065804  22.1241522  61.4271355  52.9256105  21.8158340
  60.9960365  53.7128735  21.4832735  61.3660097  52.2970676  21.0965109
  64.3558884  20.6055021  41.9944811  63.7572670  19.8619747  41.9233799
  64.3577671  20.8231926  42.9265976  31.6145730  36.9115281  35.4967165
  31.7200112  35.9610248  35.4559755  32.0094681  37.1607184  36.3322949
  44.4194603  15.5465186  53.8672543  44.7066450  15.1803052  54.7037029
  45.1292706  16.1333227  53.6063719  74.4416475   2.2622040  49.6921825
  74.9711037   2.1892413  48.8980913  74.7182751   1.5226656  50.2332830
   6.1201953   5.1502371  56.6183329   6.3716029   5.6477684  55.8402014
   6.5190123   4.2893851  56.4913940  75.4183722  32.1133828  42.0560551
  75.3412390  32.6951098  41.2998295  74.5156956  31.9677019  42.3392200
  51.5484858  21.3468194  27.8096294  51.6287518  20.6577754  27.1500802
  51.5492725  20.8798432  28.6451912  51.3662148  27.5300980  14.5824754
  52.2583866  27.1880651  14.6397209  51.0210228  27.1637130  13.7683272
  48.3725643  25.7945395  34.5031643  47.7764416  26.1060190  35.1842308
  48.7799597  25.0145578  34.8798466   1.4137038  38.9174391  12.6183644
   2.1302803  38.7893846  11.9967976   0.7505616  39.3987206  12.1235504
  82.8998375  36.3551283  53.7166977  83.5217094  36.6371584  53.0459023
  82.0404148  36.5559959  53.3461857  14.2396441  75.0546796  48.0312920
  14.2113200  75.1584096  47.0801497  15.0259343  74.5330054  48.1920242
  66.9134092  10.4141784  44.9998522  66.6250324  10.3851199  45.9121132
  67.2927856  11.2868619  44.8962641  76.5112972  56.9473839  15.6206310
  77.1557188  56.7591238  16.3029110  75.9124851  56.2009907  15.6442404
  25.5468559   2.9044577  32.8079605  26.0800815   2.9364270  32.0136809
  25.0417185   2.0956478  32.7249312  58.9845943  22.3327374  32.1583605
  58.6493635  22.4814367  33.0425215  58.9485359  21.3829422  32.0451283
  51.0135126  14.5593393  17.4309707  50.8488274  15.4559505  17.7228618
  51.9625950  14.5159256  17.3143661  66.1498451  12.6577032  34.8584342
  66.2942743  11.7115104  34.8488522  66.3678837  12.9242396  35.7515454
  51.1837816  20.0099397  50.1771545  51.5312004  19.3018556  50.7195091
  51.1166143  20.7566118  50.7722998  78.4780216  21.2180781  26.1748385
  78.9840746  21.9131136  25.7540441  77.6652002  21.1750913  25.6711483
  19.3317794  42.4801731  -0.3289150  19.3208217  43.2054186   0.2956873
  18.7918853  41.8037510   0.0799824  18.2109355  10.8253038  44.2272520
  17.6746272  11.2081385  44.9215460  19.1089820  10.8986866  44.5502806
  64.0700960  30.1475692   8.6757004  64.9717188  30.4648304   8.6241835
  63.7370825  30.2261686   7.7817440   4.1375485   5.1393813  22.9636240
   4.9728245   5.3898215  22.5688767   3.7874407   5.9553254  23.3212423
  76.3911629  24.2054939  21.5258646  76.7984056  24.5964813  22.2988534
  76.9122171  24.5291734  20.7910395   6.8436127  57.1295206  40.0364432
   6.6223937  56.6199510  40.8159504   6.5575724  58.0193584  40.2428517
  73.2530212  12.6640880  43.2271242  72.6523352  12.3284459  43.8925219
  73.8854551  13.1886697  43.7181187  79.3279982   3.1106898  24.5312834
  79.9595213   3.8298765  24.5447135  79.8662615   2.3191810  24.5354342
  47.4750605  74.3933273  47.9585838  46.7828265  75.0505162  47.8868437
  48.1494561  74.8131312  48.4926128  79.4849157  15.6870115  11.6206324
  78.9382887  16.0466552  12.3192656  78.8692093  15.2361286  11.0428405
  16.7842045  34.4541509  26.9261074  17.5489607  34.0999705  26.4723039
  16.2720623  34.8780162  26.2374282  71.3260889  16.7117012  41.0230494
  71.2290812  17.1931875  40.2014685  72.1689653  16.2655210  40.9410906
  75.5405092  41.8824720  35.8501816  75.8915234  41.1506891  35.3427243
  74.6285677  41.6434288  36.0158825  49.7042170  76.5108339  36.5597939
  49.8640051  75.6622858  36.9729114  50.4223862  76.6121320  35.9351325
  33.8867116  14.8506880  53.7529993  33.7117600  14.0356135  54.2233992
  33.5511613  14.6945310  52.8702450  17.9599562  54.5509989  13.7324357
  18.1968012  55.3796179  13.3158708  17.0148793  54.6139247  13.8706279
  83.5645676  34.3780828  14.3417323  83.0086899  33.6233211  14.1479027
  83.9857864  34.5858049  13.5076714  56.5431786  15.4667580  14.4097841
  56.4808607  14.5127487  14.3627250  56.4903736  15.7554626  13.4986889
  69.5409853  52.5093977  53.8076374  69.8857195  51.6344516  53.6291477
  70.0600607  52.8250472  54.5473382  67.8360748  15.0921774  54.4059229
  67.5489616  15.5773902  53.6323786  67.3686600  15.5027902  55.1333523
  26.3543868  42.7286959   6.7395747  25.8866048  43.5588121   6.6483682
  25.6717062  42.0607948   6.6756701  75.1294708  12.5956511  37.8458500
  74.9697685  13.0827713  38.6542082  75.3334570  11.7072141  38.1379151
  83.1598282  22.5956321  40.3231049  82.7183437  23.2226062  39.7501874
  84.0436840  22.5231504  39.9628663  81.7143822  20.3189158  21.6297293
  81.9766712  19.9432671  22.4701595  81.7567635  19.5856249  21.0159540
  61.4235487  -0.3838637  68.8808281  61.0972300   0.2370474  69.5321483
  61.6599741   0.1596139  68.1291841  78.8317585  18.9981019  29.3920803
  78.1981802  18.4237850  28.9620042  78.9748240  18.5973811  30.2495098
  18.8001716  17.8820038  17.1038842  19.5105910  17.5966811  16.5293181
  19.2373264  18.3731389  17.7995241  76.0121059  68.0162096  31.9654441
  76.9466257  67.9883766  32.1707010  75.9783506  68.0819178  31.0110974
  25.9056759  32.5495291   0.9958090  25.2323937  33.1409717   1.3321367
  25.6536484  32.3924565   0.0858412  38.3083034  12.0168054  48.3154583
  38.7173486  12.2978246  49.1339588  37.5067735  12.5368142  48.2573843
  54.6201038  34.7876811  26.7797518  55.0350237  34.1479683  27.3584080
  54.8081112  35.6343555  27.1847582  51.8158388   2.8966254  23.2591438
  51.7597103   2.4018522  22.4416590  51.9332600   3.8051626  22.9816461
  54.2409420  16.5240169  30.7477951  54.8980618  17.0952201  30.3501153
  53.8086748  16.1027253  30.0048995   4.7858158  63.3543379   8.2240969
   4.2781701  64.1567023   8.3454973   5.6960192  63.6490459   8.1939143
  23.7155151  18.9095712  60.7180357  24.0358663  19.1787601  59.8571396
  22.9187846  18.4125686  60.5324650  43.7604141  13.3795214  11.9630730
  44.3659687  13.2053375  12.6836264  43.0494308  12.7514458  12.0905781
  50.6535292  19.8039103   1.6116123  51.3732958  19.3318260   2.0303069
  51.0793257  20.5179024   1.1371176  65.7149887  35.1282835  22.6615524
  65.7581711  35.9308529  22.1416998  66.1186075  35.3622866  23.4973550
  42.5073767  13.1713176   9.2145389  42.1300220  12.8950799   8.3793581
  41.7552757  13.4512722   9.7362667  18.7278366  28.4401011  59.4066954
  19.4039214  28.9875913  59.8059416  18.3651173  28.9808869  58.7051153
  41.5268421  25.6027699  32.3191381  40.7581234  25.2688146  31.8567824
  41.2775135  25.5839777  33.2431030  42.5939694  70.8058221  26.4660454
  43.1731692  70.5650384  27.1890807  41.7121592  70.6445367  26.8016434
  63.0165472  58.2143409  38.2076550  62.4649611  57.4469454  38.0556774
  63.7406340  58.1150562  37.5895333  59.8394108   3.1723067   8.7858766
  60.7455587   2.9052356   8.6316180  59.3369436   2.7155849   8.1112182
  76.3010359  36.4845824  33.3767915  76.9114113  37.0342922  32.8853750
  75.9423876  37.0655155  34.0477014  84.4210911  61.4510012  19.5761704
  84.6201992  61.0800314  18.7165380  85.1610184  61.1926889  20.1257277
  68.2581902  70.2033997  50.2992249  68.8231373  70.4140091  49.5557785
  68.8648367  69.9859428  51.0069895   0.4507350  38.6261106  35.7099390
   0.3297900  37.9400730  36.3664103   1.3989924  38.6788559  35.5905247
  38.6504650  15.9607363  25.5162120  39.0574646  16.1767554  26.3552117
  39.3162966  15.4550755  25.0501561  48.0095053  22.6802397  23.8975024
  47.5016451  22.8665280  24.6871901  48.4470940  23.5067844  23.6936188
  62.9612875  37.6084948  13.7162137  62.3459721  38.1245875  13.1953824
  62.4106455  36.9829369  14.1870654  35.5703950  11.8497622  59.7644949
  36.5047145  11.6445780  59.7988272  35.2539635  11.3955486  58.9836025
  75.0733215  63.8530211  69.1852549  75.9511406  64.2053251  69.0384676
  75.2185327  62.9338102  69.4092994  81.5622997  43.9928102  42.7946186
  82.4718761  43.7320948  42.6499271  81.1141491  43.1796074  43.0272055
  58.0884838  14.8262560  43.2147837  57.2587633  14.4207752  43.4665442
  57.8648043  15.7401931  43.0389500  52.2079277   0.9579991  50.8678198
  52.1308804   1.1133165  51.8091869  52.7952814   0.2055619  50.7964945
  67.8053141  40.8452368   9.8385382  68.2959414  41.0597372   9.0451252
  68.3015537  40.1329374  10.2417850  42.7552319  23.8079882  44.8543167
  43.0499125  24.5614123  44.3427086  43.3342505  23.7947297  45.6164169
  60.0237894  29.4594049  27.5122118  60.4524994  29.8867583  26.7707229
  59.5452166  28.7275362  27.1228957  48.5686684  20.3000212  19.4105017
  48.4193659  20.3924108  20.3514624  49.5214319  20.2934146  19.3186796
  24.4691110  24.8482943  65.5696154  24.6038055  24.1764426  64.9012566
  24.9056387  24.5025492  66.3481617   7.4593621  39.9556729  60.4122553
   7.9794150  39.6949805  61.1723975   6.6691285  40.3463370  60.7852725
  53.9385557   7.5853813  39.4355774  53.5859346   6.7069024  39.5775890
  54.6323299   7.6735282  40.0891352  57.4280977  26.8175292  34.2339778
  57.9116631  27.6155686  34.4473600  57.7625036  26.5571022  33.3757329
  48.2842255  25.9436154  18.9308548  47.7003574  26.6878080  18.7842035
  47.7276421  25.1746392  18.8078701  60.5934811  59.3267918  21.9626522
  60.4033709  59.3495178  22.9005098  59.8075056  58.9489794  21.5680313
  23.4622422  66.2215132  19.7516286  24.0864792  65.6081719  20.1394033
  23.8522044  66.4605910  18.9107943  72.2020817  11.9090462  55.8006430
  72.9404116  11.5443778  56.2886143  72.3765898  12.8496981  55.7697439
  50.5854464  56.3192844   9.1715550  51.2010860  55.5911636   9.2555732
  50.7621956  56.8714762   9.9331820  44.6573353  51.3818026  21.0549736
  44.9789524  51.6507244  21.9154811  44.1724396  50.5736542  21.2223411
  57.9212570  29.6012115  34.1353583  58.2714319  29.5288515  33.2474542
  58.6961365  29.6426964  34.6957827  36.4476776  22.0019102  45.3079462
  36.1831570  21.9673538  46.2272215  35.9185767  21.3281274  44.8809767
  54.3169928  26.0904837   3.4007674  53.5398293  25.8668876   3.9128733
  53.9770651  26.3112974   2.5336319  65.9522533   7.4764246  57.4527025
  66.7630053   7.4976408  56.9443130  66.2098408   7.7697498  58.3266830
  17.0467749  78.7737309  32.9251456  17.6236239  78.7307101  33.6877894
  16.1791745  78.5605494  33.2687402  73.8535595  25.4797244  16.1259270
  74.7558355  25.4577351  16.4447474  73.9371920  25.5374408  15.1741362
  70.2033472  10.0213671  51.6198301  69.2603111  10.1638055  51.5384722
  70.3394651   9.8447108  52.5506878  47.0998573  14.2418790  44.9625015
  47.9323101  14.7044873  45.0586557  46.8040848  14.0918875  45.8604193
  51.3760328   4.6894732  34.9005771  51.4886522   5.5562991  35.2906537
  51.6322851   4.8035350  33.9853954  85.7324964  49.5337419  63.1332645
  85.6798632  48.8972400  62.4202940  84.8246891  49.7939073  63.2895723
  57.2623491  34.5652556  20.4689407  57.0341921  33.9103818  21.1287260
  57.8383064  35.1768589  20.9276843  54.7482252   8.6455578  31.0283375
  54.6159554   9.4503313  30.5272627  54.8183441   7.9591352  30.3649092
  67.4970579  25.1249361  33.1754899  68.3590508  24.7700357  32.9581428
  67.2296953  25.6024837  32.3901868  42.7719069  54.4183016  14.9648333
  42.0444250  53.7970877  14.9317074  42.8555393  54.7373295  14.0662479
  45.5540466  15.9688938  25.1448035  45.0103283  15.8402693  24.3675900
  46.3197708  16.4460790  24.8251319  58.9946938  58.2438755  59.7628784
  59.0675116  58.8417435  59.0189123  58.1117058  58.3902168  60.1022148
  61.5965366   5.0373346  44.3734026  60.8071709   4.5518327  44.6130419
  61.6194963   5.7737970  44.9844122  41.1824560  20.9412742  33.7538743
  41.0963821  21.7907524  34.1865516  41.1541700  21.1447144  32.8189707
  27.0244255  65.1803906   6.8472278  26.8984547  66.0287697   6.4222366
  27.9671612  65.0234325   6.7939228  52.2982502  17.0138085  41.7155552
  52.2490406  16.7746842  40.7900095  53.2118416  16.8580163  41.9549370
  57.6197386  45.5212688  37.7219772  56.8712425  46.1179161  37.7215433
  58.2171011  45.8868885  38.3744454  22.2960749  79.1419595  65.9822750
  21.4132538  78.9191128  66.2775612  22.1597615  79.7651645  65.2686453
  69.6561909  23.0079174  45.1282787  70.3403330  22.8389168  44.4804955
  69.7470522  22.2976255  45.7634640  45.1069450  61.0306883  19.6866262
  44.7466707  60.2480030  19.2696869  45.8700800  61.2558031  19.1544819
  48.1948376  27.5574708  41.8510342  48.3177376  28.3771062  41.3721561
  48.8431549  26.9614291  41.4759970  35.1156893  78.6303186  30.0110292
  35.2635422  78.4715407  30.9433174  34.2262164  78.9810712  29.9659181
  36.1668578  80.7473641   2.7304274  35.4955616  80.5014436   3.3669144
  36.0413256  80.1384975   2.0025845  56.3735104   3.5582319  21.7752934
  57.3002338   3.5385436  22.0141006  56.1040688   4.4626597  21.9354343
  58.9232016  20.0654435  29.3425918  58.0765057  20.3161573  28.9731622
  59.5467329  20.6749964  28.9477706  62.1542835  15.2302456  49.6335411
  62.2234106  15.6728649  50.4794359  61.2370539  15.3371108  49.3815517
  55.8745766  38.9584088  18.8461232  56.3423634  38.5375667  18.1248045
  56.5641403  39.3467641  19.3845654  61.7162180  23.6236453  65.1983261
  60.8102751  23.6504412  65.5061817  62.0639229  22.8033352  65.5482197
  56.6571283  22.8141546  18.0317986  57.4017715  23.4106588  18.1087124
  57.0404339  21.9408298  18.1130886  15.8261958  73.9994974   7.2306228
  16.0216799  73.1460656   7.6174974  15.7890263  73.8326765   6.2888050
  72.0354462  28.4780598  41.5994453  72.6347494  28.1054997  40.9527063
  71.1868095  28.4962726  41.1570454  27.2514486   4.7785848  49.4042110
  27.1489334   5.2882522  50.2079248  27.2323704   5.4302037  48.7033081
  63.7092304  26.2261796  39.6219993  64.6353817  26.4650106  39.5840430
  63.2921219  26.9563961  40.0792027  67.7565241  27.1809149  57.0029831
  67.5262737  27.6598787  56.2068605  66.9481468  27.1652818  57.5153446
  60.9293365  21.9903874  41.9012260  61.7422056  22.1716857  41.4294100
  60.5190754  21.2803602  41.4074898  38.7651491  20.3827620  34.9125099
  39.6922493  20.3187585  34.6831203  38.6654258  19.8059392  35.6698513
  46.3467741  33.4085178  33.3849764  46.1251593  32.8814840  34.1526699
  45.8292723  33.0276585  32.6754880  59.6728659   9.9006653  20.2524376
  59.6692228  10.2453732  21.1454082  58.9163780  10.3115904  19.8339880
  76.9877100  36.5487313  46.4457083  76.9387531  37.3885036  45.9889603
  76.6327810  35.9156227  45.8216619  74.7469139  35.4783678  44.4733047
  75.6524229  35.3981876  44.1735411  74.4337034  36.2903500  44.0747929
  44.6639633  29.4657183  30.3046679  45.0705528  30.3101158  30.1099658
  45.3962612  28.8505173  30.3433585  54.9743605  22.2565031   3.6478931
  54.5757341  22.4831343   4.4881123  55.5797529  22.9758453   3.4682220
  25.3974810  76.7838625   7.1542042  26.1145201  77.4047951   7.0256275
  24.6593132  77.1693320   6.6822392  28.6423302  36.7308807  15.3661895
  29.0077424  37.3423076  16.0056126  27.7236509  36.9877648  15.2870071
  18.0181256  69.4697947  35.4477262  17.9662075  70.0143845  34.6622586
  17.1060219  69.3240292  35.6988311  48.4107018  14.1243351  16.6245461
  48.0614090  13.5928214  17.3398912  49.2630005  14.4227743  16.9419706
  44.9379253   1.4460567  24.1208863  44.5389652   1.9747803  24.8119116
  44.2369366   0.8621916  23.8311410  32.0593286  19.8574448  29.3067884
  32.0786834  20.2232003  28.4224367  31.3606644  19.2036855  29.2803526
  44.9271250  36.1123657   0.4041785  44.7585917  36.9017744   0.9186341
  44.2263746  36.0971737  -0.2477055  43.8021803  17.0071435   4.3697241
  44.3897915  16.8009543   5.0966573  43.6537552  17.9500175   4.4417635
  51.1539841  19.1973126  36.0053706  50.4790115  19.4147170  36.6483188
  50.6658459  18.9479995  35.2206445  56.9692698  74.9429453  42.2121096
  57.6980009  74.3979139  42.5089598  56.7709151  75.5059273  42.9604006
   3.1734189  62.1236684   4.2277756   3.2992800  61.6453721   5.0473013
   3.8130673  62.8348019   4.2648258  38.5613926  42.3659422   4.0441265
  38.9784821  43.1016251   3.5957566  38.2777604  41.7849349   3.3382836
  19.6255532  78.0373684  20.5580378  19.9261942  77.2000174  20.9111547
  19.4726363  78.5819093  21.3302565   1.3564299  15.9978497  13.3761108
   1.7398261  15.1213288  13.4069085   0.5470466  15.8878434  12.8770721
   2.5773047  16.0513449  19.5863605   1.6523837  15.8843291  19.4050682
   2.7453708  15.5970967  20.4119778  40.1548672  17.8609574   0.7064440
  40.8763266  18.4142017   0.4070330  39.9406457  18.1969321   1.5767664
  45.0198889   8.9309460  40.7645845  44.3898058   9.4910592  40.3112650
  44.4833994   8.3773541  41.3319921  35.5484080   9.3965483  30.0420856
  36.1644101   9.5090872  29.3181324  36.0853696   9.0727907  30.7653308
  39.4615784  78.4594666  48.6263371  38.8527527  79.0977248  48.2545996
  40.2734080  78.9498694  48.7554693  25.1733532  78.7755000  39.5987415
  26.1031714  78.7539817  39.3724513  25.1597062  78.7750223  40.5558443
  32.6724902  50.3937132  40.8112001  32.6915970  49.5352633  41.2342024
  31.8414727  50.4083306  40.3364086  12.4194851  68.9415593   0.9068520
  13.0864754  68.3045895   1.1630247  12.3829499  68.8793595  -0.0476260
  48.6787891  13.5079360  49.4873476  48.2288837  12.7610433  49.0924215
  48.0122805  13.9295650  50.0297737  45.9806538  17.3719013  20.5156446
  45.4375362  17.7727556  19.8369896  45.5884457  16.5105188  20.6585574
  55.0236693  74.8072583  28.4781981  55.1635542  75.3720433  29.2382526
  54.3567171  75.2605326  27.9624891  44.5967245  17.8133309  15.9284699
  45.0066614  18.6762047  15.8682251  45.2685785  17.2558486  16.3209677
  57.8578901  26.2101555  41.5235329  58.4917831  25.5014706  41.4131880
  57.6994658  26.2450671  42.4668837  43.1174564  19.1408086  33.3590484
  42.6621914  18.4428072  32.8881311  42.4174786  19.7097862  33.6792469
  73.3954287  19.9097097  37.0907259  72.5516844  20.3614736  37.1060586
  73.8487959  20.2747655  36.3308406  24.6272412  70.9064127  30.9414458
  24.0106812  70.2937491  31.3423514  24.7983351  71.5551693  31.6241407
   3.8643454  46.9597769  36.6248322   3.8214873  46.6011190  35.7384014
   3.7076758  46.2074041  37.1954608  32.0748654  60.0117190  66.0349226
  32.8664627  60.1017315  65.5043507  31.4753333  59.5055515  65.4866695
  21.1406040  42.4030447   8.3680511  21.7424512  43.1267548   8.1941104
  20.4858565  42.7730703   8.9601803  73.0104160  47.8284454  22.0078158
  73.1107807  48.6392593  22.5065565  73.1765604  47.1334076  22.6446438
  55.7682943  16.9806957  33.4295297  55.8538628  17.9335701  33.4601951
  55.9720850  16.7509711  32.5229263  45.7518387  29.7203159  41.8502760
  45.0659609  29.8835897  42.4976826  46.5647888  29.9534154  42.2986221
  55.2714539   9.7535956  17.8196180  55.8321476   9.0092754  18.0383408
  54.9732208   9.5748824  16.9277930  37.5582671  26.2234235  44.1501951
  38.2948685  25.9059811  43.6278105  36.8985772  25.5336165  44.0780401
  18.2488146  71.0820580  21.8364072  17.3496237  71.0387422  21.5111184
  18.1577673  71.3015247  22.7636480  85.0772364  45.7364993  50.7110569
  84.4339020  46.4352874  50.5925331  85.1656515  45.6508182  51.6603062
   5.3295134   8.8746178  21.2351727   6.0470485   9.1203851  20.6512499
   4.5990085   8.6797750  20.6481194   0.5109339  55.5606179  60.8646414
   0.8537703  54.7252779  61.1822889   0.9340840  55.6857364  60.0152186
  45.4795933  41.5362740  28.3298111  44.8844719  41.3310289  29.0508771
  46.3391829  41.6145420  28.7435913  50.0838804  20.6023502  15.8524024
  50.3182316  19.6980083  16.0609162  50.7341290  21.1310101  16.3149214
  43.7289801  73.1923003  33.2541227  43.2421294  73.9788032  33.0079126
  44.6436968  73.4735311  33.2749057  75.2903557  19.4742894  19.2410779
  76.0261345  19.0618312  18.7885976  74.5136070  19.0827549  18.8415837
   3.1642466  78.9003830  59.8902408   3.9213353  78.4376244  60.2492729
   2.7911788  79.3661217  60.6386653  52.1874952  45.9863567  25.7482219
  51.2335682  46.0480452  25.7976389  52.4120808  45.2685404  26.3402843
  81.4265919  16.5665591  37.5374818  81.7961025  16.2949502  36.6972899
  80.6126213  17.0146596  37.3075128  61.5348482  65.2362919  40.6921434
  62.2354889  65.8844328  40.6197071  60.7595062  65.7467985  40.9255219
  79.6305275  29.7878838  18.5105193  79.0283346  30.5284357  18.5824847
  79.4451714  29.2525935  19.2821026  47.9775000   9.9276006  38.2412529
  48.9277697   9.8463476  38.1599331  47.8360939  10.8389688  38.4974647
  67.0154572  73.8860989  47.5022411  67.9523563  74.0100193  47.6542187
  66.8670988  72.9550219  47.6675129  65.1735401  46.0557127  48.1769085
  66.0684061  46.3025618  48.4103870  64.6844006  46.8781662  48.2001638
  80.2684021  62.3317003  29.6218848  80.5793381  61.4742756  29.3314004
  79.4104338  62.1569252  30.0086331  62.6851892  67.2175598  44.7800922
  63.3096409  67.4771214  45.4575300  62.1888542  66.5001535  45.1740599
  39.7122264  32.4414682   9.6429110  39.8004818  32.8749847   8.7940854
  40.6118679  32.2542977   9.9109513  44.2323819  69.1221375  17.2495878
  44.4656506  68.1988508  17.3463249  43.4005251  69.1106767  16.7761743
  59.2384529  31.2562966  11.7528844  59.8322582  31.2607455  12.5036192
  59.8003340  31.0561180  11.0042548  69.9194765  35.6444669  32.2763348
  69.5485210  34.7626829  32.2435069  69.1673422  36.2251735  32.1609902
  79.6537971  28.7295437  44.3665743  79.4697285  28.9145541  43.4456348
  78.9116955  29.1061807  44.8395014  42.6286831  78.4459990  42.6470327
  42.6101342  79.2777727  42.1737003  43.2598391  77.9107282  42.1660328
  20.6434630  73.2929993  33.2047725  20.0172995  72.6152849  32.9501057
  20.4353999  74.0362549  32.6386380  65.8040237  29.9993515  18.3806062
  66.0974169  30.4681015  17.5993097  64.9206114  30.3310061  18.5412836
  72.8502560  23.7014890  11.7004824  73.0086279  23.1227779  10.9546638
  71.9472599  23.9977646  11.5862370  83.5038567  30.4666543   5.3261560
  84.4130421  30.7532430   5.4126543  83.0591011  31.2038779   4.9079168
  51.6416740  39.4428158  32.2968864  51.5299606  39.9173737  33.1206250
  51.1801958  38.6152816  32.4327302  64.0114546  60.9177446  13.7055254
  64.1717243  60.4942179  14.5488346  63.0584812  60.9887695  13.6504507
  85.0302029   1.4694414  49.0396452  85.3062153   0.9050499  49.7618008
  85.3446484   1.0233029  48.2533169  64.9394798  10.2820218  55.9225368
  65.6264925  10.9474897  55.9599829  64.4843769  10.3601635  56.7609882
  77.4920082  17.6202476  18.1814325  77.1755123  17.3500776  17.3194158
  77.6645136  16.7987847  18.6415136  34.7291192  49.6112844  12.1724835
  34.6825512  48.7261721  11.8110504  33.8760289  49.9967482  11.9727459
  12.0836838  79.8509576  22.6078549  11.4166077  79.4576528  22.0452252
  11.5860756  80.3054693  23.2875862  71.0039282   0.3167730  41.3929892
  71.6686153   0.9696651  41.1735582  70.1827335   0.6966951  41.0806894
  84.7020817  78.4472132  39.0090370  84.9868965  77.6373863  38.5855961
  85.4637337  78.7350178  39.5123196  22.3493462  55.6618230  67.4892334
  22.0812970  55.1324086  66.7381657  22.6023608  56.5037958  67.1106890
  39.4423485  41.5027237  27.8099799  40.3616905  41.6315460  28.0433202
  39.4508624  41.3822460  26.8604302  72.5248671  20.1922727  64.8839235
  72.9101276  20.5079079  64.0665007  72.9897499  20.6726766  65.5689955
   3.4200572   8.5349643  56.5903950   3.5952185   7.8420663  55.9536505
   4.1033458   8.4301448  57.2524834  49.6759510  22.8104305   6.9011009
  49.3947029  23.6795163   6.6150564  48.8875628  22.4133110   7.2711951
  48.2598591   6.0109282  58.0207777  47.6382828   5.3825766  58.3882666
  48.9604950   6.0629183  58.6708879  61.3897133  68.5686302  35.5438995
  61.8519211  69.3630934  35.2766418  61.2523222  68.0858183  34.7288871
  60.9783316  34.7108006  31.5603447  61.7212296  34.6315050  30.9619784
  60.9682274  33.8828969  32.0406628  73.7475634  63.9397335  57.2068310
  73.4172821  63.2272053  56.6596079  73.4964085  63.6940765  58.0972290
  44.3859911  12.0353162  29.0537977  44.2455292  11.1272955  28.7854671
  44.4315910  12.5236547  28.2317996  84.4111538  20.5401254  24.6830106
  84.1834354  20.8792853  25.5486608  83.6826611  19.9636161  24.4524097
  79.2500973  41.0144043  44.9582243  79.1433573  41.6141176  44.2198610
  79.3336916  41.5863514  45.7211876  68.2397747  19.7221696  29.7165322
  67.3445559  19.3853223  29.7532678  68.4176016  19.8282659  28.7819982
  10.4223632  14.2562115  63.0626154   9.8157786  14.3095088  63.8011599
  10.8811187  13.4256577  63.1889248  49.6271706  46.6597319  25.9529567
  49.0925741  47.3259115  25.5209398  49.9185514  47.0756102  26.7643595
  55.9996367  28.4187055  20.7882214  55.4742765  28.5023618  19.9924624
  55.9896231  27.4818897  20.9844494  78.2184744  14.2467666  57.1246386
  78.1357765  14.4340968  56.1895943  78.7108135  14.9891102  57.4750042
  39.6178603  53.7159824  68.0761719  39.0703440  53.4270811  68.8062334
  39.5192838  53.0294132  67.4165249  72.9328012  27.3666644  23.8538218
  72.3256350  28.0843234  24.0342426  73.4657335  27.6816297  23.1237459
  12.6869677  31.3710999   3.1749016  12.2255038  31.3221407   2.3377162
  12.6706790  32.3004913   3.4033787   4.0727996  28.8809466  46.4806604
   5.0231074  28.9743114  46.5472698   3.7656688  28.9049006  47.3869324
  31.8784132  70.2532847  43.5540676  32.1887961  69.5930237  42.9344273
  31.2640849  69.7828765  44.1175795  53.5966110  44.3250751  37.7550364
  54.0320539  43.9704895  36.9798684  54.0910769  43.9670849  38.4923124
  75.3729630  36.7877173  16.5753102  74.7270250  36.1649752  16.9087589
  76.2038755  36.3139844  16.6126287  73.3710375  73.5773225  31.9720745
  73.8875571  73.5628630  31.1663294  72.4674502  73.6857987  31.6754174
  63.4635630  77.0637293  52.6052856  63.4397402  77.8433300  53.1601620
  63.4498492  77.4055276  51.7112970  63.8909674  52.2681570  27.6734829
  63.7526894  52.2448540  28.6203551  64.1801739  51.3830280  27.4518132
  55.4348612  29.9536633  34.7994924  55.5401659  29.3511891  35.5358148
  56.2989092  29.9831057  34.3886542  61.9361115  30.1906133  29.5218110
  61.1591196  29.9800611  29.0039444  61.6679287  30.0397754  30.4282093
  83.7874603  22.0218730  21.6598368  84.4821167  21.3634896  21.6455579
  82.9905605  21.5337729  21.4526081  23.8966655  39.3432927  38.8655972
  23.2489394  39.5521617  39.5386982  23.3766078  39.1276479  38.0914688
  76.9728804  42.6871967  20.1272917  76.2430620  43.2101917  20.4590678
  77.6642227  42.7997112  20.7796884  57.8133631  36.9818187  22.1660614
  57.1642971  36.9907379  22.8695273  58.6559772  36.9389296  22.6181555
  59.9590111  27.8880072  45.2421808  60.3851843  27.1199799  45.6226349
  60.5661297  28.1883717  44.5658588  45.4560566  73.2908106  17.0291960
  46.1545753  73.5044670  17.6477885  45.6232738  72.3807621  16.7840791
  69.6389753  77.3552899  61.7717359  70.3215105  77.8646736  61.3348052
  69.3747694  76.7028455  61.1230895  83.2603741  41.6483021  29.6796703
  83.4403610  40.9796143  29.0188432  82.7201748  42.2947931  29.2252898
  14.8657607  63.4756565  17.1490335  15.6088637  63.4111547  16.5491450
  14.4458579  62.6166821  17.1034145  68.0536842  32.8313589  44.6871901
  68.7205553  32.6454282  45.3482103  67.2223234  32.6750827  45.1351213
  71.3274670  55.6192589   3.6941737  71.0358953  55.0427818   4.4005001
  72.1756697  55.2634096   3.4293038  55.3474379  48.9392376  41.0040140
  56.1297941  49.3096876  41.4125776  55.3606415  49.2792177  40.1093245
  48.0815896  65.3049853  10.4786244  47.6718052  65.4735329   9.6301546
  47.4226387  65.5709698  11.1199227   6.2770777  71.7992215  69.5803312
   5.3775912  72.0385794  69.3570440   6.1854535  71.0791187  70.2042631
  81.9758701  29.4594955   7.3435163  82.6461697  29.2174363   7.9825294
  82.4665928  29.6645665   6.5476733  57.3215961  60.7479000  26.9145560
  57.7082396  60.7005692  26.0402012  56.4227200  61.0401678  26.7634559
  51.7141867  20.8419466  40.3601789  51.1982584  20.4272461  39.6687508
  51.6167021  21.7808342  40.2013779  76.9593143  70.1332808  15.5161035
  77.8481340  70.1353741  15.1608157  76.8202591  69.2324066  15.8081996
  41.0177842  66.7265243  19.0733922  41.7059651  66.2239785  19.5093799
  40.8646622  66.2601311  18.2516479  47.6698693   0.2087729  15.2838087
  47.7447709  -0.0373323  14.3618250  48.5746392   0.2628844  15.5915248
  19.8355864  68.9850760  22.6616168  20.6084155  68.9871836  22.0968437
  19.2380999  69.6109343  22.2522974  22.7779578  31.3391733  33.2191634
  21.9647693  30.8343554  33.2085419  23.1443881  31.1847425  34.0898609
  40.1855850  17.2285223  15.3554773  40.8444166  16.9292378  15.9820545
  40.4477596  16.8321538  14.5245826  80.5330753  57.6537371  66.7991781
  81.3607883  58.0499220  67.0714998  79.8693991  58.1002569  67.3249054
   1.7141627  33.1494308  12.2238815   1.5292357  32.8735590  13.1216156
   0.8729266  33.4625435  11.8914330  62.9627514  66.8052387  59.3172216
  62.7397060  66.2975073  58.5370350  63.7039614  67.3470736  59.0465593
  75.5257273  20.5018830  11.0183978  76.0459185  19.7247398  11.2225509
  74.6556091  20.3057075  11.3657391   7.8119086  12.7249765  15.8263445
   7.0152949  12.2668099  16.0941601   7.7115439  13.6078751  16.1822248
  58.3617735  50.7055426  20.8543348  57.9239941  50.2399158  20.1417542
  59.2567110  50.8361959  20.5408835  78.5336065  18.6673665  10.0120652
  78.6137056  17.7208388  10.1299620  77.6851749  18.7845445   9.5846653
   3.1476020  43.9953423   8.6861145   4.0077208  44.3537951   8.4671712
   3.3360576  43.2587099   9.2675734  77.6651764  24.4113421  34.8149157
  78.3011246  25.0019240  35.2186656  78.1581736  23.6087441  34.6445608
  79.9320078  73.1302691  18.4663534  79.6805763  72.2304535  18.6745369
  80.6605244  73.0393887  17.8521609  69.6934652  57.2274542  41.6839743
  68.9101934  57.2655916  41.1351013  70.1715326  58.0300140  41.4752054
  72.5247812  59.9027824  34.4222116  71.8048382  59.5574617  33.8943267
  72.4381733  60.8535194  34.3526959  78.4954977  37.0327640  59.6219778
  78.4786081  36.9198132  58.6716127  79.0266275  36.3029218  59.9405098
  84.8776913  17.2954404  30.8245492  84.6867371  17.0236719  31.7222738
  84.1808033  16.8996978  30.3011346  73.8070393   8.9762205  27.8607702
  74.5104599   9.3956947  28.3562207  73.9250851   9.2904830  26.9643688
  85.5097294  38.1500721  27.2529888  85.6090069  37.7984929  28.1377316
  84.7870064  38.7737989  27.3228192  58.5270166  51.9890594  33.9163256
  58.1660891  51.1137104  33.7758756  57.7941704  52.5805855  33.7452745
  10.2465056  38.8025045  12.3022091   9.3449592  39.1136122  12.3837626
  10.3255366  38.5345793  11.3866746  71.5514517  18.5550106  51.6900826
  71.0850525  17.7765775  51.3855410  71.6522026  18.4204984  52.6324177
  71.3427496  37.2925949  42.4845648  70.8213043  36.5004802  42.6144838
  70.7148552  38.0097389  42.5722122   5.2183341  19.2612946  26.8929338
   5.4993438  18.7253511  26.1512971   5.1286219  18.6409450  27.6163650
  52.1460485  16.8067002  38.5444093  52.7461100  17.3818851  38.0697274
  51.2868738  16.9913065  38.1649733  72.0768833  40.9717083  49.1418743
  72.9918718  41.1944103  48.9703083  71.8979549  40.2310705  48.5624981
  68.7983244   5.4501648  15.4657212  69.1664045   4.7670479  14.9052754
  68.1024664   5.8430977  14.9388447  45.9227419  36.8049860  27.5907183
  46.0897827  36.7744780  28.5327363  46.4092779  37.5708747  27.2858787
  73.5516691  47.8157711  12.2914267  73.5879946  48.2352972  13.1510246
  72.8561592  47.1631527  12.3726213  46.0645723  66.5890455  19.8873556
  46.6618872  67.2671461  20.2029991  45.2154112  66.8251514  20.2607274
  62.9554033  41.1825943  39.6645164  63.2098055  41.8027449  40.3478336
  62.5748348  40.4444981  40.1405525  65.3617334  45.0714731  38.4758019
  65.6036854  44.2494059  38.9022970  66.1106396  45.2812862  37.9178166
  26.7759131  23.3270431  13.8165021  27.5761412  22.8584456  14.0537369
  26.8860339  23.5345817  12.8885841  15.7603675  67.0439701  53.2656417
  16.2415295  66.7981605  52.4755189  15.8517009  67.9955034  53.3153937
  54.4890499  66.6154432  51.1688280  53.6699247  66.3969374  51.6132593
  54.2159891  66.9540167  50.3161621  77.2943926  58.2842541  61.3810444
  76.3501072  58.1572390  61.4727974  77.6531315  58.0381203  62.2336674
   6.0108661  45.6774044  20.4695845   6.5268515  45.0769186  19.9316216
   6.0305022  45.2915096  21.3453317  34.4814825  51.1392307  50.5653095
  34.4914722  50.1822090  50.5809116  34.3161941  51.3918686  51.4736509
  81.3966465  44.8452902  30.9297776  81.4436436  45.7406664  31.2649250
  82.1079731  44.3851328  31.3753200  61.3526201  30.2340865   9.6624815
  62.2713041  30.0896025   9.4358206  60.9582233  29.3624854   9.6310061
  38.2308682  71.2328842  11.7083683  37.8556260  71.8018463  11.0362854
  37.4734601  70.8946564  12.1860352  83.3099079  38.2000017  31.9181776
  83.2332706  38.9770484  32.4718523  82.5524139  37.6635957  32.1520686
  75.0048113  39.6150780   6.7078704  74.3231964  39.3225169   6.1028546
  75.7667780  39.7749996   6.1510378  23.3226815  18.8258574  68.1338808
  23.2199517  17.9271147  67.8209338  22.4991789  19.2555640  67.9027318
  36.9800415  75.4963572  36.6217875  37.6749936  75.1604832  37.1878767
  36.8503561  74.8091156  35.9682488  84.9577713  66.7180777  10.9323168
  84.5127678  67.2207785  10.2500415  84.5693779  65.8448839  10.8782971
  17.0398863  58.4249356   7.6631012  17.6194724  58.7538686   8.3502045
  16.9552191  57.4897017   7.8485766  67.9676867  40.8809423  31.7547536
  67.7438974  40.6858063  30.8447695  68.9151478  40.7528877  31.8011451
  75.3670532  65.9889297  63.2684765  76.2202389  65.5954771  63.0854395
  75.0093395  65.4631166  63.9838717  78.0572987  61.1183357  30.5634022
  77.8652048  60.2817774  30.1397276  77.2243214  61.5897608  30.5513549
  83.3547115  14.1815615  23.8172889  83.7822151  14.9743855  23.4933972
  82.5344467  14.1340792  23.3262277  49.4855165  22.3600340  37.5241017
  49.2303801  21.7800689  38.2415795  49.0227175  22.0145822  36.7607474
  48.6687994  31.5162730  15.7833767  47.7336502  31.7204976  15.7788312
  48.7051535  30.5598617  15.7697105   8.9079474  12.7163160  42.6856661
   8.3969687  12.9350531  41.9063807   8.2529639  12.5688338  43.3679342
   4.9056720  13.8898182  50.4396057   5.3911494  13.6162412  51.2178659
   4.0965651  13.3792830  50.4702759  77.5603342  16.2341130  13.6432564
  77.8765965  16.8629050  14.2919707  77.2853613  15.4759336  14.1587996
  79.6327409   7.4351352  12.1938479  79.5963344   6.9221061  13.0011308
  79.0277204   8.1614917  12.3441732  49.4010973  52.0066929  37.7651930
  50.2134180  52.4484062  38.0126882  49.6843815  51.1598206  37.4205303
  72.7306223  35.7144451  34.3670893  73.0081034  34.8561978  34.6874738
  72.0676517  36.0016155  34.9949718  35.0650954  22.4452066   5.3304857
  34.1171217  22.5139570   5.2171081  35.3157425  21.6897607   4.7987804
  61.5225506  53.4772968  24.8563576  61.6588449  54.3993235  24.6383548
  61.0898542  53.1103277  24.0854216  32.4423009  75.7496981  57.1889374
  32.9182320  75.0471668  56.7460296  32.3039323  75.4220395  58.0776021
  75.3683043  50.4938078  33.6032081  75.4871511  50.9987783  32.7987790
  74.4463921  50.2366209  33.5905576  73.3072948   6.4479494  25.8935308
  72.9509115   6.6435307  25.0269461  72.5496387   6.4825290  26.4774776
  76.4615679   7.3943132  50.5037403  76.0388422   6.7328036  51.0514069
  75.8644819   8.1420833  50.5274630  63.2587528  18.8285673  61.0709715
  63.0407047  19.5029271  60.4276037  64.1501522  19.0408421  61.3477087
  63.9879408  10.6258700  66.2225643  63.7124243  10.6169484  67.1392104
  63.2026949  10.3789971  65.7340265  81.5526295  41.5491247  62.6306581
  81.1785507  40.8708954  63.1930637  82.2061062  41.9821739  63.1798983
  59.1715240  75.6663036  18.5791135  59.8526239  75.4578400  19.2185497
  58.5749054  76.2508488  19.0466416  56.2674093  54.7583485  42.4732447
  56.4988565  54.9900961  41.5738249  55.3803110  55.0992250  42.5876904
  63.1446028  10.3175998  35.1399732  63.2258463  10.8903599  35.9025836
  62.9731131  10.9130454  34.4104052  67.7131844  35.5974531  14.2484045
  68.5396147  36.0476661  14.0735948  67.0533276  36.1245441  13.7978566
  78.8538742   8.4206724  48.6367846  79.2067003   7.9126900  47.9062414
  79.2764091   9.2761117  48.5598516  30.5718811  80.0425079   6.0303726
  30.5280884  80.0041010   5.0749483  31.4995392  80.1797821   6.2222948
  76.2145853  18.4110236  40.8425713  75.4763222  18.8046730  41.3075876
  75.8390951  18.0954063  40.0206089  11.8966102  22.7234125  23.3697128
  10.9839534  22.8751087  23.6152530  11.9095610  21.8252230  23.0390787
  71.2504768  46.4972401  12.1930337  70.7007265  45.7999229  12.5504625
  70.7868767  47.3049212  12.4142981   9.1710757  46.8330717  38.5260630
   8.7599753  47.6619339  38.2806802   8.5928248  46.1621952  38.1630445
   5.2104720  24.8226967   2.5886336   4.6704443  24.3707468   1.9402971
   5.5062827  24.1296878   3.1789437  77.7289867  25.7499552  23.4752941
  77.2643280  26.5391302  23.1968617  77.8038120  25.8387256  24.4254279
  52.2444201  29.9943733  22.8997159  52.8577662  30.7043910  22.7102041
  51.4482641  30.4375100  23.1929684  39.2839327  76.9319830  51.0932541
  39.2729893  77.8767494  50.9398651  40.2073613  76.7228452  51.2338781
  67.0070028  47.0913553  40.0017548  67.2143984  46.6753197  39.1650176
  66.4354706  46.4648056  40.4456186  64.6535683  28.2399607  25.0791121
  64.7575045  28.0143762  24.1546988  65.3643942  28.8559198  25.2567291
  43.1337881   9.6675289  31.3932991  43.1653929   9.7329617  32.3477364
  43.9527082   9.2325622  31.1557961  64.0887833  51.1880302  39.2547512
  64.6004725  50.5731058  39.7803688  64.1247034  50.8319187  38.3669877
  14.5268994  71.1347346  44.9572167  15.3080922  71.1768012  45.5087576
  14.8309594  71.4036946  44.0903601  54.5784473  28.0301595  29.5227170
  54.2803240  27.5851107  30.3159904  53.9330721  28.7224245  29.3795490
  41.3863850  20.9827352   3.5062066  40.8523655  21.4557409   4.1444224
  41.9079018  21.6625714   3.0795041  83.4224922  57.9057638  62.7180866
  83.7266523  57.0764987  63.0869154  83.2344801  58.4525482  63.4809176
   1.6984271  44.8050737  24.5373750   2.3391150  44.1476393  24.2662144
   2.0561313  45.1682234  25.3475595   6.6470145  46.7463636  26.2761664
   6.9936465  45.9811735  25.8172941   7.0042228  46.6768742  27.1614957
  42.8724280  65.0736470  20.4604602  43.7661305  64.8127312  20.6828332
  42.3812619  64.2523308  20.4397750  83.4628391  33.0350876  23.6516976
  83.5906696  33.9103842  23.2859802  82.7741718  32.6479316  23.1112504
  19.4801312  55.1511113  59.4698224  19.3251735  54.2100732  59.3881664
  20.2849608  55.3051393  58.9750967  65.4653263  36.9404411  30.8570743
  65.3766108  37.8706241  30.6494164  65.0782156  36.4895368  30.1067019
  57.6723671  48.5931110  13.5813868  57.9425287  49.4899940  13.3843017
  57.9712582  48.4445953  14.4785142  71.2950468  12.6800156  35.8269382
  72.0254707  13.0285752  35.3158402  71.1387491  13.3400881  36.5022945
  29.5496884  73.7373830  50.8261442  29.5410338  74.4749094  50.2160549
  28.6321869  73.4737498  50.8962440  79.2055845  20.9095144  15.5436528
  78.4397078  20.4040504  15.8159971  79.3994665  20.5937743  14.6610713
  56.4594460  29.3159032  37.4527383  56.7578268  30.1607585  37.1159601
  57.2450733  28.9155650  37.8252339  78.3790064  43.6202145  39.3405652
  79.1507673  44.0308285  39.7304606  78.5837030  42.6851988  39.3320870
  13.2812308  24.9048710  21.6809964  13.0853938  24.2085028  22.3078513
  12.4428557  25.0882530  21.2570572  64.0950441  42.7086353  18.8228619
  64.3125677  43.3223677  18.1212604  64.2834616  43.1895590  19.6287417
  48.8831758  65.7269430  50.5986834  48.3332157  66.1693954  51.2452173
  49.3408680  66.4365005  50.1478243  60.6638670  26.4919519  40.2656317
  60.1617765  25.8764505  40.7997608  61.0394812  25.9535265  39.5690370
  61.1587477   1.9519895  31.7022085  61.1390638   1.9658609  30.7453108
  60.2515650   1.7852721  31.9580412  59.7286749  39.1829348  33.5929346
  59.7556448  38.4377122  34.1930580  59.3812180  38.8213992  32.7775812
  77.6057386  51.3956928   2.4147604  78.1421280  52.1262121   2.7227500
  78.0818605  51.0507154   1.6594285  38.4922528  32.8398418   2.4468778
  38.2464910  32.0685363   2.9576817  39.4346189  32.9304147   2.5882193
  34.3440580  71.9907284   3.1924471  34.5000005  71.0494328   3.2690942
  33.5255885  72.1373034   3.6666334  85.1859283   5.1091522  27.1712422
  84.6683884   4.7249252  26.4636064  84.7640038   5.9501338  27.3471832
  70.8089638  32.0950508  22.0996952  70.7469130  33.0296874  22.2967720
  70.0358772  31.9109368  21.5661502  80.8791637  44.4222832  25.1773167
  80.3250122  43.7340212  24.8092866  80.2706051  44.9972248  25.6413555
  14.0146407   8.4795611  19.9469841  14.7964200   8.6039298  20.4851198
  14.3512209   8.3669894  19.0580094  70.1864433  43.1672382  18.9187777
  69.6793652  43.1105375  18.1089103  70.0166655  44.0504837  19.2463219
  17.7680301  46.1647463  31.4030623  18.6907958  46.4165497  31.3665867
  17.3073481  46.8786383  30.9621954  60.3364658  18.4863067  43.5627127
  60.4731417  19.2694974  44.0957785  59.7155809  17.9594636  44.0658712
  28.3756161  18.9808321   8.7510914  29.3248320  19.0145063   8.6324078
  28.2526684  18.4795988   9.5572430  80.3818893  32.9573584  50.1712179
  79.7199583  32.4633360  49.6874571  79.9701738  33.1476617  51.0141373
  57.4847603  65.8635283  13.8195920  58.2338953  65.4878235  14.2820597
  56.9042206  65.1194429  13.6597741   4.5174502  31.7062235  37.9552388
   4.2194938  31.6952825  37.0456624   4.4795131  30.7903123  38.2307363
  65.1444960  72.9644060  20.6600332  66.0871220  72.7982855  20.6696796
  65.0687933  73.9059067  20.5048490  72.5082445  24.2833066  33.7844157
  72.0311546  23.4541273  33.8172007  73.3745289  24.0751958  34.1343760
  22.3182543   3.9038604  24.4149208  23.1995018   3.7031596  24.7301292
  21.8405398   4.1780799  25.1977539   0.7299041  33.7318826  15.0509858
  -0.1245214  34.0085459  14.7198534   0.5259894  33.1203437  15.7585657
   4.6593856  39.0424514  51.8189621   4.5157241  39.9879742  51.8587112
   5.5182074  38.9135432  52.2215128  70.8208656  35.3590703   6.8371922
  71.0325909  36.2900043   6.7681420  71.2391663  35.0780272   7.6509911
  76.6867304  57.0204306  49.4019365  76.8185663  56.3869667  50.1073265
  77.1827745  57.7915716  49.6767282   0.5433463  76.9498253  57.7498007
   0.8490847  76.5258074  58.5516548  -0.3487111  77.2313070  57.9528713
  82.6469803  43.1677246  11.6161382  81.8238926  43.5483408  11.3097072
  82.3798656  42.4457741  12.1850574  20.3234767  34.0108085  11.0518384
  20.3898238  34.7846079  11.6113603  19.9903106  33.3248067  11.6303122
  31.0655099  52.0695560  52.6398787  31.4795571  51.2810926  52.9907653
  31.4805680  52.7896063  53.1147311  74.9215412  36.0371900  23.9710164
  74.3850088  36.2233782  23.2004952  75.7931709  36.3576317  23.7390494
  67.8518677  46.7173338  11.8807757  67.9549837  46.9050503  10.9478438
  68.5205317  46.0584545  12.0678520  36.7449131   1.5295289  33.8417945
  37.2582188   0.9209702  34.3732176  37.3230067   1.7583010  33.1139860
  43.4687662  30.4226446  18.3606458  43.8417816  30.2436590  17.4974799
  42.9718876  31.2323642  18.2436204  40.0533619  71.0303558  31.4429951
  39.2941275  71.4730496  31.8222284  40.2014962  70.2769334  32.0145226
  13.2853030  38.4303904  22.3197889  13.8484191  38.6604047  23.0588579
  13.1180190  39.2628789  21.8779635   7.6009082  35.8241105   2.2732174
   7.1220206  36.6313124   2.0852590   8.1878089  35.7140827   1.5251073
  81.7374420  27.6234531   2.5576317  82.3010349  27.1385860   1.9547281
  80.8513260  27.3302126   2.3453827  54.7578049  47.9150963  25.9059286
  54.6097994  46.9721794  25.9782600  53.8867664  48.2836628  25.7586861
  20.4376974   5.9453890  59.6918890  20.1683369   6.8631671  59.7288272
  21.0971537   5.9170363  58.9986787  84.9588394  35.5629635  40.3729105
  84.8586273  36.5124297  40.3043127  85.7456970  35.4429555  40.9045887
  79.6798849  35.7594132  56.9305086  80.3263092  35.2572846  56.4342880
  78.9057446  35.1968932  56.9532681  74.3276262  32.5503683  32.1261930
  74.0340853  32.5390983  31.2151837  74.7020245  31.6809106  32.2679663
   9.2627620  22.5751591  30.9773111   9.0049170  23.4884834  31.1021590
   8.4389781  22.1125960  30.8235335  69.8478174  76.1569595  24.9179244
  69.8729467  76.8436098  24.2515087  70.3352261  75.4296827  24.5309711
  17.3983001  45.8183861  34.0235281  16.9916819  44.9540758  34.0856528
  17.3575400  46.0358715  33.0922532  70.5864811  52.9465485  56.4773083
  71.2002802  53.4002161  57.0549488  69.9429512  52.5576639  57.0696545
  32.5626372  26.2827969  16.2625349  32.2153567  26.8663764  16.9371188
  33.3412932  25.8934116  16.6603947  57.7936935  17.1473324  37.4316239
  58.2233429  16.5791011  38.0709577  57.7314663  16.6129673  36.6399097
  74.7022581  58.3541346  48.3198690  75.2757311  57.7800846  48.8276339
  74.4057322  59.0128136  48.9479208  74.6665525  66.4197493  37.6910830
  75.1890516  66.9605064  37.0987940  75.3087473  65.8794451  38.1513977
  16.3618277  19.5283699  21.9769335  17.1241378  18.9507675  22.0154762
  16.3555144  19.8569691  21.0779262  37.5403863  59.2215531  55.7980737
  38.4091836  58.8268928  55.7227716  36.9344788  58.4864478  55.7046649
  27.9074925   2.8039332  10.9742584  27.4652594   3.3031006  11.6609135
  27.8313130   1.8918152  11.2543907  84.8928547  23.5960340  46.4710045
  85.0631905  22.9344344  47.1414566  85.7585049  23.9361906  46.2447929
   5.1095485  26.8089199  24.5124650   4.6843623  27.3559737  25.1729012
   4.3873977  26.4563584  23.9924383  79.0743256  48.5446072  43.9223194
  79.0189171  47.6044655  44.0934706  79.4361830  48.6062050  43.0383015
  51.2294149  57.5000286  24.4484377  51.8125200  58.1290054  24.8734164
  51.3887024  56.6763973  24.9094081  59.5726195  72.5193066  21.3621163
  60.1879111  71.8979163  21.7513752  60.0298109  73.3597291  21.3920808
  49.1960469  72.6707352  60.0581551  50.0976696  72.5187005  59.7749662
  48.6612788  72.3916394  59.3149471  49.7227430  58.7578964  33.0112028
  50.5517673  59.2061615  32.8438377  49.3379784  59.2330265  33.7477040
  62.7318716  32.7219200   4.7277990  63.6588764  32.4846387   4.7034687
  62.5771093  33.1688285   3.8956007   8.8700961  32.3124504  22.6446748
   8.7166690  31.9523048  23.5181642   7.9979228  32.5409007  22.3231983
  26.3027104   7.5231211  49.0623379  26.0258110   8.1114714  49.7647667
  25.4946049   7.3106520  48.5953665  44.5184088  66.9007921  56.5420485
  45.0795078  66.5575123  55.8466625  44.7012711  67.8402662  56.5555048
  13.5876654  51.6964436  18.2517922  13.7996672  51.2680149  17.4224949
  12.9434298  52.3647785  18.0182767  13.3396243  40.2059507  15.4267919
  13.7269400  39.5345759  15.9884608  13.4557055  41.0218000  15.9137654
  52.0451498  59.6606588  34.4405675  52.4423552  60.5209398  34.5761251
  51.4425039  59.5563889  35.1768947  80.6973553  39.2056918  49.8335266
  81.6279030  38.9913702  49.7672892  80.5893803  39.9780917  49.2785740
  67.8251410  37.4445176  32.4383664  68.0812359  38.3256936  32.1660209
  66.9321346  37.3421669  32.1092820  54.8789501  75.1941156  11.7356229
  54.5392847  75.4209995  12.6012933  54.4562769  74.3620205  11.5230227
  55.1349974  29.5715261  16.1136019  54.8242235  30.4380751  16.3757944
  55.9986973  29.4940805  16.5188897  29.4707146  56.3988898  55.9109542
  29.0795937  56.7924140  56.6909537  29.9981346  55.6742594  56.2470803
  75.0547886  59.1146708  35.2669430  75.1507139  58.1694889  35.1500750
  74.1344643  59.2882776  35.0692081  11.3050571  40.9350798  58.9613960
  10.8864417  41.4719508  58.2885144  11.8401280  40.3108714  58.4712002
  75.6427574  60.3261566  27.8556490  76.1321497  61.1269188  27.6672196
  76.3114786  59.6432066  27.9068613  72.5785255  31.4402127  33.6733103
  73.2106590  32.0544291  33.2999802  72.1197891  31.0782599  32.9151654
  75.9747362  29.1162157  42.1507740  75.7782412  30.0521970  42.1112347
  76.9309044  29.0722680  42.1569872  56.1169415  57.3297195  62.6348070
  55.5741578  56.7316787  63.1485847  56.9157010  56.8337934  62.4551699
  79.3635702  53.3595562  20.9704208  79.6003151  54.2775822  21.1023569
  79.3952656  53.2380247  20.0214982  61.7983913  55.2703190  13.2952738
  60.8998299  55.5992746  13.3198559  61.8452024  54.6470785  14.0202618
  23.1045636   6.5136378  65.1127720  22.5856122   5.7677691  64.8117828
  23.6455925   6.7487757  64.3589592  44.9512720  41.6281176  25.5069613
  45.2153492  41.8211794  26.4065289  45.0612354  40.6809616  25.4231000
  63.8421440  66.6491842  40.0679302  63.7098503  67.5310469  39.7200084
  64.4816875  66.2519407  39.4768190  54.9218225  43.3632612  40.3733873
  55.5204201  43.1016731  39.6737576  55.0355625  42.6943064  41.0485125
  74.8529425   6.8667243  38.1055531  74.9946680   7.1670840  39.0032897
  75.1213923   5.9479878  38.1151805  71.2895632  39.1224933  14.6123016
  70.8483505  39.6354246  13.9352012  70.9638739  39.4836903  15.4367387
  71.7392817  43.2857249  27.3952732  72.4205389  43.3243773  28.0665693
  70.9259310  43.4592078  27.8691826  29.1010951   9.2424798  17.8470683
  29.9079894   9.1635931  18.3559191  29.1484164   8.5288841  17.2108507
  61.6271305  45.6225014  49.3898869  62.4308252  45.8272982  49.8677635
  61.6975069  44.6886253  49.1919994  18.7715148  35.8165693  46.5453386
  18.4242915  34.9399590  46.7103195  18.2389449  36.1534548  45.8248472
  53.9567947  54.9398518  29.2251086  53.6955357  55.8415174  29.0380812
  54.7875690  54.8303366  28.7624478  12.5416278  48.4220600   3.9425832
  12.9291533  48.5860205   3.0828324  12.9236983  47.5903749   4.2228514
   9.1408728  38.0801749   7.9050940   8.5282039  38.7945628   8.0798119
   8.6098384  37.2868299   7.9746395  69.2098713   3.6938572  53.4867287
  68.6966562   3.8257641  54.2838764  68.7679005   2.9759669  53.0333757
  22.6348790  18.2585662  18.6640167  22.6409491  18.0103343  17.7395833
  23.4141835  17.8398745  19.0295589  36.2172737   1.6887448  64.5149675
  36.8432131   2.4018691  64.3889204  35.3635826   2.1209738  64.5398376
   7.9016112  43.2148457  49.0463591   6.9729613  43.3341265  48.8473415
   8.2214354  44.0971375  49.2347765   6.2803267  14.5263445  47.4087811
   6.8187808  14.4992721  48.1997156   6.7073821  15.1760399  46.8504333
  12.3460473  29.2659829  65.9761447  11.7968644  28.4888384  66.0795355
  11.7658414  29.9985573  66.1833221   3.2036113  31.8852329  44.4336987
   2.3517512  31.5467525  44.1580248   3.0636023  32.8257942  44.5431280
  16.6875266  49.9513388  52.9487896  16.6433715  49.0561581  53.2848454
  17.0157241  49.8556185  52.0547247  40.8139771  72.0683785  34.6309223
  41.6476076  72.1215554  34.1635266  40.5920618  72.9781552  34.8291435
  71.0528135  68.4010077   4.2039514  71.7721558  68.5701132   3.5955304
  70.2959490  68.2388496   3.6408404  23.3230018  53.8534164  19.8802400
  23.3910846  53.3389235  20.6845403  23.2288169  54.7571516  20.1812673
  64.7856236  54.2977953  56.5099621  64.4531870  55.1538277  56.2399244
  64.0058517  53.7458038  56.5690756  19.1797351  35.5208397   0.5613660
  18.5374354  36.1205769   0.1818866  20.0275802  35.8964562   0.3241033
  65.4761934  18.9030385  57.7949476  65.5583286  19.0447557  56.8518639
  66.2067270  19.3910038  58.1749964  20.9861850  36.4638782  12.2120702
  21.6051482  36.9475603  12.7590394  20.5484198  37.1379447  11.6922379
  62.7473068  43.3415651  41.5576458  63.0577040  43.3612633  42.4629068
  62.8305960  44.2462158  41.2561464  69.2833138  43.5287380  66.2453461
  70.1609802  43.4682417  65.8681488  68.8912296  42.6716518  66.0782957
  12.6660498  31.0358184  42.5760317  13.4502610  31.0465758  43.1247854
  12.3104390  30.1536792  42.6837349  82.7219477  36.2871907  57.6326606
  83.4493819  36.2694333  57.0107660  82.3196879  37.1465132  57.5062368
  64.2799664  53.9120293  24.9721980  63.9548111  54.7748280  24.7151375
  63.6398983  53.5949278  25.6093717  72.0409107  55.6042624  57.0761442
  71.3900232  55.6258965  56.3746405  72.7482796  56.1685705  56.7640305
   9.0452441   2.3688357  43.8894892   9.9546154   2.6674216  43.8780546
   9.0568121   1.5869086  44.4414663  33.3859919  53.0780745   6.5739810
  33.7491225  53.9157057   6.2863284  33.5911082  53.0362082   7.5080085
  48.1852007  28.9266968  13.7802196  48.9556122  28.5528564  13.3525050
  47.9161453  28.2611227  14.4133484  51.0471955   0.9579108  60.8487049
  50.7536688   1.7029641  61.3730786  51.6926470   0.5161402  61.4004842
  63.2694197  62.7396679  29.8844123  63.4924793  62.1627140  30.6148911
  62.5727654  63.3002090  30.2260256  80.1087189  29.9470019  23.7671518
  80.5643368  30.5827951  23.2154131  80.7703400  29.2842627  23.9653206
  77.6075125  38.7519264  50.2455997  78.4479189  38.6456203  50.6912994
  77.2539806  37.8643966  50.1861525  75.1784563  31.1213636  45.7719088
  74.9661160  31.5753579  46.5874052  74.6868515  30.3014135  45.8192492
  71.6063738  50.6248093  21.0766268  72.1813679  50.1714277  20.4601383
  70.7612133  50.1851797  20.9835434  78.9467907  60.0559711  64.0948772
  78.0000448  60.0548697  64.2359543  79.2013884  59.1364145  64.1711760
  77.5819826  77.5629473  31.0029483  77.7598476  76.9228649  30.3138256
  78.4344435  77.7214241  31.4084530   4.4565772  67.5148726   4.2359644
   4.0922068  67.1963310   5.0617975   3.8524531  68.2030487   3.9572480
  81.1815262  29.8817110  32.7482319  80.9576416  29.0699482  32.2930980
  82.1182823  29.9957085  32.5878310  77.8261089  42.0292616  57.6828909
  77.7006960  41.4133596  58.4048128  78.7651443  41.9962025  57.5002480
  73.7996531  38.0719256   1.4699954  73.7211847  37.1615863   1.1847605
  72.9120541  38.3189368   1.7295799  63.0870724  55.9170914  55.0553179
  62.7604580  56.7159843  54.6414042  62.4211740  55.6950474  55.7060909
  10.0306033   1.8622215  16.6749489  10.6658839   1.1621591  16.5247083
   9.8757266   2.2353879  15.8071983  77.1735764  34.3764186  48.2290936
  76.2781620  34.2122054  47.9332972  77.4521542  35.1464224  47.7333879
  32.2566717  38.6200781   0.7210007  31.7393225  37.8467579   0.4961338
  32.7568596  38.8125344  -0.0720939  69.2348576  31.5536547  40.8046818
  68.3152914  31.6037107  41.0656738  69.7152853  31.4939141  41.6304255
  84.9381065  20.0074244  15.4291344  85.2263927  20.8579731  15.7603276
  84.0290451  20.1488876  15.1648986  70.8221054  40.5882788   8.7632018
  70.5946255  40.7064009   7.8409594  71.7727232  40.6968021   8.7912118
  45.4683733  71.9337273  29.5221996  44.6604300  71.6347361  29.9394035
  46.1395264  71.3293886  29.8393106  70.4755363   3.7219374  48.8733006
  71.1180362   3.3283370  48.2829571  70.5475912   4.6628230  48.7127590
  65.4642534  30.2699685  59.4140005  65.7730341  29.8060942  58.6357260
  66.2501335  30.6786180  59.7768068  59.1913843  25.1824975  27.9314899
  59.8344183  25.7185411  28.3955979  58.5012102  25.7975769  27.6833534
  56.5791502  24.8292229  66.1788965  56.4708701  25.0286219  67.1088133
  55.7835665  25.1667140  65.7673443  16.5898379   4.3732970  15.0794041
  17.2615155   4.4700091  15.7544839  15.7634266   4.5112174  15.5422807
  61.3759621  10.8968680  44.9044037  61.6749867  10.2994674  44.2188883
  61.1019333  11.6838687  44.4334698  77.9711771  58.3792353  24.5215464
  78.5126495  58.5747910  25.2862644  77.2221565  58.9698935  24.6010613
   0.6821631  61.0419846  56.8424845   1.4522170  60.7022715  57.2983885
   0.2395915  61.5868998  57.4931955  72.3924828  47.9493046  51.6650629
  72.6014757  48.2381630  50.7767391  73.1713390  47.4720907  51.9512081
  22.1773814  36.9251418  49.8994398  22.5209140  37.7451849  50.2540445
  21.8331717  36.4600396  50.6619549  79.8223457   0.9311049  10.3634787
  79.3366966   0.5950301   9.6101999  80.0466213   0.1512473  10.8711708
  63.7541819  74.3047714  26.1014080  63.5472155  74.7835112  25.2987862
  62.9217196  73.9158964  26.3697577  32.7438267  27.2161811  38.6661506
  32.2467240  27.9893344  38.3990288  33.5339268  27.5690406  39.0753651
  73.4543753  67.9200840  43.0911016  73.6217308  68.8416433  43.2884502
  73.6442089  67.8369570  42.1566057  80.9550381  43.4499502  65.8820009
  80.7441902  44.3788576  65.9763384  80.2804756  42.9985046  66.3893461
  70.9559593   2.2815268  34.1750169  70.1679954   1.8113940  34.4476390
  71.2418708   2.7460807  34.9615717  45.6065273  21.2957931  54.4830322
  45.5049372  21.9333839  55.1897049  44.7247219  20.9506869  54.3432140
  63.7012815  47.2318125  51.1038780  63.8719273  48.1575823  50.9305191
  64.3137741  47.0021200  51.8026781   3.7925585  36.1138194  63.5563421
   3.0737647  36.2644809  62.9424477   3.3622559  35.9805434  64.4009161
  22.2774218  66.3275290  16.2530184  23.1857585  66.5276909  16.4790571
  22.2397612  65.3712082  16.2369668  83.4047890  60.5413771  51.3890839
  84.0940571  61.0391331  50.9493446  82.5902176  60.9495926  51.0957146
  65.1817560  49.5546246  50.1594400  64.5494461  50.0462389  49.6352911
  65.9919977  49.5882177  49.6509027  -0.1753617  56.8259192  22.7556181
  -0.1368333  57.6368332  23.2627344   0.5307387  56.2867975  23.1119871
   1.6758688  52.5143971  24.3281594   1.8231209  52.0074871  25.1266518
   2.3578127  52.2164669  23.7261524  69.4977331  35.1631713  25.6721354
  70.1335907  35.8742857  25.5931997  69.4385052  34.9981928  26.6131496
  12.1644782  40.8380842   8.7652051  12.7652739  40.9892654   9.4948792
  11.7977427  39.9699640   8.9328378  54.4674492  51.8287516  22.3653316
  54.6813011  50.8969879  22.3172140  54.0284348  52.0168781  21.5358090
  59.2418289  75.9697962  32.2418499  59.9974489  76.0663700  31.6622424
  58.5260534  76.4024591  31.7763400  24.3651103  62.5666666   2.3199394
  24.6145533  63.4184551   2.6783502  23.7031459  62.7694941   1.6589552
  83.6079311  52.2212791  48.5675049  83.7498760  52.2775936  49.5124435
  82.7793598  51.7505455  48.4774065  73.6419964  25.2436423  53.3953285
  73.6386633  24.2865586  53.3807516  72.8802395  25.4938030  52.8724718
  29.6709632  79.2883682  57.8425932  30.1678943  79.6536922  57.1105909
  30.3198336  79.1671085  58.5357666  62.7141571  22.5103927  27.2343135
  63.5156298  22.2220349  27.6710296  63.0077076  23.1707835  26.6066647
  17.6436177  35.9665225  37.0275125  17.0155230  35.9424851  36.3056049
  17.5884238  35.0961802  37.4220905  51.1968994  66.1439228  39.1914248
  52.1441889  66.2741232  39.1475439  50.9437895  65.9225750  38.2952261
  27.8497790  65.0831079  32.3259974  27.1729659  64.7049952  31.7645884
  27.9245948  64.4699049  33.0571723  80.3606796  58.3043385  18.8325715
  81.2443161  58.0940008  18.5306072  79.9017572  58.5968256  18.0451262
  82.0124245  32.5448942  26.2431431  82.3477459  31.6556692  26.1288238
  82.5323200  33.0762839  25.6401753  37.4980593  68.7181807  29.8405337
  37.6272988  69.6334410  30.0891948  38.3758855  68.4016800  29.6272779
  57.5413465  75.2696609  10.8426130  57.8397655  75.8540297  11.5395272
  56.7014837  74.9333477  11.1552787  82.0552254  75.4111528  12.2853768
  82.7099800  75.6821108  12.9288936  81.2246037  75.7266617  12.6413953
  10.3952407  34.5741940  23.1610990   9.7467231  33.9949179  22.7609730
  11.0351466  33.9813638  23.5551929  25.8204442  63.3510856  65.1927171
  25.2927857  62.9612975  64.4956717  26.7224389  63.2746033  64.8815886
  45.3521824  65.5810452  45.8374548  45.8108568  66.4201498  45.7955313
  45.7098389  65.1511335  46.6142988  47.8268814  64.1474438  25.5050182
  47.5579119  64.8242950  24.8839188  47.0625067  63.5765934  25.5830574
  61.3112648   3.1679290  22.1134067  61.4469059   2.2271674  22.2265792
  62.1867569   3.5471289  22.1905494  73.3389568  19.6794450  45.5657005
  74.2154980  19.7701037  45.1919556  72.8176594  19.2920530  44.8625565
  10.9297751   7.2640795  32.9581523  10.1804351   7.1862155  32.3676825
  11.2794780   6.3751841  33.0198431  52.7894306  62.5436306  60.7191181
  52.7693748  63.1291294  59.9621344  53.3659649  62.9814529  61.3453388
  62.2261992   6.0104535  65.3727687  61.7400732   6.6085885  65.9403545
  61.6452399   5.8632205  64.6264217  18.4895610  55.6096649  23.6289024
  17.7400302  55.0851011  23.9104509  19.0880774  55.5923557  24.3757057
   9.4666159  76.8803978  35.8605695   9.5526952  76.0951757  35.3199744
   8.5326540  77.0883322  35.8339143  75.2426147  58.9840031  57.6568079
  74.3265963  59.2001867  57.4824333  75.6226397  59.7987843  57.9853582
   0.4289626  30.5351734  29.9725366   0.5592822  31.4640069  30.1636386
   0.2382373  30.5080128  29.0349245  78.0709553  47.5326252   0.4181008
  77.4980927  47.3974848   1.1729489  78.1323910  46.6705513   0.0066649
  65.1080179  61.6324282  26.2554789  65.7723236  61.4252710  26.9127560
  64.2790318  61.3901567  26.6681719  73.1898260  39.7660637  38.2980466
  72.4503565  39.1863775  38.1153250  73.1469107  40.4324675  37.6122642
  70.4729700  65.9371901  27.1426201  70.1949930  66.7135477  26.6565871
  69.7732067  65.3004217  26.9973993  12.4146166  32.5533173  67.5745282
  11.7653551  32.0203040  67.1156302  12.0190277  33.4236023  67.6229668
   0.7245444  66.6719723  51.5994596  -0.1224710  67.1079397  51.6929102
   0.5411242  65.7505131  51.7824984  70.3265276  16.8898556  66.4720947
  69.5148936  16.4670489  66.1915142  70.0954714  17.3343728  67.2877217
   2.4374865  26.9899774  19.6875751   2.5229930  26.1720204  19.1978121
   1.7904948  26.7964458  20.3659368  58.5253763  12.9509640  35.7390594
  58.4086180  12.0220554  35.5397391  57.7124596  13.2063770  36.1751366
  70.9571409  60.0308037   8.9671141  70.4308367  60.6557894   8.4684885
  70.5572128  60.0209713   9.8367065  35.3929146  23.2021945  21.1680984
  34.9047478  23.9792865  20.8959651  34.7714528  22.7020209  21.6970968
  17.7210425  58.1586456  18.3407319  17.4705123  57.3255491  17.9414630
  16.8916987  58.5558176  18.6065924  79.3540478  42.3764563  21.6515326
  79.7288799  42.8466225  20.9067655  80.0311565  42.4186611  22.3267889
  34.3676480   5.4185527  48.1591320  34.5329102   6.3293879  47.9155970
  34.6386918   4.9128192  47.3929787  72.9051828  49.2435360  34.1739058
  71.9690228  49.4419956  34.1950703  72.9708242  48.4555244  33.6344957
  38.7923240  63.1740236  43.1127262  38.5483931  64.0976906  43.1724882
  38.5182666  62.9102707  42.2343397   2.6232814  50.5034685  26.0693407
   3.5540866  50.3273106  26.2064290   2.2517680  49.6547174  25.8288455
  77.8279161  45.9340096  23.8160920  78.4478617  45.6710434  23.1358361
  78.1274414  46.8005419  24.0911078  27.6781788  13.1598971  62.7719912
  28.4266701  12.7361510  63.1920240  27.1294060  13.4527609  63.4995309
  63.5339698  27.8475707  54.0974426  63.0436120  27.9107611  53.2778168
  64.3910083  28.2217734  53.8932657  75.2544308  44.1034698  12.0908940
  76.1996984  44.1601372  12.2305167  75.0668669  44.7827291  11.4430809
  68.9319181  64.2850685  25.6539011  68.0971479  63.8546038  25.8385301
  68.7471676  64.8561144  24.9082446  18.0345829   5.6779521  26.0527182
  18.2235821   6.2751715  25.3289485  17.1757945   5.3111499  25.8425593
  67.0742178  43.1263971  25.2953982  67.1813345  42.3071671  24.8120546
  67.7288485  43.7142563  24.9184227  52.5158644  74.2082500  56.0147333
  53.4074354  74.5521641  56.0700464  52.2618961  74.3467665  55.1022959
  74.7981882  60.2024126  42.8860474  74.8373938  61.1429596  43.0594349
  75.3631353  60.0756216  42.1238232  18.2305773   2.3723834  24.9446917
  18.1458100   1.5211909  24.5151329  18.7666043   2.1979277  25.7183003
  23.8424205  63.5970783  28.4997439  23.7301921  63.2832384  29.3970418
  23.0060958  64.0096712  28.2839489  60.8471402  31.6903632  32.0138645
  60.0416573  31.6827529  31.4967918  60.8119114  30.8812182  32.5240302
   3.8803109  15.1366847  30.9730053   2.9973610  15.5060141  30.9879398
   4.4586905  15.8955710  31.0491061  61.5807819  45.7408667  25.2687335
  60.9809303  46.3132095  24.7903681  61.1542034  44.8840475  25.2577591
   4.4359397  42.2678518  12.9071820   4.3062018  42.2787714  11.9588792
   3.5572432  42.1491909  13.2677960  80.2175713  63.0993223  57.9113197
  80.1978207  63.9671040  57.5078392  80.5370522  62.5205469  57.2190905
  21.9043158  46.0237360  45.3710938  22.4912642  45.5108738  45.9266901
  22.4894999  46.5413618  44.8180532   2.0056819  42.7725029  14.7380853
   2.7093314  42.4914265  15.3229821   2.3462581  43.5608101  14.3152213
  69.3801546  48.4752846  39.7672343  68.6408186  47.9384518  40.0525713
  69.1908979  49.3472242  40.1138353  23.1094723  66.3272266  68.9435053
  24.0034180  66.3021998  68.6022114  22.9707318  67.2430973  69.1846792
  68.7512016  78.7887001  53.3552551  69.1951227  79.6179819  53.5326052
  68.8726902  78.2762718  54.1545582  20.8197306  76.3265800  16.4374352
  20.4784869  76.3598776  15.5437493  20.1127337  75.9336615  16.9492912
  12.3044394  65.7630205  41.8887234  11.9579696  65.3084564  41.1208916
  11.6559504  66.4410114  42.0785427  19.6921252  65.0981236  34.0171742
  19.6561335  65.6144428  34.8223782  19.6878623  64.1885996  34.3154669
   2.7541541  78.6692142  45.6741333   2.7829455  78.6734390  44.7173738
   2.5801467  77.7565861  45.9044886  76.9755316  79.1457462  23.4417605
  77.4948359  78.3452177  23.3662248  77.5857210  79.7949409  23.7916899
  28.7697401  76.0541073  14.5509779  29.0615454  76.9275922  14.8119462
  29.5092669  75.6899417  14.0644479   1.8463006  74.8797459   8.1808269
   2.0821610  74.8479224   7.2536868   1.2980166  74.1067166   8.3151567
  71.4047462  66.0680799  60.3837178  70.7996399  66.1811738  59.6507177
  70.9257204  65.5228476  61.0078082  50.3011942   0.3207345  22.2330618
  49.7253370   0.6771258  22.9095292  49.9964714   0.7260475  21.4212155
  42.7783051  80.0184746  44.8371983  42.5908318  79.6372833  43.9794207
  43.4383669  79.4390308  45.2177143   3.2172385  59.1974241  18.2509398
   3.9546957  59.7504885  18.5088313   3.5516825  58.3034355  18.3228052
  34.6477976  75.8484528  10.4889703  35.1646843  75.2138729   9.9926150
  34.3426886  76.4746965   9.8324937  39.4774413   3.2328573   4.1770342
  40.2615547   3.4336314   3.6660674  39.0016484   4.0622413   4.2214659
   2.3003250   1.6876861  16.8770778   1.9972554   2.4714944  17.3353636
   2.1820340   1.8918467  15.9494162  22.9546309  20.9622431  11.7185485
  23.0209303  21.1624575  12.6522243  22.5817490  20.0811720  11.6884148
  10.6187048  61.6856594  46.4919710  10.9460249  60.8048875  46.6745472
  10.9503379  61.8878491  45.6171179  74.6859789  10.3265190   6.6505843
  75.3613663   9.6497476   6.6051221  74.7764778  10.8107221   5.8298594
  56.3504887  14.4058657  24.3316221  55.9309530  15.0937200  23.8148236
  56.4581013  14.7914529  25.2010894  18.0569115  51.8560750  59.6705341
  18.6084118  51.5005047  58.9736462  17.4816933  52.4790747  59.2264271
  59.2810440   7.4989408  22.5922656  59.7599459   8.2672441  22.9030561
  59.6093559   7.3549139  21.7047405  77.5697184  29.7712278  25.0267172
  78.2908726  29.7441864  24.3978786  76.8869400  29.2290831  24.6315956
  46.6845789  76.3407812  43.0409431  47.3309031  75.8599908  43.5579920
  47.1972266  76.7704091  42.3562193  73.1601173  76.2208276  62.9812834
  74.0332348  75.8828144  63.1804100  73.2796461  76.7389493  62.1853599
  15.0045395  31.3748002  38.6030817  14.3411827  31.7418528  39.1874290
  14.8734832  31.8340158  37.7735162  62.2278214  24.6590161  16.3129878
  62.0777988  25.5555320  16.6129673  62.6633883  24.7593999  15.4665613
  41.0782003  26.6559553  45.5141926  41.0009193  27.6100302  45.5139923
  41.9392395  26.4854813  45.8960056  56.6372013  32.2498655   2.6855773
  57.4643040  31.8946648   3.0111033  56.4748144  31.7718720   1.8723211
  18.9499724   3.8800538  32.6695585  19.6634042   3.4227142  32.2244883
  18.8608027   4.7056210  32.1934080  50.9257936  20.4852581  23.9390731
  50.0473738  20.3910851  23.5706329  51.1990595  19.5898712  24.1386676
  64.8094416  27.4649167  22.6090789  65.1847458  26.5936184  22.7364254
  64.5712805  27.4900007  21.6823196  32.2518340  65.7230897  42.8037310
  31.6301909  65.0391609  42.5546598  32.7842465  65.3238232  43.4917402
  57.6610041  25.5727983   5.3950846  57.1407127  25.7243061   6.1841178
  58.5667944  25.6993032   5.6775177  37.5716105  64.3354077  14.1059744
  37.0028105  63.7094361  13.6578059  38.4552565  64.1029257  13.8207436
  35.4436627  71.2625224  27.7091479  34.7713032  71.0380966  28.3524203
  35.0291052  71.0982866  26.8621516  22.4228278  73.6253823   9.4154894
  22.6463118  74.0020383  10.2666163  23.2656994  73.3827139   9.0322006
  55.8804369  29.9402881  26.6210914  56.0559559  30.6096959  27.2823930
  55.0021076  29.6220613  26.8296599  52.8527117  39.3485117  25.2872252
  52.6028299  39.0827131  24.4022727  53.6238527  39.9016786  25.1623988
  50.7391650  70.7035904  63.3538136  50.1760704  69.9714451  63.1025800
  51.5100557  70.6162195  62.7931646  24.1300963  49.5514488  26.7781949
  24.6310424  49.8759365  27.5265241  23.2581710  49.9298000  26.8914485
  79.4081783   3.2529828  11.8445992  79.5253849   2.5692412  11.1850595
  79.0112019   2.8016585  12.5895476  35.7114410  35.9870625  22.7554989
  36.5721798  36.1004543  23.1586170  35.6819081  36.6481471  22.0638871
  74.5105982  28.2570601  34.1934991  74.7916317  28.6862969  33.3854079
  74.9576855  27.4107528  34.1831517  62.1874514  58.2728274  19.9515688
  61.7804804  58.8436086  20.6033516  62.9524889  58.7621195  19.6490192
  45.8840838  76.3477213  13.4612298  45.5709257  77.2346208  13.6389232
  45.7523957  75.8777518  14.2846489  68.1243983  67.9111678   9.2647862
  67.4316111  68.5098929   9.5437217  68.9274779  68.4282202   9.3276411
  69.5441467  42.8135349  46.6762481  68.6465246  42.8443725  46.3452635
  69.8248846  41.9112702  46.5234885  13.5658454   1.5017888  17.6845872
  13.9974021   2.3113956  17.4115944  13.3998870   1.0315707  16.8675280
  55.5342570   2.9677079  69.2755430  55.2598181   2.0618079  69.1332074
  54.8037806   3.3679745  69.7471575  57.3410628  78.0782544  64.5122496
  57.9207060  78.8246810  64.3602702  57.7653429  77.3494374  64.0594289
  84.0298111  25.4929166  62.7991054  84.7141058  25.6267063  63.4549013
  84.2453796  26.1089306  62.0988998  57.8721428  39.8249102  20.0960302
  57.6341057  40.2237511  20.9329867  58.6930990  39.3661022  20.2742338
  55.4202366   7.8256094  41.6122913  54.7564220   7.9280108  42.2942734
  56.2405491   8.0766928  42.0368767  65.5836019  14.4205420  20.1715016
  65.5976257  15.2793544  20.5939674  66.2010488  14.5011275  19.4445229
  65.5947638  59.7349310  36.5755725  66.0619354  60.5444431  36.7821455
  66.2867355  59.0932369  36.4154863   4.0196132  12.7902961  39.7967935
   4.1905307  12.4580562  38.9155245   3.9814662  12.0065641  40.3450108
  81.3949490  43.1120205   7.7287781  81.4815903  42.3321581   8.2769990
  82.2594833  43.2241869   7.3335254  50.1649895  78.8139459  42.6969147
  49.6939078  78.1642468  42.1751833  51.0362664  78.4368944  42.8191757
  79.2587614  12.6269913   8.9037204  78.6407661  13.1705666   9.3924332
  80.0592136  12.6435876   9.4283485  82.0448780   5.1375538   0.3277638
  81.6211796   5.4644597  -0.4658639  81.3226795   4.9702919   0.9333072
  60.4784775  33.0456710   6.2181288  61.2339449  32.7896762   5.6890154
  60.7612562  32.9073763   7.1220875  82.0659065   8.8517302  26.1655474
  81.2522793   8.3662659  26.3018298  81.9695091   9.2416281  25.2966857
  51.2493658   3.5353547  16.4345765  51.6261244   2.7070785  16.1375165
  51.0458469   4.0088591  15.6279743  53.0173293  60.2961571  50.5413961
  52.9920187  60.8108217  49.7347260  52.9387751  60.9441609  51.2415028
  43.9851084  62.8578300   1.6930406  43.2448712  63.2900960   1.2670967
  43.7718859  62.8815372   2.6258898  22.5014019  38.6408710   4.0105832
  22.5746799  39.4728613   3.5429776  22.3261356  38.8906598   4.9178421
  68.3094549  23.3334613  50.4063654  67.9397488  22.6790309  49.8136854
  68.7532949  23.9553022  49.8296976  19.8008943  21.9192910   1.4460772
  20.3902936  21.8528605   0.6947942  19.2973137  22.7173424   1.2855974
  46.6998625  21.8743539  39.1596913  47.2701597  21.2001920  39.5291519
  46.3581133  22.3427153  39.9213171  82.6108742   2.6783279  28.8104963
  81.8413925   2.1704391  29.0677357  83.1607628   2.0557171  28.3348751
  54.3390656  28.3261156  23.2495809  53.6166763  28.9239550  23.0572987
  54.9724197  28.4826636  22.5491619  20.3620472  72.5364060  36.1189270
  19.7902003  73.0991078  36.6410232  20.3267470  72.9100997  35.2383924
  71.9861269  18.8234234  43.4949541  71.3758469  19.3906116  43.0236959
  71.7490101  17.9371798  43.2218599  60.2099609  48.9558887  30.3326488
  60.1930952  49.5930099  31.0468054  60.0427294  48.1148481  30.7579970
  51.3655806  24.5795250  32.0952439  51.1926270  25.4150105  31.6613293
  51.6563988  23.9997363  31.3913226   8.2977589  73.2606747  11.4961758
   8.8223799  72.4767854  11.3333168   7.7142628  73.3197954  10.7396927
  77.0347404  15.5025184  20.9300685  77.2437096  14.7853398  20.3315568
  76.2025356  15.8486533  20.6077933  44.6620846  25.4154158  26.7509103
  44.3671703  26.1411357  27.3009920  43.8971663  24.8447490  26.6769218
  40.0639248   6.3136399  10.0737846  39.7511292   7.0949280  10.5298352
  39.5594883   6.2929446   9.2605513  42.9391566  69.7545571  23.7607408
  42.8038350  69.9462945  24.6887255  42.1562662  69.2695934  23.4997249
  79.1129637  13.2613945  26.4421654  79.7182512  12.8642488  27.0683694
  79.0388870  14.1726637  26.7255950  57.2078705  15.9840679   4.9513054
  58.1312799  15.7358658   4.9072251  57.0515871  16.4701223   4.1416395
  12.4308052  56.5723974  30.0586128  11.9719687  57.3173935  30.4467916
  12.2255793  55.8372719  30.6362844  78.7027025   5.6502205  14.4266987
  77.9864454   5.0155234  14.4075286  78.3928776   6.3434672  15.0094938
  50.3999901  32.6662254   7.1861345  49.7302961  33.3497477   7.1628588
  51.0939598  33.0294800   7.7363020  19.2786597  24.4064164   9.8500597
  19.8839759  24.5500255   9.1225964  19.7511290  23.8220978  10.4429984
  55.3286743   5.3743178   3.2884172  55.4441500   4.6204239   2.7100211
  56.2196016   5.6622857   3.4873152  85.4775906  54.2456198  40.2728415
  85.0607491  53.3865499  40.2059698  85.4540730  54.4511461  41.2074232
  54.1022825  22.4692702  18.5294354  55.0089073  22.6346469  18.2707536
  53.8433409  23.2551813  19.0106082  21.2562600  64.5301039  29.0034723
  20.5098715  64.1275413  29.4474125  21.0208407  64.5131011  28.0758309
  19.5009517  23.3413124  41.5082741  19.1101645  24.1422415  41.8575954
  19.8766898  23.6047745  40.6682491  36.0218945  66.8504483  33.3366990
  35.4214182  67.0384104  32.6153612  36.8751135  66.7431183  32.9162979
  14.4776144  71.0208149  18.5449374  13.9090577  71.3302661  17.8398025
  14.4106474  70.0667793  18.5053825  53.9755106  44.0401888  30.7038116
  53.4358072  43.2501793  30.6748390  54.4490337  43.9764738  31.5332389
  50.0980473  10.7716680   6.1605638  50.2027273   9.9372697   5.7033402
  50.4355145  11.4247179   5.5474812  50.3137636   7.9541123  40.6804800
  49.4004440   8.0518949  40.9497595  50.8088827   8.4602928  41.3245869
  53.3023539  76.2670214  45.5799818  53.6388770  77.0890532  45.2232552
  53.9890757  75.6265158  45.3945065  64.0730000   5.5879194   9.0958899
  63.1789732   5.8701527   9.2890155  64.2636633   5.9667593   8.2377762
  71.3756180  26.8644118  20.3212285  71.5347528  26.4307356  21.1595798
  70.8722782  26.2276268  19.8138976  75.5852938   1.2836520  32.6603794
  75.5791569   0.9258687  31.7725825  74.6676922   1.2655821  32.9322433
  60.6287909  60.0014687  24.9120235  60.0110579  59.4485044  25.3904319
  60.0989056  60.7320023  24.5929956  73.7680275  11.2206416  49.8084805
  73.0939657  10.6486206  49.4415126  74.3027288  11.4740376  49.0560732
  63.9485064  70.9030689  24.4702911  63.5260954  70.0720758  24.2529058
  64.8858252  70.7142521  24.4253850   8.9147471  31.0331082  31.8723321
   7.9723929  30.8652735  31.8664241   9.1973971  30.8435774  30.9776711
  49.9235201  -0.1012355  26.6212273  49.8758364   0.0515565  25.6775045
  50.7715082   0.2597427  26.8797588  54.4725123  64.6926923  14.3709314
  53.9077845  64.0750904  14.8355639  54.4409075  65.4902620  14.8992443
  60.8067369  24.4522643  45.7107687  61.4415741  23.7594366  45.8929968
  61.1476564  24.8904657  44.9310350  22.3243981  45.4844485  65.9721864
  22.4299651  45.6280999  66.9126395  21.3936168  45.2898453  65.8626154
  43.4070587   6.8332201  32.8034973  43.3945274   6.0049456  32.3238778
  43.1922436   6.5915662  33.7044358  15.3339329  65.3228826  24.2012691
  14.7949019  64.5589227  24.4063187  14.7031823  66.0123343  23.9938021
  52.9999638  58.2589340  36.9649172  52.7280712  58.1792927  37.8792262
  52.2769117  57.8787518  36.4660335  66.6673174  75.5671353  12.8355253
  67.5437918  75.9512676  12.8568280  66.0770693  76.3194598  12.7924514
  46.4382362  20.9489584  42.6401901  47.1430731  21.5932679  42.7058077
  46.2882137  20.6654096  43.5420370  59.0040970   4.5268208  11.0954654
  59.1883421   4.2836684  10.1881826  58.0681038   4.3579656  11.2033319
  38.1925478  71.4560063  28.0599451  37.2479430  71.3241375  28.1409454
  38.3365670  71.5872765  27.1227908  37.7723065  62.6797015  20.3040934
  38.2067862  63.5317332  20.2653575  36.9800702  62.7907164  19.7784805
  54.6066093   7.6590061  23.9348149  55.1669502   7.9946274  23.2350945
  53.7164354   7.8601152  23.6460686  57.3707628  23.9723229   0.6602992
  56.5376377  24.2501998   0.2796129  57.2610378  24.1077399   1.6014980
  67.5109768  14.7122836  42.3777676  68.1968880  15.3276110  42.6368523
  66.8522882  15.2559328  41.9455528  67.2856951  33.3913445  35.3116798
  67.7216387  34.1924167  35.6023216  67.3854256  33.3962750  34.3597031
  78.8249254  46.6459656  18.7470865  78.6251020  47.2149181  18.0037177
  77.9936743  46.2173367  18.9508772  39.2550755   1.0756058   6.1079657
  39.2869544   1.3598488   7.0214325  39.4549108   1.8647635   5.6044507
  68.9346457  47.0993471   9.5393860  68.9325619  47.3324728   8.6110115
  69.7776222  47.4160099   9.8639607  66.7027235  25.6265688  19.5378900
  65.9066677  26.0812330  19.8132265  66.7331934  25.7501912  18.5891962
   5.7604884   2.8719205  45.7775021   4.9929332   2.8966472  46.3488865
   5.4391002   2.4892348  44.9611092   3.8992213  36.3829350  19.1209733
   4.0761947  35.6169772  18.5748792   4.2020511  37.1251607  18.5978806
  17.1305060  16.1605632   1.7629610  17.3248708  17.0484519   2.0631406
  17.8453934  15.6279969   2.1115890  50.2415696  29.6459792  64.8473815
  49.7684756  28.8138697  64.8506633  51.1434737  29.4078705  64.6326712
  20.7709446  48.7003643  25.8914232  20.3880873  48.7100537  25.0141788
  20.3498927  49.4308359  26.3445902  46.6638899  69.9902201  32.8583002
  46.9335699  69.7932053  31.9612551  47.4754572  70.2313232  33.3049059
  31.4848128  57.0842511  35.8544445  32.2030726  56.8212611  36.4299178
  30.8897772  56.3344748  35.8560920  15.2871790  39.5133311  11.4872670
  15.0859871  38.5790736  11.5412962  15.3346291  39.6942193  10.5485117
  40.0012952  22.4907284  58.2070300  39.4094640  21.9983320  57.6382420
  39.7066670  23.3982782  58.1309960  40.5850506  37.1609163  14.0531301
  39.6751618  36.9495893  14.2621160  41.0376501  37.1306181  14.8960221
  48.7909585  61.5990000  66.4392028  49.1012841  62.3237400  65.8963597
  48.9738065  61.8766861  67.3368034  62.0393944  21.9075990   6.2051749
  61.3470125  22.4696445   5.8573991  61.6916800  21.5860629   7.0370066
  77.1406078   0.1560883  57.4327660  77.3293543  -0.4136734  58.1784058
  77.7729940   0.8703683  57.5110197  27.7724981  17.8064537  24.8809290
  27.5949788  17.1563745  25.5607200  28.2170486  17.3152578  24.1900373
  83.9421082  25.9649682   1.3743833  84.8782063  26.0590935   1.1980450
  83.6801720  25.1933599   0.8721448  16.0602164   8.6716831  14.5659554
  15.5226433   9.4430816  14.3865335  16.9373941   8.9173967  14.2719924
  64.5208454  60.8846807  23.7172675  65.4157877  60.5494642  23.6630583
  64.4132423  61.1328459  24.6354532  77.0524216  14.8895013   6.8807024
  77.2694683  13.9739716   6.7048472  76.4498711  15.1321125   6.1776310
  17.3010379  77.4997644  63.3600518  16.3963252  77.2082977  63.2470116
  17.8300219  76.7633013  63.0534074  71.2466908  12.4871290  17.9428136
  72.0957613  12.0520401  18.0203199  70.6089020  11.8091989  18.1661248
   0.1373130  50.3154378  67.9455029  -0.1939649  49.4561820  68.2065921
   0.9620267  50.4091565  68.4222608  36.8922329   1.1723323  28.1357288
  37.4768209   1.7142782  27.6058388  36.0549784   1.6359614  28.1188846
  77.6797468  45.2901904  51.5685353  78.2021982  44.4886489  51.5969417
  77.5671465  45.4697381  50.6350920  53.0923930  78.8321305  61.1668444
  53.2966128  78.0305863  61.6485643  52.2437086  79.1093431  61.5119743
  18.9755725  60.9672928  16.9896054  18.4741782  60.2643204  17.4027240
  19.4106101  61.4110041  17.7176797  62.4302244  55.7990885  23.6513758
  62.1042681  55.9955597  22.7730942  62.8353310  56.6152477  23.9446378
  41.3896036  16.0667455   8.0236578  41.2732220  16.3346612   7.1121162
  40.5403185  15.7054043   8.2773942   5.8883952   6.9805270  15.7566059
   6.1844252   6.7523539  14.8753929   6.6939353   7.1651828  16.2395632
  73.5403624  61.0158689  38.1132221  74.4576826  60.8533258  37.8933859
  73.1700125  60.1446564  38.2548690  54.1711855   5.8057719  61.9092321
  54.7571611   5.5573320  62.6241779  54.4321060   6.6990387  61.6851187
  83.3733503  80.4984503  27.9505968  83.6182610  79.5950659  27.7502298
  83.1022326  80.4751848  28.8683033  50.0821352  26.7994666  12.3996747
  49.5492029  26.1247969  11.9789195  50.1245737  27.5069666  11.7563438
  59.7290850   7.3273790  11.7470503  58.9737082   7.6362890  11.2468362
  59.6505308   6.3734847  11.7349172  14.7379771  79.0659002  23.8375330
  15.2094212  78.5908436  23.1532121  13.9198914  79.3367973  23.4208965
   6.9512287  76.2771762  10.4961789   7.4206057  76.9823034  10.0504076
   7.3726359  75.4755712  10.1862144  69.9994898  14.6030009  12.3037636
  70.6093740  15.3276539  12.1653795  70.3438568  14.1429925  13.0692935
  67.9083538   1.6598070  37.8164268  67.0075178   1.8119867  37.5308347
  68.3538914   1.3278946  37.0369625  30.5950093   0.7710749   2.5345838
  31.5327883   0.9255403   2.4208210  30.2455640   1.6163033   2.8169140
   5.0709024  49.1205699  35.1628613   4.5921650  48.4118898  35.5927587
   4.8462406  49.9021251  35.6677675  21.6679087  16.2732813  68.6382610
  20.8948794  16.5131114  69.1492859  22.2605219  15.8724711  69.2741792
  57.4168348  13.1264985  40.6617212  57.0756912  13.6566687  41.3819790
  58.2658625  12.8147113  40.9750509  65.9409506  23.1502347  66.6994563
  66.3858325  23.6930887  67.3503186  66.6390330  22.8593080  66.1127058
  44.9967957  14.3637776   9.5892596  44.1764927  13.8767481   9.6675986
  45.4786253  14.1515541  10.3886557  53.0379677  32.2479892  12.7514923
  53.6439562  32.7122617  13.3289504  52.9468632  31.3811135  13.1470418
  33.6194992  15.7805276  45.5470896  34.0956998  15.1223290  46.0532951
  33.2217789  16.3485599  46.2069321  47.7356625  13.9497733  22.6363611
  47.3899364  13.3189702  23.2678604  48.5030842  13.5174751  22.2616410
  64.3304825  12.8233433  44.1864252  64.1986513  12.5550008  45.0957346
  65.1504707  12.4020290  43.9288473  67.2986984  37.3259497  52.4031544
  67.8687048  38.0528450  52.1522570  67.6986170  36.5568423  51.9972324
  20.9641200  26.8402164  47.1224079  20.0965005  27.2368459  47.0439825
  20.7897692  25.9170251  47.3055801  55.7660055  33.8682246  30.4727864
  56.1134768  33.5661292  31.3119721  56.5424061  34.0396285  29.9398184
   9.5109176  19.9997294   0.6211044  10.2993201  20.5136156   0.7959481
   9.8320674  19.2072451   0.1909176   8.3035849   6.8186063   3.8911507
   7.8963279   7.4346942   3.2822061   7.5906466   6.2377435   4.1567633
  11.5569590  18.3543098  35.7125115  11.9193553  17.4728811  35.8018470
  12.3084353  18.8998508  35.4803491  81.0926151  36.4292288  12.7127981
  80.4884434  35.7206678  12.9345071  81.7428017  36.4181757  13.4152007
  68.5325613  60.5703981   1.2610847  69.1181364  61.0002691   0.6377517
  69.0346709  60.5335886   2.0751894  62.0364523  21.6318130   9.1438150
  61.4112329  21.5902352   9.8674178  62.8823376  21.4356232   9.5465857
   8.3683394  27.0661020  41.8757105   8.0770205  26.5376377  42.6187420
   8.7231158  27.8618169  42.2721958  28.6172753  54.3017940  61.6410014
  28.9698106  55.1898079  61.6991577  28.7025529  54.0703373  60.7161293
  64.9471712  31.2068224   3.8386756  64.5699549  30.3990865   4.1872427
  65.4483843  30.9261680   3.0730045  75.4435110  62.0024633  31.5160298
  75.2637100  62.4274492  32.3546529  74.9715519  62.5318432  30.8731890
  22.4592303   6.9960827  26.0337901  23.2504557   6.7691326  25.5452299
  21.9998549   6.1638075  26.1457086  81.6760445  13.7855732  21.8653774
  81.0006237  13.3108103  22.3497653  81.9514847  13.1770778  21.1797404
  56.9219780  54.6721649  24.4567823  57.1510410  55.4918289  24.0186977
  57.5214577  54.0257072  24.0840220  65.8448935  21.2421608  19.5084417
  65.3654575  21.7785072  20.1398706  66.1021137  21.8552876  18.8198602
  64.7079897  33.5804677   7.4619353  64.4648457  32.6806617   7.2440785
  65.6423140  33.6316037   7.2603106  77.5774717  34.1590881   7.5212246
  77.5756407  35.1132989   7.4456584  77.2409487  33.9878368   8.4008026
  21.5073012  24.6599245  26.2538791  22.2048377  24.5552444  25.6067991
  20.9941195  23.8548350  26.1852312  12.6195525  14.3293691  18.1103730
  13.1522273  14.3406546  18.9055896  13.0887698  14.8978400  17.4997079
   2.3913955  55.8512926  11.5216219   2.6654147  56.7649031  11.4412713
   2.3075103  55.7084274  12.4643755  21.1209708  75.1035719  68.5610279
  20.4854756  74.6361785  69.1031705  21.9712525  74.8698764  68.9333710
  26.6765767  46.5698741  48.1410346  25.9599763  45.9743695  48.3603225
  26.7220288  46.5481709  47.1851597  40.2313977  73.5907917  59.1002807
  41.0652715  73.3534794  59.5059500  39.8104745  72.7524452  58.9099428
  51.8225241  20.8120084  19.0778589  52.2679281  20.0740600  18.6615908
  52.5191545  21.4449859  19.2518711  58.2743866  73.3001141  50.0235340
  59.2054684  73.1429295  50.1804123  57.8513367  73.0814414  50.8538613
  34.9999427  13.9647818  39.3505049  34.7620772  13.0585968  39.1543341
  35.9310531  14.0199161  39.1355014  79.9241686  53.0317593  42.2651958
  79.7982788  53.6463118  42.9881811  79.3045998  52.3238564  42.4419403
  51.1345768  35.6624961  14.3611944  50.7638788  36.2522912  15.0176668
  50.5194235  34.9301553  14.3225527  81.1602020  38.4916306  22.1096396
  81.7261791  39.2290020  22.3380780  81.3265228  37.8415728  22.7922773
  45.7675600   1.6104122  16.3044727  46.2238646   0.8724009  15.9002960
  45.0408459   1.2102462  16.7819524  69.0067101  29.3481493  36.5756345
  69.8120928  29.8516965  36.6940761  68.6259174  29.2957091  37.4522614
  31.2640571  41.0772896   1.6171391  31.7070388  40.3443193   1.1896528
  31.6974162  41.1563587   2.4669497  14.2152053  71.7510442  58.5848460
  13.8751918  71.6735058  59.4762561  14.3723708  70.8480100  58.3090565
  60.3702736  27.6524353  19.7180140  60.4455566  27.9199743  20.6339765
  59.4296789  27.5456381  19.5762193  11.0771083   9.2318130  16.1985540
  10.8207511   9.8653030  15.5283284  10.7395934   9.5981193  17.0159471
  47.1482277  34.3949747  20.3068733  46.9461393  35.3150105  20.1368046
  47.3935556  34.0416098  19.4517827  84.1494942  34.3599701   1.3706090
  83.8008785  35.2222371   1.5968755  84.2579651  33.9170980   2.2122309
  68.6644077  35.6804824  35.8135414  69.1492605  35.8361530  36.6240454
  68.8954878  36.4193106  35.2505422  53.1258574  26.2605307  68.9988393
  52.3273554  26.7623208  68.8350377  53.1315890  25.5898449  68.3159194
  72.3030233  49.3709564  58.1782866  71.3906240  49.6083593  58.0127621
  72.5985432  48.9708233  57.3604870  30.2997541  28.2481432  10.8702445
  29.4693542  28.6811996  10.6724358  30.4670358  28.4590840  11.7888045
  31.8368052  29.0865350  26.3442564  31.2277793  28.6736798  26.9565248
  31.5672492  28.7640810  25.4842567   5.0617009  32.7094148  61.2884030
   4.7832280  32.5929628  62.1967671   5.0112706  33.6539523  61.1416439
  11.1660367  25.2383761  59.1972706  10.5224448  25.4080085  58.5093412
  10.7429677  25.5407505  60.0008956  69.6880817  19.8678327  21.4410615
  69.2290211  20.5679798  21.9050527  69.0140200  19.4574058  20.8993769
  70.2266836   3.5057169  37.9165673  70.7002592   2.9615134  38.5456920
  69.5052147   2.9526544  37.6168346  61.4893237  77.6228119  23.4003162
  62.1203413  78.1689888  23.8690805  61.4724436  76.8012414  23.8912034
  47.7747393  51.8140984  29.1227317  48.1321001  51.6188192  28.2564807
  48.2204580  52.6179075  29.3900585  81.4457989  32.6011992  14.9710333
  82.0334053  31.9433689  15.3428030  80.7362556  32.0934415  14.5773959
  62.6891327  48.3852673  21.5131402  62.8473616  48.6702394  20.6131458
  61.8300915  47.9640818  21.4834857  84.5703125  62.3672581  13.0011368
  84.5030117  62.5271797  12.0597923  83.6979103  62.5665474  13.3409059
  79.0002489  28.0216742  11.4563560  78.9144230  28.3163404  10.5496943
  79.4576025  28.7369752  11.8983996  79.9489069  37.9631233   3.7582052
  80.7975864  38.3694863   3.9338478  80.0240707  37.6281905   2.8646708
   6.9865416  24.8877239  55.5553293   6.3819312  25.5543971  55.8812475
   6.4205359  24.1726017  55.2646923  58.3582067  58.6436987  37.6656151
  57.5820351  58.8155985  37.1324682  58.5426188  57.7146292  37.5275970
  18.9587497  38.1240511   2.1755201  19.8368167  38.0878091   1.7961441
  18.7873458  39.0583134   2.2938575  59.1806841  17.2841144  29.0932584
  59.3215466  18.2110012  29.2863083  59.6905184  17.1247184  28.2989717
  42.3570251   6.9426662  18.0734217  41.9800091   6.7042089  17.2265279
  42.4799156   6.1074555  18.5245895  53.1140041  29.9500489  26.2998581
  52.7357864  29.4758034  25.5594039  52.7407408  29.5252991  27.0721865
  13.0733996  74.3317704  64.4702033  12.5221282  75.1140480  64.4509033
  12.4747639  73.6226325  64.7047100  71.1322784   8.2764894  28.6801720
  72.0766211   8.4323263  28.6671591  70.7888317   8.8278592  27.9771304
  75.6627178  17.0490956  25.0639725  75.3565645  16.1626530  24.8723435
  74.9191284  17.6114428  24.8470163  30.6830168   3.6427581  13.5077310
  30.9229922   2.7402386  13.2977259  31.0841584   4.1650733  12.8131056
  35.4769688  60.1606886  52.6945708  35.1742440  60.8885507  52.1516082
  34.8165112  59.4789331  52.5711152  64.7800436   3.4690545  64.6369931
  64.7494212   3.2759163  65.5740047  64.0265265   3.0050919  64.2720625
  78.0500681  80.0879268  68.4209322  78.8649208  79.7535758  68.7957073
  77.6925165  79.3495159  67.9278416  72.4924660  53.6840343  13.8912690
  72.2204828  53.2772923  14.7139585  72.2702360  53.0387592  13.2201004
  78.5956621   0.7140015   7.8709620  78.3537436   0.0345206   7.2416675
  77.8123951   1.2587610   7.9481834  58.8205576  36.5661979  34.4518304
  59.0155125  35.6750107  34.1619873  57.9585505  36.7554212  34.0811872
  55.7556725  33.2293844   8.9617819  56.6366816  32.9592919   8.7027228
  55.8597803  33.5631132   9.8528588  61.9320726  23.9782214  29.7477913
  62.2443533  24.3120980  28.9068174  61.9112110  23.0278754  29.6353626
  21.2453650  52.4955606  18.6875427  20.9914302  51.8141079  19.3099356
  21.9363879  52.9835463  19.1354108   5.0630759  43.9977980  40.4043245
   5.3699683  43.0911684  40.4127455   4.5974730  44.1007710  41.2342882
  48.6470738  44.8552249  68.3956208  49.4637814  44.5942328  67.9700607
  48.1124964  44.0612052  68.3953849  48.5227013  13.8173866  13.9965737
  48.2093859  13.9045179  14.8968363  49.3785858  13.3970761  14.0804625
  37.3869132  25.5785680  24.8413801  37.1758460  24.8658490  25.4444647
  37.5254058  26.3380599  25.4072642  11.1198615  37.5125718   9.9627876
  10.2856444  37.2795701   9.5553207  11.3082503  36.7851257  10.5557156
   3.0378180  76.0638623  41.9375810   3.7579375  76.0712676  42.5681410
   2.4628955  75.3603463  42.2388444  28.5468005  15.4219484  32.1060300
  29.1318225  16.1151350  31.8002915  28.7709903  15.3094411  33.0297804
  44.0840521  70.4278917  33.6516595  44.9928990  70.2759785  33.3925128
  43.8917675  71.3133032  33.3429432  54.9379301  44.9455023  24.1452432
  54.2284584  45.1459885  23.5347629  54.5005798  44.8174381  24.9869990
  29.4596749  50.9171240  50.6337247  29.9396115  51.4499526  51.2677452
  29.2870217  50.0954418  51.0933575  39.4496527   0.8189271  43.5562596
  38.8510647   0.8370612  42.8095374  39.0690031   0.1743195  44.1527662
  18.8412934  44.3823262  62.2366718  18.3181363  43.7533127  62.7335462
  18.8451129  45.1715083  62.7783439  55.0017262  19.1765285  17.3600638
  55.5871582  18.4821534  17.0578396  55.5815649  19.8145950  17.7758586
  83.9066631  74.8473196  44.8795829  83.5010845  74.5499735  45.6940303
  83.3654434  75.5848388  44.5978365  63.8137236  21.5070078  65.9216565
  63.5667506  20.7376549  66.4348105  64.4940653  21.9339011  66.4423564
  18.4225979  25.7911465  65.3922886  19.1897908  26.0207865  64.8679671
  18.0635682  26.6329310  65.6728807  27.1438103  76.4801173  52.6415536
  26.3334161  76.5621905  52.1388147  27.2159653  77.3080735  53.1164381
   3.1583880  27.7089024  26.2368751   3.1677054  28.3452082  26.9518971
   2.3727607  27.9247189  25.7344270  11.0719775  34.9704528  41.2684774
  10.8793067  35.8986378  41.1358595  11.4388846  34.9257684  42.1514320
  83.6112213  43.1860876  32.1341491  83.0548286  42.4845409  31.7957926
  84.4352627  43.0895567  31.6567898  83.7011623  33.8656688  11.6875362
  82.9304218  33.2980824  11.6809165  83.5283184  34.5122743  11.0032415
   5.5114354  10.2137063  66.6827757   5.4889192  10.5640099  65.7922626
   4.8035325   9.5697949  66.7048240  61.8409395  14.0456164  14.9573863
  61.0119820  14.3126750  14.5602238  61.6951990  13.1395853  15.2295971
  35.9801465  43.3079459  69.5363632  35.4585820  42.9734741  68.8067523
  35.5468732  42.9645236  70.3177490  52.0460883  64.3362505  58.6915064
  51.4161816  63.7744803  58.2399940  52.5463858  64.7491271  57.9876089
  56.9838667  20.3882146  19.0753901  56.7610693  20.9101915  19.8461902
  57.6181841  19.7468674  19.3956196   6.3497430  46.1983310  46.8574176
   5.9516602  45.8562921  47.6578984   5.9098464  47.0355825  46.7100010
  17.6190375  33.7607050  13.2169271  16.9478701  33.5879946  13.8771820
  17.1334647  34.0990543  12.4646115   1.3487719   6.3302815  40.0616741
   0.7484244   7.0303059  40.3181648   1.0954284   6.1143392  39.1642213
  13.0152415  48.8310814  26.8245602  13.5427665  48.3648586  26.1760426
  12.3906134  49.3378496  26.3056588  78.7461853  36.2369227  14.9237382
  78.9076042  35.8184338  15.7693398  79.1110420  35.6280041  14.2816114
  40.8125113  30.7902122   0.1883399  39.9569606  30.3721142   0.0911360
  41.4421367  30.0848389   0.0391455  57.6618099  49.7277403   5.1636857
  57.0664883  50.2986860   5.6493270  57.7617693  50.1543093   4.3126410
  49.5412913   4.6397517  69.1311758  49.0125599   3.8422415  69.1056164
  50.3651514   4.3945191  68.7100424  35.9585762  39.8003602  11.3122129
  35.2276134  39.5874310  10.7320547  36.1729264  38.9720249  11.7413318
  52.5435829  16.6790617  20.4432845  52.9273462  17.5434232  20.5910540
  53.2382917  16.1785316  20.0154066  19.3556784  31.7570686  43.1020641
  19.4020270  30.9210825  42.6381540  19.6870993  31.5631270  43.9788628
  79.1847134  37.8655934  11.0568845  79.5244741  37.0652437  11.4571798
  79.7249031  38.5651565  11.4243579  16.3249682  25.7140398   3.9948192
  16.9111441  25.4956269   3.2703030  16.7781638  26.4122295   4.4674417
  27.5205134  25.8451438  20.4630804  26.5648078  25.8736515  20.4179502
  27.7105235  25.1249456  21.0642767  48.3067656  52.0165157   6.4310098
  48.3987808  52.8668833   6.0013080  48.5168266  51.3792419   5.7483768
  75.7354546  44.4909239  21.7338586  76.5282393  45.0265455  21.7627144
  75.0903463  45.0416327  21.2902546  78.6753798  10.1000130  13.9577615
  78.7447309  10.8801234  13.4074426  79.3512297  10.2170348  14.6254158
  82.1785910  74.4091301  63.3715764  82.3832876  74.9477105  62.6072053
  81.3303358  74.0155987  63.1670633  73.0983439   3.4272597  69.8925370
  72.4851885   2.7302573  69.6591548  72.7141085   4.2197344  69.5175983
  28.3149796  40.4856608  69.6305816  27.8458768  41.3057547  69.7842559
  29.2376309  40.7118805  69.7479633  42.2575455  74.6222739  64.5835105
  42.7752858  74.5958714  63.7788514  42.8822594  74.8784809  65.2619809
   9.7666684  80.5858001   1.4746694  10.6322995  80.7102460   1.0855293
   9.9196329  80.0014356   2.2172004  70.5293369  34.7988701  22.5515795
  70.3225040  35.7275963  22.6560640  71.1612558  34.6145654  23.2465219
  56.9001389  24.0514302  14.7446299  56.3905668  23.8769603  13.9533472
  57.5419474  23.3420420  14.7774625  80.3241634  33.1730247  52.8666782
  80.1502895  34.0559697  52.5404739  80.6089687  33.3036113  53.7711477
  12.6099950  67.8689103  50.6961844  12.6361399  68.1034999  51.6238246
  12.6136475  68.7085538  50.2366016  71.0697842  36.9244838   1.1699128
  70.5311632  37.6028275   1.5773052  71.0776186  37.1512175   0.2399870
  40.0084019  39.4805574  22.0243812  39.7167039  40.3843021  21.9044161
  40.8861017  39.4595480  21.6430259  78.3685160  48.7709665  21.4663911
  78.2404852  49.6577215  21.8033028  78.0957127  48.8211155  20.5502605
   1.1109637   8.5199755  16.2754238   0.6676005   8.2629550  17.0838797
   2.0179271   8.6758173  16.5387750  63.0895996  38.3194709   8.0622888
  62.9952192  37.3732519   8.1717944  63.7579823  38.5689497   8.7004542
  79.0218115  22.1023321  34.7905707  78.7012672  21.4804459  34.1373181
  79.8909903  22.3522925  34.4770741   7.4311637   3.6601141   8.7806416
   6.4833640   3.5290906   8.7534279   7.6106356   4.2617089   8.0580723
   8.9765864  58.4234874  34.1522202   8.1462651  58.0917184  33.8105640
   9.2609721  59.0690558  33.5052285  77.0521688  48.5670471  31.9179893
  76.7467880  48.9839220  32.7237153  76.7298889  47.6676464  31.9766450
  80.5780697  22.0110726  18.2009459  81.3681698  21.6203117  17.8277433
  80.0596714  21.2640214  18.4999585   3.4400644  23.4788153  62.7149865
   4.2356958  23.9017317  62.3919508   3.2464113  22.8040335  62.0642987
  12.6889037  16.1153710  30.4397631  11.9366359  16.3533533  29.8978424
  12.4162959  16.3246310  31.3331413  67.6237955   4.6588728  60.5057291
  68.4241667   5.0721715  60.1819894  67.0989504   5.3848002  60.8430735
  31.7978000  29.6481967   3.2628387  31.2068271  29.5059776   2.5234085
  32.6425742  29.8476958   2.8593567  55.5961600  12.0165942  56.6739735
  55.1897898  11.5941355  55.9172556  55.9932700  12.8121493  56.3195405
  39.0265845  68.2779217   1.9566439  38.6794566  68.9429760   2.5511464
  39.7956084  68.6882114   1.5610604  78.9240456  17.5900722  15.4686058
  79.6581316  17.0280528  15.7165587  79.2833424  18.1717372  14.7986794
  80.8612633   1.7283486   2.8580880  81.1102867   1.2150109   3.6266592
  80.5629158   2.5648409   3.2151636   6.6656207  21.6406655  24.7737503
   6.4792250  21.8169808  23.8515782   6.0171889  22.1572495  25.2521944
  52.3695374  63.2614565   1.7380011  51.6033792  63.2335472   2.3111087
  53.0307341  62.7431059   2.1966502  78.1935453  57.3894119   9.6821260
  79.0753269  57.6265955   9.9692464  78.3315706  56.8625355   8.8949925
  61.9885817  36.4200566  57.1998737  61.9444456  37.3705647  57.3038695
  62.6378718  36.2845109  56.5097425  12.7954387  12.2493076  11.8041706
  12.8277491  12.7855659  11.0119498  11.8611335  12.1350276  11.9780946
  58.6822176  43.1725359  21.2500000  59.6017218  43.3310509  21.4635849
  58.1954718  43.6011839  21.9539642  23.8469296  48.8071077  53.7491927
  23.1406098  49.3996517  53.4918282  24.5921117  49.3829159  53.9206288
   5.4639902   6.6338751  66.1742086   5.4330030   7.0402262  67.0403222
   4.5467916   6.4748309  65.9513101  51.7210284  52.5687010  13.3997321
  50.8643189  52.3190601  13.0533719  52.0731917  53.1783015  12.7511978
  26.0296249  75.2600718  23.1128263  25.0887084  75.2510500  22.9372573
  26.1241007  74.7823429  23.9368892  57.2463512  47.9606724  25.0407171
  57.5181770  48.8632536  25.2071047  56.2914276  48.0035162  24.9904680
  36.8193894  74.9841504  42.2479400  36.2921983  75.5425291  42.8193531
  36.3568860  74.9944334  41.4099583  81.4164829  65.2570963  20.3120470
  80.9970474  65.2831697  19.4520295  82.2472572  64.8066902  20.1598024
  26.9373797  62.0441198   3.7140033  27.3580455  62.8823805   3.5227302
  26.1209296  62.0664501   3.2148570  41.2954789  48.3676074  65.4155773
  41.7483311  47.5294368  65.5084706  41.1781007  48.6772506  66.3136730
  81.5514374  42.7080584  19.7057080  81.9264126  42.7602816  20.5848527
  81.4327431  43.6203432  19.4413662   8.6538028  24.9082613  11.8692493
   9.2334079  25.4059696  11.2925529   8.7870025  23.9956522  11.6130602
  48.5780334  48.2671833  24.3068194  48.6625957  48.1934881  23.3562136
  48.4606791  49.2039108  24.4649315   9.0631102  47.6245975  17.8043687
   9.9325656  47.2499800  17.6631343   8.9598845  48.2630587  17.0987153
   6.4796161  26.5222192   4.5719784   6.2436293  25.9749532   3.8229531
   7.2921084  26.9533873   4.3070444  37.3727208  58.2793038  52.6784441
  38.2207280  58.5791902  53.0058238  36.7945843  59.0349238  52.7835128
  84.9104404  57.1538591  27.1816421  85.3480148  56.3550997  27.4761605
  85.6051826  57.6713419  26.7744780  13.9938298  16.2971613  60.6152431
  13.4160319  16.8674824  61.1223111  14.0629425  16.7243121  59.7614298
  44.7778970  47.4012236  51.2805221  45.0133782  46.8958406  50.5024681
  43.9620763  47.8415577  51.0422513  28.2989405  68.1158972  16.6945326
  27.4432849  68.4922314  16.9005919  28.9266394  68.7866211  16.9635057
   9.1118525  22.0519423  11.4964271   9.5057200  21.5667129  10.7714093
   8.1870078  21.8061018  11.4747524  77.2761106  70.1790714   4.8161578
  77.6844931  69.3135166   4.7997391  77.9146624  70.7367897   5.2604938
  68.8440466  27.0034504   5.6966394  69.6109295  26.6501904   5.2457148
  69.1242790  27.8644371   6.0071343  25.1739401  55.0323668  14.9290409
  24.3223912  54.6381106  15.1178684  25.1952121  55.1111259  13.9753189
  12.6374027  64.9715402  33.8496819  13.1007967  64.2051389  34.1875019
  13.3297405  65.6025579  33.6529103  20.7432318  55.4521894  44.3603754
  21.1590147  55.8948708  45.1002312  19.8484242  55.2824783  44.6549082
  39.8212216  36.0153108   5.0998440  38.8792810  36.0109239   4.9296704
  40.1892361  35.4451963   4.4247380  18.8958726  40.7428462   2.1787825
  18.4759698  41.1568190   2.9327955  19.8278013  40.9305181   2.2906723
  15.9022868  74.0542269  54.1147375  15.9236777  74.3109608  55.0366163
  15.8060837  74.8790026  53.6385870  79.8371292  62.4435997  68.5723972
  80.6754069  62.5302744  68.1185150  80.0051082  62.7811623  69.4522095
  61.6343261  55.6363487  20.4260254  60.6851531  55.5708981  20.5310035
  61.7957784  56.5689898  20.2833867  56.3746485   8.9146729  21.9945851
  57.0990023   9.4821615  22.2582092  55.6827327   9.5188732  21.7254582
  77.8819604  39.7397590  59.6743488  77.0884879  39.5819807  59.1627455
  78.3249791  38.8915515  59.6969604   2.3355788  54.0326500  50.9458685
   1.7667060  54.6610498  50.5012083   3.1739324  54.4867468  51.0306549
  21.6843939  74.7154808  65.9221983  22.4599719  75.2700615  65.8376646
  21.4360642  74.7898245  66.8436289  68.7732459  43.6177826  38.3854556
  68.7753047  43.0820799  37.5922036  69.5659472  44.1499376  38.3171487
  79.8599263  27.2718592  26.4347019  80.1191397  26.4257260  26.7995205
  78.9573641  27.3933716  26.7293968  78.8799251  29.2877316  50.8648205
  78.4444345  30.1399374  50.8828211  79.8121972  29.4936705  50.9333086
  37.5386841  34.1628332  33.6240616  37.4575586  34.7565956  32.8776684
  38.4777076  33.9898939  33.6915817  37.8750760  15.1199456  40.6752053
  37.9589588  15.8096667  40.0168171  37.8835148  14.3059035  40.1717129
   4.5950406  21.0924692   8.4296694   4.8927849  20.1967974   8.5888710
   5.3048390  21.6431256   8.7601128  67.7966703  50.1740789  68.8898468
  68.0170072  50.6625986  68.0967331  68.1755210  49.3062973  68.7496471
  44.7390670  38.8068886   5.5806437  44.1500003  38.4399910   4.9213877
  45.0527662  39.6240731   5.1933041  58.0580331  19.2275703  39.2178059
  58.0962969  18.8161480  38.3543825  57.3200298  18.8014293  39.6536803
  80.6119261  63.3773327  60.5392075  81.4422096  63.2281256  60.9915352
  80.8085133  63.2122898  59.6170664  41.0598850  64.7376966  55.3805733
  41.5295553  65.1647282  54.6641302  40.6745720  65.4590702  55.8779526
  34.8047471   8.6133420  43.0633736  33.9605927   8.5072839  43.5019922
  35.4310346   8.1761467  43.6403131  80.1677713  39.4247782  19.7158280
  80.8832607  39.6228354  19.1116181  80.6028566  39.2214192  20.5438271
   0.3663533   0.3103323   4.1496124   1.1701243   0.7682057   4.3956509
  -0.2963311   0.9993000   4.1005507   2.8090525  47.2997332  66.0715580
   3.0133778  48.2110500  66.2812662   2.0388323  47.0985365  66.6030788
  63.5963202  24.8130102  21.0937634  64.0401811  24.1796990  21.6577950
  63.1605733  25.4107065  21.7013111  83.5745631  75.3901961  16.8549290
  82.8827701  76.0517457  16.8574753  83.5924350  75.0588729  17.7527752
  12.7467677  66.0363390   4.7785225  12.0612249  66.2459304   4.1442242
  13.0455086  66.8876197   5.0983753   9.9359173  19.1373622  56.1398125
  10.6249475  19.8011148  56.1097908  10.1995146  18.5503745  56.8484688
  16.5443146  41.8641949  50.3078175  16.4581406  42.3521185  51.1268044
  15.7718468  42.1112680  49.7994089   1.8811601   5.2083464  16.0404434
   2.3157971   4.5648356  15.4807892   1.9283646   6.0265560  15.5459347
  52.9496194  51.9307613  58.9777708  53.3318497  52.2410345  58.1568766
  52.3166062  52.6073694  59.2180395   1.4746590  76.9084883  60.3177166
   1.9642684  77.6705408  60.0082207   0.7971436  77.2739792  60.8865976
   4.0719994  65.4783084  23.1840935   5.0165900  65.5475333  23.0455723
   3.7344368  65.1253250  22.3608723  14.2941380  19.6689463  38.2774973
  13.3904374  19.8171794  38.5560393  14.4885588  20.4028916  37.6946115
   3.6465412  32.5646424  26.3778186   3.6606771  33.2595563  27.0359421
   3.3325770  32.9945254  25.5822921  28.8441486  22.5317307   2.8062287
  28.6008758  23.2943459   3.3310833  29.2086095  21.9122715   3.4384241
  47.6542598   8.4981842  41.2487068  47.4376542   7.8425856  41.9116631
  46.8064481   8.7836476  40.9081784  70.7918788  17.6762414  59.3073940
  71.3604082  18.3707774  59.6399975  70.1372327  18.1344104  58.7803698
  47.4209580  64.4026091   7.0228043  46.8139920  64.5851853   6.3055268
  46.8678889  64.0529635   7.7214422  76.4092130  18.1181689  11.9437733
  76.5973562  17.5032778  12.6528111  75.9264559  17.6003905  11.2994995
   6.1342567  67.7929831  54.6878052   6.3799357  67.5633049  55.5839777
   6.6217709  68.5959911  54.5041370   0.7867234  27.9663534  24.1883507
   0.6244367  27.4718972  23.3849850   1.4489930  28.6122246  23.9424267
  37.5617642  57.2200508  10.2792111  36.9942099  57.9849549  10.1841679
  37.1643252  56.5555115   9.7164908  53.7418673  31.5322895   1.4871969
  54.5420772  32.0555802   1.5326157  53.0681861  32.0906801   1.8752470
   1.1154214  59.0720510  37.0883775   0.2006787  59.2139673  37.3319674
   1.5260933  58.7361383  37.8850842  16.2260360  16.2346907  13.5639229
  16.6299600  17.0676489  13.3204975  15.6028575  16.0558529  12.8597203
  65.7497609  58.0384465   7.0018139  66.0000784  58.7768860   6.4465800
  66.5351212  57.8472824   7.5145521  18.3503222  67.3374844  67.0846748
  18.0136704  66.8431711  67.8320408  19.1568792  67.7395868  67.4071836
   2.3681860  45.2819204  41.4903259   1.5614715  45.6559277  41.8446779
   3.0537692  45.5825377  42.0868492  18.3407426  71.1566734  68.4764004
  18.8861132  70.4278851  68.1803179  18.5101318  71.8549442  67.8439808
  69.1363026  39.3831706  49.1283894  69.8829485  39.8130202  48.7112808
  69.2687739  38.4512210  48.9547491  44.3198252  48.2475281  47.9847813
  45.2462626  48.4057617  48.1662130  43.8550138  48.7795687  48.6306238
  67.1625728  23.8703079  21.7796078  67.0664376  24.3077488  20.9336605
  68.0274111  23.4618874  21.7411461  13.5811234  44.2968655  54.7302008
  14.4216597  43.9492559  55.0283575  12.9766321  43.5584164  54.8044729
  17.1178353  57.8005838  67.0286560  16.3302875  58.2074833  66.6675043
  17.4433470  58.4344482  67.6677895  70.1072222  37.2878142  22.7950802
  70.5211944  37.6876469  22.0302334  69.9156338  38.0240507  23.3760109
  31.4377594  47.6582241  65.2011919  31.2380123  48.5040617  65.6023026
  31.0252547  47.6989174  64.3383932  64.4800052  79.1390088   4.9689617
  63.5470018  78.9367940   5.0385657  64.5073208  80.0116732   4.5766058
  30.6513232  79.4594123  21.3670197  29.7342349  79.3447592  21.6160908
  30.6161623  79.9248650  20.5313435  28.3504004  39.5580072   3.9931765
  27.7476822  40.2714911   3.7836447  28.8779897  39.8950110   4.7172680
  25.9233427  41.4224958  51.5990782  26.5861845  41.2917757  52.2771502
  25.1184940  41.0713291  51.9800425   0.2707022  22.4174185  16.7765656
   0.1885026  23.3474417  16.9875946   1.0978168  22.1526785  17.1790924
  42.0296833   6.8993132  59.7915125  42.0878455   6.8004649  58.8412094
  42.9343471   6.8265860  60.0956964  51.2699318  26.8310118  35.0086212
  50.6082058  26.5314674  34.3852210  52.0917320  26.4677453  34.6786022
  12.4080818   0.5123062  15.4306164  11.8900030  -0.2513437  15.1763287
  11.9004887   1.2610836  15.1176968  28.4709597  43.2383347  69.9447823
  28.2005692  43.5973215  69.0996504  29.4143105  43.1022549  69.8564386
  33.8023305  54.7579002  59.7291994  33.3748865  54.6851444  60.5825663
  34.6876621  54.4247484  59.8756027  20.5378294  46.0257435  31.0946679
  21.0905266  46.4483929  31.7520261  21.1457515  45.5056047  30.5692005
  50.7262809   3.3923741  29.2935505  50.6635809   3.7926789  28.4263363
  51.6125280   3.5999985  29.5896759  20.9439486  48.9527912   2.9061785
  21.7890614  49.0722771   3.3394661  21.1529844  48.9426918   1.9721356
  30.3878707  12.5395413  18.8921967  29.5907850  12.0969219  19.1836872
  30.9329099  11.8394347  18.5330048  10.2576733  48.3711672  52.8609180
   9.4873983  47.8030634  52.8738165  10.2559876  48.7571144  51.9849730
   0.5837185  37.2050834  59.5827293   0.3011998  38.0617428  59.2624950
  -0.1275168  36.9167423  60.1547766  17.7511501  69.2474985  45.1295614
  18.4070182  68.7237978  44.6693373  17.5389528  69.9547672  44.5204878
  81.0706977  71.6978455  60.6262398  81.9748716  71.8237972  60.9140539
  80.5417277  72.0983553  61.3161755  42.9655561  61.7689970  17.9144039
  43.5390744  62.1498373  17.2493687  42.9119513  60.8419778  17.6820412
  70.8450896  34.6518441   2.7215519  70.2477605  34.2184086   2.1119919
  71.0055060  35.5104227   2.3299589  16.3430119  60.3142118  55.6725407
  16.5240109  60.0189829  54.7801781  16.1229312  59.5140505  56.1495447
  31.6855282  24.6893330   9.3946924  31.2550301  25.2854510   8.7818709
  31.0420198  24.5553465  10.0905218  78.6922891  45.4419899  46.5553761
  77.7905400  45.6990576  46.3630295  79.0849520  46.2215281  46.9482660
  29.4916863   4.8619337   9.3241205  30.1551217   4.2073651   9.1058912
  28.7215990   4.3495436   9.5704117  63.9341295  11.1578770   0.9133377
  63.4284276  11.8577214   0.5001679  63.9261783  11.3749142   1.8455734
   0.9941953  26.8149014   0.8506670   1.0090058  27.1675368  -0.0390873
   1.8818563  26.4861460   0.9928169  74.9418808  34.9028587  63.3994341
  75.7672752  34.8636484  62.9162979  74.6329666  35.8000302  63.2733917
  35.3273991  72.8502371  14.4455567  36.2355009  72.6126792  14.6330395
  35.1521406  72.4670484  13.5860863  30.7812231  14.3592901  21.0501709
  30.3006285  14.2439719  21.8699017  30.3460329  13.7714882  20.4326477
  79.5632405  19.4717760  13.1717911  78.9042157  19.5286722  12.4799195
  80.3642887  19.2089148  12.7185192  61.9161234  13.1498881  22.3884716
  62.3686105  12.3295422  22.5847283  62.6037342  13.8152190  22.4160137
  84.6690034  63.2659864  44.0946007  84.1449168  62.8678894  43.3995628
  84.6857077  64.1981888  43.8779211  22.0416665  60.2832890  53.8993692
  21.1601758  60.0450277  54.1864967  22.3424578  59.5265007  53.3963490
   9.5388567  33.8302898  20.2099729   9.1687465  33.3826470  20.9708047
  10.4813302  33.6770153  20.2769327  67.6394750  39.6937847  56.6257095
  67.9455079  40.5021572  57.0369339  67.4075891  39.9517965  55.7335806
   7.1468925  50.1041031  60.5731153   6.8043190  49.2105532  60.5519629
   6.3709772  50.6598759  60.5002880  44.8532206  16.1591835  11.9872132
  44.4473464  16.3429756  11.1400357  44.6323747  15.2449961  12.1653118
  59.5223383  43.6067124   8.7648907  59.9982074  44.4362088   8.7233486
  58.6780888  43.8341732   9.1544237  13.1511366  41.1063051  42.2984648
  12.7917314  40.2955914  41.9381857  12.9448605  41.7720890  41.6424036
  10.4363701  68.4533002  19.1840496  10.6154666  69.0741470  18.4778633
  10.0396881  67.7002742  18.7460747  74.6462835  61.9722414  54.9769306
  74.9430145  61.0647964  55.0456572  75.1215137  62.3232460  54.2238140
  40.1054034  52.9274657  15.1089325  39.7819719  53.5529282  15.7573261
  39.9598930  52.0703890  15.5095234  19.1140974  78.9843225  64.9893856
  19.7995472  78.8348818  64.3381834  18.3772182  78.4530544  64.6877241
  66.1930073  25.7187720  10.8503857  66.1383397  26.1011620   9.9745884
  66.4036328  26.4574595  11.4215412  77.9401089  65.1137018  63.2662582
  78.1430073  64.1807461  63.1980181  78.7656910  65.5196571  63.5305500
  76.9394089  80.2482891  30.4010844  76.5670622  80.1492786  29.5248508
  77.3598034  79.4069862  30.5791545  37.9550076  46.8937969  49.0351200
  38.3832669  46.7018843  48.2008553  37.3972416  46.1332560  49.1985512
  11.8488181  38.5486078  48.1613064  11.6357815  38.6655998  47.2354746
  12.5224328  37.8685856  48.1680012  47.4553558  57.6559796  16.5302029
  47.2041854  56.9886162  15.8916321  46.9494614  58.4291484  16.2801781
  53.3012972   4.9463599  39.9806261  52.5443730   4.3608420  39.9589324
  53.9537344   4.4752639  40.4989243  76.3272152  20.5126040  59.1605949
  76.7098913  20.1247924  59.9476099  76.8152341  20.1182883  58.4376955
  76.4417596  39.0792155  64.4452667  75.5269147  39.1045332  64.1648197
  76.4199741  39.3623400  65.3593731  28.3840530  15.3582974  23.6314812
  27.8667420  15.4154845  24.4348183  28.6021727  14.4296189  23.5526600
  42.6320335  10.8131545  55.4421806  43.2244227  10.8056395  56.1940145
  41.9600401  10.1673262  55.6602716  59.3707452  23.0704184   7.6833048
  59.8359231  23.8964148   7.5507536  58.7151693  23.2693358   8.3517971
  55.7200822  51.5756693   6.2619105  56.0109243  51.7862430   7.1492090
  54.7879014  51.3794878   6.3556423  14.2407930  60.0550795  52.8441763
  13.9686501  59.4883633  52.1223688  15.1972842  60.0227499  52.8265524
  64.5337421   4.3200035  17.9598847  64.2617912   3.4026118  17.9857197
  63.9511162   4.7245188  17.3171177  72.3385800  61.9110870  56.3984156
  72.2955669  61.0837650  56.8779182  73.1259633  61.8349028  55.8594799
   9.2504582  80.0957825   4.1065970   8.5222087  80.1630022   3.4890452
   9.2135570  80.9091499   4.6098891  79.5562948  79.1368723  57.0855427
  78.6020918  79.0706301  57.0489359  79.8175121  79.3323183  56.1856508
  10.8211839  50.8113146  53.8991737  10.1789153  50.8575487  54.6074009
  10.6213129  49.9912596  53.4477425  29.0025043  51.1222744  60.4944658
  29.8813796  51.4445829  60.2946520  29.1090298  50.6221294  61.3036299
  67.3234210  12.4021094  53.7395620  67.4328003  13.3527224  53.7150669
  67.3928485  12.1293776  52.8246689  64.3902349  62.9536486  49.8448467
  65.3071165  62.7875710  50.0638914  64.2116690  62.3728085  49.1052723
   2.7827304  17.9800434   5.7721033   3.5694593  17.6683779   6.2194863
   2.8425139  18.9342137   5.8192482  28.6778808  71.7661715  48.5146952
  28.8614893  70.8272314  48.5448885  29.3204665  72.1550798  49.1080475
  31.7938995  67.9966545  65.5495214  32.7014756  68.2220268  65.7538319
  31.7691636  67.9451990  64.5940256  34.1094565  64.7971344  31.9092798
  33.5570383  64.9671555  31.1462879  34.9887800  65.0520420  31.6299129
  48.0186987  54.1207619   9.7058382  47.4331242  54.4289036   9.0141859
  48.8721526  54.4903107   9.4793883   1.2381994  60.8059168  52.2076750
   2.1472472  60.5333662  52.0828581   0.7636036  59.9904060  52.3687077
   6.8010729  33.0903931  13.6215439   6.6080993  34.0052099  13.4163513
   6.2753265  32.9033156  14.3992558   7.5442951  48.5769291   4.8844519
   7.1036714  48.3142395   4.0763226   8.1892222  49.2268200   4.6052542
  11.8465686  50.3393650  66.8196392  12.0116508  51.2820435  66.8013811
  12.3748958  50.0177908  67.5501823  34.4934491  77.0733764   2.8717175
  34.9826405  77.5458839   2.1981707  34.8175499  76.1743906   2.8168287
  23.9538569  14.5258065   5.0671377  24.2310995  14.0654679   4.2750159
  24.7349829  14.9978800   5.3556147  64.1899897  26.2814188  66.9644690
  63.7826897  26.2671471  66.0983658  63.8906718  25.4744005  67.3832273
  76.4852209  69.3830585  50.3462839  76.8256469  69.3024778  49.4553041
  77.1948631  69.0636635  50.9036255   2.9062676  72.2441578  16.7326856
   2.5936544  73.1138515  16.4834046   2.4712995  72.0630169  17.5658870
  74.7078706  43.5871840  24.1953087  75.1732482  43.6384344  23.3604264
  74.2165435  44.4070768  24.2463684   3.9407578  35.8016491  35.6964588
   4.7444063  35.5415297  36.1467028   3.2412735  35.5947375  36.3162494
  65.1698551   9.0559237  50.3516245  64.8791370   9.3489020  51.2152672
  64.4870743   8.4510463  50.0615263  53.2591859  13.8784952   7.1902075
  53.8038397  14.1162510   6.4398375  52.3887706  13.7353058   6.8185797
   3.0133265  27.9375267  66.0951424   2.0626953  27.9246044  66.2063408
   3.2855377  27.0339727  66.2555313  75.4362208  22.0969172   4.4761601
  75.7790870  22.9515000   4.7376194  74.5148761  22.1191855   4.7347298
  60.4155374  15.0366898  20.1340332  59.5764208  15.0624724  20.5938664
  60.6130732  14.1040345  20.0482216  39.5143145  20.1129980  20.7626763
  40.0121992  19.2957278  20.7829991  38.6242979  19.8573513  21.0050526
  77.8046236  74.0780928  34.5769730  77.5412378  74.0300014  33.6579838
  77.1969995  74.7060564  34.9677315  14.6588814  70.5959129  50.9576845
  13.9066064  70.1980162  50.5195141  14.3801677  70.6967640  51.8678379
  12.8343546  51.3435411  12.1502256  13.2896888  50.9244204  11.4199936
  11.9290352  51.4281511  11.8511117  10.4108822  44.3931770  68.5608339
  10.1854300  45.1698446  68.0487871  11.3224924  44.2118263  68.3321190
  -0.2036149   5.4297705  22.9426899  -0.3101642   5.1842470  22.0236721
   0.6435793   5.0608607  23.1924858  29.1707730  62.2009516  37.7416730
  28.5049057  61.9333076  38.3750916  28.8850689  61.8119907  36.9150424
  12.3513997  46.8556547  48.0471992  11.9916105  47.7415276  48.0023575
  13.1850982  46.9118214  47.5802708   5.9805328  38.9740396  45.0727940
   6.0234320  39.8244071  44.6354532   6.5022677  39.0867543  45.8673477
   4.6988004  17.3828097  28.8480129   5.1449793  17.4074669  29.6945038
   3.7690061  17.3285027  29.0688458  23.0455637  59.9078226  62.1753550
  22.2674131  60.4411888  62.3373270  22.7195907  59.0080261  62.1568823
  15.3867579  61.0936308  67.5528955  16.2429857  61.4033890  67.2576761
  15.4205918  61.1688566  68.5065365  76.8869759  59.2478037  44.8387623
  76.9538642  58.4587383  45.3764725  76.3238431  58.9926386  44.1080093
  33.5154319  78.7624741  19.7487271  33.7184381  78.7628269  20.6841516
  32.6472116  78.3634329  19.6922147  56.6390736   9.1266079   2.0906725
  57.0825038   9.7771712   2.6350727  57.2937482   8.4416409   1.9548407
  20.3578806  62.0761776  50.8751917  20.4355621  62.5593328  51.6978455
  21.1956406  61.6222239  50.7840157  78.0084778  51.0758638  43.5868216
  77.9976697  50.1202011  43.6399698  78.0087281  51.3664818  44.4988346
  41.4817593  80.4244068  14.5292416  42.2781345  79.9671986  14.7993889
  41.7352399  80.8999279  13.7381306   6.4915499  73.2944300  20.7861080
   6.6705188  72.8500726  19.9574032   7.3301324  73.2874825  21.2475910
  20.5867314  43.4598017  27.9291677  19.9528646  43.4060240  28.6443973
  20.0862908  43.8081551  27.1913052   3.6106515  61.0168314  27.9369283
   2.6625037  61.1061287  28.0332279   3.7805653  60.0874996  28.0909014
  79.4493121  18.4433670  35.4198685  78.5810823  18.2692404  35.0564232
  79.2808456  18.7198706  36.3206425  17.5575292  77.3098373  49.0386915
  18.1570339  76.5746546  49.1664791  17.7664924  77.6402044  48.1649494
  42.8946704  24.3912239  12.6400509  42.4478621  25.2020188  12.3967304
  42.3972446  23.7021656  12.1995964  -0.1068766  17.8514166  17.0631447
  -0.0905282  18.5257407  16.3839855   0.2676170  18.2783861  17.8336563
  44.1846466  47.8654385  55.5222178  44.1805553  48.6087751  54.9191666
  44.3033314  48.2589722  56.3866663  84.7825551  64.3408918  64.0287733
  85.1653395  64.7198057  64.8200560  85.5353046  64.1244507  63.4785414
   3.2907903  76.8180752  27.2219920   3.2237831  77.7394390  27.4726558
   3.2176441  76.8235731  26.2676072  38.3241040  32.2783108  12.5512638
  38.8002021  32.3435231  11.7234268  37.6511771  32.9566880  12.4946346
   7.4916857  16.6218920  45.9569493   8.1445330  16.7188711  45.2636852
   7.3441475  17.5131436  46.2733879  61.8425677  23.9448757  11.8499317
  61.2773455  24.2884083  12.5418511  61.4391178  23.1130095  11.6020336
  25.1650739  49.1588545  62.2886658  25.3545666  49.4727087  61.4044571
  25.9227300  48.6213732  62.5195408  53.4677991  16.2862437  62.3034096
  54.2979464  15.8159297  62.3801756  53.7192855  17.2079032  62.2439480
  73.7045151  35.8554907  26.3464585  74.1910905  36.0696383  25.5504647
  74.1154451  36.3866253  27.0285645  30.9002686  58.2814884  64.2012215
  31.6567779  57.6954937  64.1781282  30.7322502  58.4920168  63.2827044
  14.1841477  51.3954468  15.4824486  14.6830767  51.5926667  14.6897354
  13.6154574  50.6671829  15.2325478  15.8106249  33.8090344  42.3916474
  15.6342285  34.2084999  41.5398636  16.7343824  33.5611792  42.3532620
  49.0819821   0.5535453  69.0017796  49.3764481   0.1745265  68.1736088
  48.4338567   1.2104457  68.7475252  77.5528044  28.0717058  15.6367913
  77.0696253  27.7372475  14.8812046  77.0138473  27.8324242  16.3907852
  83.8153381  52.4277325  19.8036232  83.2025856  51.7279644  20.0296536
  84.3388504  52.0659848  19.0885678   7.5344365  43.4001751  32.3661843
   7.9335611  43.1244107  31.5410271   8.1219738  44.0771408  32.7019730
  39.2423027   6.0797377  17.1099510  39.1622990   6.2338658  16.1686363
  39.5057695   5.1622458  17.1808853  78.6406011  11.1726780   2.2878208
  78.2545490  12.0375319   2.1491614  78.3433527  10.6549425   1.5396061
  24.3583458  40.3399487  23.0796185  24.0732925  39.9619503  23.9115372
  24.0190476  39.7401734  22.4152603  17.4655700  46.6320896  14.6714008
  17.5643122  46.3465929  13.7631202  17.5342369  47.5859880  14.6314430
   7.2584241  40.1289101   8.5271492   7.1508568  40.9364052   8.0245486
   7.4617355  40.4244347   9.4145956  11.4695203  49.6001005  61.5320826
  10.7057929  49.5689726  62.1082640  11.1449873  49.2885590  60.6871843
  40.9032202  55.9608126  60.0756216  40.5336714  56.2003994  60.9254789
  40.6899643  55.0331497  59.9746466  63.5168943  17.4321120  36.0069895
  63.0888710  17.0784133  36.7866850  64.4304404  17.1588080  36.0904741
  81.7791337  18.9962120  11.5500298  81.3561100  19.1750546  10.7102051
  82.5007385  19.6236391  11.5931549   9.6480012  70.2585936  49.3832493
   8.8685799  69.7037077  49.3543625   9.3926102  71.0020638  49.9293804
   0.2752111  47.5478411  67.9573727  -0.5891225  47.4517679  67.5574636
   0.3201422  46.8425703  68.6029768  27.1672273  52.9581070  52.9200125
  27.7448225  52.4080038  52.3908615  26.7084098  53.5058260  52.2830439
  53.8270072  47.2344322  16.1027279  53.9891518  46.4034195  15.6562176
  53.8908256  47.0224018  17.0339623  70.8171744  26.4564724   3.8308182
  71.2085706  25.6456394   4.1557732  71.4558918  26.7963810   3.2041397
  66.5034247  35.7725640   3.8064900  65.7049841  35.8931656   4.3204727
  67.1348590  36.3747664   4.2000332  31.0966951  10.7304232  51.2993526
  30.4645041  10.1078742  51.6585064  31.1376325  10.5190509  50.3666782
  37.3005966   8.9772647  54.6479464  36.7777333   8.5017054  55.2934599
  37.2151998   8.4632914  53.8449669   7.0457470  70.4535484  67.1506834
   7.0537007  70.9743404  66.3476038   7.0514375  71.1007309  67.8559160
  50.5926586  62.3076200  69.4825125  51.1446906  62.1498537  68.7166119
  51.1404873  62.8289366  70.0693178  85.4659757  72.8407719   9.3968239
  84.7919139  72.9162385  10.0722351  85.8782348  71.9931366   9.5635262
  12.1372044  42.0450926  34.6952963  12.7666759  41.8557882  33.9994788
  12.1269369  43.0003357  34.7556090  14.3815935  70.9005785  61.3381577
  13.5563779  71.3852310  61.3571787  14.7861779  71.0831404  62.1862221
  43.4262678  30.7689898   5.8201659  44.0459213  30.0843852   6.0723054
  43.4064827  30.7337420   4.8638195  69.8610074   9.7303171  26.5803566
  70.0966233  10.4309244  25.9721890  69.7719616  10.1679535  27.4269810
  38.9910016   2.5831740  52.6150560  39.5168707   3.0876677  53.2356882
  39.0872559   1.6751521  52.9022026  18.5206220  13.4511416  48.0743742
  18.1464336  12.6447146  47.7195597  19.4344458  13.2315486  48.2558680
  40.2052736  72.8564310  67.2992086  39.7017074  72.2248840  67.8128195
  40.2675009  72.4622536  66.4291620  71.1588914  25.9703656  16.0981503
  72.1124834  25.8880968  16.0870400  70.9968168  26.8242760  16.4991513
  48.0987165  17.8993838  57.5882626  48.7830124  17.2652476  57.8023815
  47.2867760  17.3930400  57.6128292  33.8781691  48.6930847  47.2687483
  33.3205724  48.8946819  48.0201960  33.9121795  49.5093250  46.7699146
   3.3829969  34.1399880   4.1986218   3.5521954  34.4216461   3.2995835
   3.9464777  33.3758421   4.3202772  84.7843403   9.9450321   4.6787110
  84.4440812   9.3260689   4.0326920  84.7570843  10.7930012   4.2355004
  78.5131997   4.9994536  18.4772339  77.5851459   5.0168009  18.2434693
  78.5357565   5.2874680  19.3897953  27.4326921  36.3612795  67.1039009
  27.8331423  37.2026038  67.3230982  26.4908862  36.5215182  67.1635389
  59.4839439  14.0879958  50.1404810  59.3954739  14.1535609  51.0913277
  58.6186895  13.8123267  49.8378706  76.2887699  18.6880608  27.5229683
  76.5413720  17.8804512  27.0755425  76.2550205  18.4483261  28.4490433
  38.3980951   5.3052848  63.2151651  38.9716515   5.6295054  63.9095306
  38.3447084   4.3621199  63.3694887  57.8718695  10.9189053  15.2760258
  57.6332681  10.0465651  15.5895939  58.1388689  10.7819529  14.3670788
  52.6423407  56.5457106  55.8447933  52.0814991  56.3956547  56.6058254
  52.1193457  57.1023750  55.2678776   6.8548673  24.9467631  16.8852940
   6.2204211  25.5386944  16.4811554   7.5924628  25.5100270  17.1196499
  76.8141374   5.0497763  63.7331200  77.4236641   5.4731696  63.1286049
  76.2273893   4.5467131  63.1684160  20.4972339  49.0818214  66.5276241
  20.2118301  49.4784641  65.7045460  21.4205170  49.3230820  66.6022778
  74.4796581  49.1836376  36.4878121  73.8932616  49.2926426  35.7391491
  75.0636930  48.4694882  36.2325993  71.0856718  15.1505919  23.1717530
  70.4917783  15.1759930  23.9220085  71.9592613  15.2290793  23.5550442
  11.0439890  72.4916382  19.8396054  10.6232541  71.8444081  19.2736473
  11.6412848  71.9802590  20.3854695  43.7869549  42.8306293  59.9906206
  43.8283014  41.9609213  59.5929670  42.9765940  43.2107830  59.6514559
  72.2385749  17.6435511  47.6596928  72.6607856  18.2035868  47.0082903
  71.6321478  17.1027892  47.1536732  12.1045232  61.4886713  54.0225792
  12.0660806  61.3924265  53.0710030  12.9723239  61.1629105  54.2613935
  37.2999477  55.6034660  46.6688633  37.1332431  55.8961010  45.7728672
  36.9956636  56.3264275  47.2174692  65.6190217   0.6259747  28.5004559
  66.2915868   1.2449332  28.2162419  65.5084366   0.0340672  27.7563801
  17.4273801  44.9266624  49.2653084  17.4759579  44.2279768  49.9177790
  17.0974934  45.6837749  49.7492409   7.8610510  74.2080021  63.4598160
   7.1468717  74.2883778  62.8275776   8.5055339  74.8567152  63.1768847
  84.4251961  10.7375927  12.3592892  84.0606398  11.5702124  12.6594200
  84.3672127  10.1619740  13.1218758  82.9715542  70.4331064  38.9659381
  82.1630670  70.7497311  38.5630369  83.6539541  71.0056305  38.6155391
  32.1969718  32.8742523  51.6566601  32.6594991  32.3264380  52.2908535
  32.4196238  32.4959822  50.8060303  75.0707835  51.9539280  27.7452603
  74.6562630  52.4776573  28.4309139  75.0892193  52.5306435  26.9815197
  82.9414986  62.6108694  63.5925198  82.1506674  62.7012968  64.1241598
  83.4139455  63.4328651  63.7242508  43.1852982  78.3108594  15.4013005
  43.1711695  77.6676037  16.1099949  43.9587292  78.0822828  14.8857537
  38.8529667  36.1399405  25.3877854  38.8426385  35.2523463  25.7459760
  39.3695912  36.0683291  24.5851636   9.8346579  42.7013302  54.6294641
  10.7456684  42.6439142  54.9175501   9.4073951  43.2432556  55.2927876
  32.2266376   5.7110446  51.0401249  32.6665798   6.4431613  50.6080532
  31.5886870   6.1245101  51.6217566  28.7841511  52.8948593  37.0963907
  29.3524194  52.1532202  36.8883777  27.9278660  52.5010204  37.2634292
   1.2561482  59.1887780  25.8017960   2.0210236  58.7576218  25.4206124
   0.8229440  59.6089001  25.0587883  64.8806209  56.5565605  32.7769127
  64.6345979  55.7402249  32.3418083  65.1472384  56.2883683  33.6562386
  26.1068611  27.5651210  59.7479296  26.0538984  28.0458491  60.5739546
  25.8169100  28.1931346  59.0862942  70.8249737  74.1846037  66.4798498
  70.1914765  74.2256689  65.7634497  71.6777218  74.2449856  66.0492611
  24.7331262  62.9364252  58.6187649  24.8854756  62.5864458  57.7409649
  23.8998103  62.5507498  58.8890839  73.3572728  42.2260208  11.5018025
  73.3619792  42.1582623  10.5470124  74.1070623  42.7849217  11.7059460
  22.6697102  20.6657927  50.8539534  21.7485687  20.8747523  50.6988192
  23.1265232  21.0138743  50.0881863  71.0654110  10.2633257   6.5524426
  71.6263408  10.0356217   5.8109942  70.2993173   9.6976490   6.4557972
  16.5939856  53.6351681  37.2902727  16.7373848  52.6890802  37.2659755
  17.0269513  53.9224720  38.0941558  60.2124611   3.1505223  26.2352410
  59.3189133   3.4738798  26.1201420  60.6895635   3.8923188  26.6071930
  59.5894939  29.9259730  16.6506806  60.5239520  29.7610541  16.5249100
  59.3831346  30.6223412  16.0272160  75.5807913  80.1132584  34.7849274
  74.9880315  79.9695349  35.5226350  76.3383402  80.5547714  35.1688719
  56.9760219  28.7469836   1.3360062  56.2876801  28.3139677   0.8311167
  56.6474038  28.7505837   2.2350254  57.8785572  80.1017716  21.5281430
  57.1869835  80.7627466  21.4953842  58.6878857  80.5950954  21.3945427
  43.4481663  14.6697493  30.9495106  43.1511230  14.5316334  31.8489113
  43.7189442  15.5875225  30.9249726  53.3198294  30.0916596   8.8502875
  53.1687689  29.1561432   8.7152806  53.0696807  30.2456398   9.7613039
  62.0737800  10.0497477  48.6091089  61.5046677   9.4870608  49.1342020
  62.1668872  10.8480971  49.1289139  82.6564426  45.4503460  38.4714356
  83.2858104  44.7380562  38.5844555  82.0939559  45.1612015  37.7529373
  66.2332494   2.6443358  12.7993145  65.8691067   3.4792538  12.5051155
  66.1438233   2.0642967  12.0431462  55.1982364  12.5438636  61.4667320
  55.9699640  12.0317118  61.7083359  55.4468069  12.9821246  60.6528711
  21.1937103  15.0882476  45.3326750  21.4654342  14.3286460  45.8478546
  21.0431621  15.7760279  45.9811497   1.2711995  53.7546177   2.3070421
   1.0882800  53.7290402   3.2462540   0.6909197  53.0922146   1.9318953
  74.9154407  26.3320322  31.4225807  75.5908698  26.4858313  32.0831719
  74.2588729  25.7990046  31.8709507  76.5346498  50.4758950  11.6340866
  76.9889778  50.9148045  10.9149304  76.1305255  51.1868878  12.1314945
  33.0275348  19.0394633  46.2479639  33.7592730  18.8947432  46.8478346
  32.6594427  19.8808520  46.5177679  63.8586671  47.9989929   1.4156141
  64.7430969  48.1203003   1.7610111  63.9511466  47.3108216   0.7567539
  52.5555477  16.1997073  35.6894755  52.5889573  16.2357753  34.7335386
  52.9056105  17.0441478  35.9733963  66.7795140  36.4678068   9.4857302
  65.9724015  35.9943886   9.2840424  67.3655314  36.2634487   8.7569943
  14.5827127  53.9008808  26.5007377  15.1764941  53.2078743  26.7895293
  14.6680653  54.5825815  27.1672440  39.3904996  44.9675894  56.1637688
  39.7270870  44.5082426  55.3943920  39.2988133  45.8767796  55.8788157
  52.8564951  11.4510317  18.1864109  52.0819352  11.0917397  17.7537480
  53.5217935  10.7694454  18.0912724  79.8121128  10.7460349  55.8322668
  79.3648204  10.0243228  55.3903532  79.1459713  11.1256926  56.4052820
  24.3077898  71.9430828  68.2254505  25.0272918  71.3444948  68.4260559
  24.1366839  72.3969650  69.0506458  80.8386392   0.1721640  15.9994068
  81.6782231   0.1411171  15.5407562  81.0626907   0.0296469  16.9190445
  78.9953197  42.3328495  67.4017525  78.1833423  41.8512344  67.2437191
  79.3334324  41.9701719  68.2205200  68.2392318  53.9881344   1.8359032
  68.6768443  54.8208065   1.6587439  67.3086352  54.2094155   1.8713322
  12.2935927  58.5712290  16.5218914  11.8912733  58.3505297  15.6818545
  13.1579828  58.1614208  16.4884949  21.4630365  67.4724674  66.0575294
  21.9605851  68.1118059  65.5476999  21.3081002  67.9043484  66.8975973
   7.8008318  32.3643446  56.5125132   7.2058707  32.5455141  57.2401333
   7.2237474  32.1723986  55.7733536  36.4827991  37.5551081  67.8634882
  36.9730663  36.7906380  68.1658983  37.0552015  38.2979512  68.0552435
  28.7858068   1.3228553  24.3857074  28.5443504   2.1983855  24.6879983
  28.0832204   1.0746901  23.7848592  69.4334782  60.3308296  14.3348515
  69.9533869  59.6917677  13.8474858  70.0364317  60.6792879  14.9915528
  51.8330464   8.9877169  38.3903217  52.6399502   8.6022799  38.7317610
  51.1608204   8.7362807  39.0236664  77.5788397  28.8014288   5.4103031
  76.8503756  28.3688708   4.9648085  77.1889037  29.5812292   5.8053866
  68.1111917   7.3980182  55.9846687  68.9662847   6.9998305  56.1474228
  68.3083019   8.3103888  55.7726097  13.2920659  66.4919233  57.5254965
  13.1725979  67.3751545  57.1764135  14.2090499  66.4643431  57.7986479
  38.9408135  63.1017256  67.3823833  38.4831738  62.2994089  67.1312094
  38.5881853  63.3184099  68.2454777  65.3094572  14.2964955  15.5007591
  65.9711481  14.5669003  16.1373749  64.7060734  15.0380202  15.4528179
   7.6857003  11.5142768  59.2037201   7.4445923  11.5372317  60.1297760
   6.8672188  11.3178962  58.7479210  55.6376133   4.6142142  43.6685324
  55.1875004   4.1431659  44.3697834  55.3715596   4.1627066  42.8675413
  70.4916534  15.7331984  63.0071640  69.6033725  15.4185908  62.8391981
  70.3687343  16.5810435  63.4341049  27.8528508  25.9735911  58.4918165
  27.3320397  25.7364981  57.7244997  27.3138245  26.6116660  58.9593029
  14.3732756  17.0375510  39.2178860  13.7659567  16.6336842  38.5979786
  14.4665640  17.9387875  38.9091816  24.9318975   7.5977080  63.0876064
  25.1026288   8.5305732  63.2173824  25.7449612   7.1665328  63.3507586
  63.2158411  38.8454933   0.2140703  62.4740798  38.4476157  -0.2416906
  63.1215275  38.5574885   1.1220303  27.0991152  79.8338146   6.0325184
  26.3706368  79.6390839   5.4429140  27.8825205  79.6730061   5.5065384
  29.0786733  33.3885424  64.2190504  29.2107387  33.7926238  63.3614302
  28.8092811  32.4913733  64.0221739  65.7499612  20.3153248   6.3593998
  65.4124165  19.4812603   6.0328522  66.1885554  20.7081623   5.6047192
  48.3858264  25.0207491  11.3128987  47.5063742  25.0742789  10.9388294
  48.4256906  24.1495247  11.7073765  56.4968318  20.0128718   4.0551987
  56.2245198  20.7591648   3.5212269  56.0055377  20.1100607   4.8709288
  22.6983953  72.6134253  58.8641167  22.7027154  73.4494257  59.3302965
  23.2844925  72.7511263  58.1199694  49.4674906  13.3284705  39.5957255
  48.6721692  13.8378375  39.4400454  49.1764817  12.5856822  40.1246977
  64.6535016  41.4091988  12.5886955  64.6691996  41.5967484  13.5272064
  65.2285910  40.6508942  12.4863377  82.9525588  38.8608027  45.2907276
  83.2872063  37.9937911  45.5199242  82.1974487  38.6853456  44.7292519
  65.6182517  55.4752541  49.4460869  65.9295739  54.6018696  49.2083693
  66.3933850  55.9211063  49.7875786  11.6943558  17.5051635  50.2287579
  12.0028838  16.7678683  49.7020388  12.2652014  17.5060885  50.9971094
  18.2962763  61.4117098  44.7035885  18.6445117  60.5250168  44.6101046
  18.3560741  61.5949059  45.6411886  64.8547632  55.3731938  11.7490044
  64.2118574  56.0709973  11.6226139  64.3308682  54.5998116  11.9578877
   0.6616476  43.6532927  31.1851478   0.3478999  44.4891071  31.5304112
   1.5018643  43.8628721  30.7772970  44.7761505  60.0449391   4.2539492
  45.4506176  60.7238026   4.2755118  44.0607088  60.4013081   4.7806206
  51.9607005  16.7324584  55.9497213  51.3951954  16.9614260  56.6872931
  52.6419553  16.1798327  56.3327694   1.6449254  42.0146771  26.1254540
   1.3958901  41.2246914  25.6457272   2.3163932  41.7196961  26.7405548
   8.8667448   0.1021235  68.0912733   9.1699751   0.8389514  68.6217213
   9.2724379   0.2401965  67.2353649  31.4562249  57.9862261  40.8881617
  30.9071970  58.6363840  40.4498720  32.1455407  58.4996700  41.3094044
  42.2718924  16.9357462  18.0342522  42.9362171  17.5678606  18.3087197
  42.7723520  16.1734457  17.7432575  16.2646025  20.8427115  17.0582333
  15.9475010  21.4951296  16.4337101  16.4621847  20.0744934  16.5224781
  76.4565143   9.7041648  58.8685369  76.2442741   8.9344065  59.3964100
  75.7864484   9.7180884  58.1851244  24.6123806   2.1386569  58.1900597
  23.7158591   2.4738257  58.1781673  24.5940840   1.4284652  58.8315630
  56.6261647   8.0994721   4.8516073  56.6940982   8.2240267   3.9049807
  57.2169884   8.7549467   5.2224388  66.5138683  34.5381968  42.3173094
  65.7505951  34.8325389  42.8143072  67.2293720  34.5411151  42.9531384
  71.9501669  27.6891012   8.8065233  72.5701911  27.8644057   8.0986586
  72.1379954  26.7888327   9.0719738  66.1602721  16.6188948  59.5739222
  65.7974443  17.2589057  58.9615726  65.4408393  16.0089629  59.7371149
  74.2914686  21.7487757  50.5209875  74.0729818  21.5724509  49.6058941
  74.6610984  20.9261554  50.8417797  78.6780033  14.3258422  36.6965175
  78.8103780  14.2127078  35.7552886  78.1400833  15.1142066  36.7696786
  22.8494263  61.0399199  59.3352604  22.3735929  60.4313135  59.9004269
  22.3899174  60.9971285  58.4966564   3.8614553  31.8594861  52.6959562
   3.8682795  31.4173174  51.8470335   2.9618603  32.1706223  52.7967262
  20.3339598  55.4137375   3.1487503  21.2338993  55.2169397   3.4087744
  20.3882018  55.5843356   2.2084418  52.2538195   4.9825306  21.5767994
  53.0755973   5.3185101  21.2189903  51.7057187   4.8225851  20.8085289
  35.7610721  14.3578167   3.7479534  36.1470122  15.1304503   4.1606512
  35.8523244  13.6657019   4.4028464   0.5513230   3.9248854  48.5392380
  -0.0124259   3.1513220  48.5435867   1.0014716   3.8979477  49.3835592
  84.1255390  18.9012134  51.3393545  84.9601389  18.4819388  51.1298704
  84.0720859  19.6428120  50.7365227   7.8170782  16.3763797  59.9147797
   7.6383400  15.5122185  60.2856016   8.1916040  16.8756390  60.6405210
  42.0550243  75.7040010  60.9125376  42.8904585  75.8888669  61.3416147
  42.0817117  74.7645480  60.7310247  16.4023042  47.8007889  55.7740450
  16.3246512  47.2800159  54.9746704  15.9659839  48.6267519  55.5651331
   3.9050642  29.3135285  57.2853613   3.7183493  28.7149215  56.5621471
   4.5390829  28.8439512  57.8273487  39.2539963  61.5543773  13.6783352
  38.4121904  61.1710861  13.9246788  39.7720728  61.5317681  14.4829025
   8.9897865  50.7275009  68.9532089   9.6303588  50.4072285  69.5882845
   8.2296723  50.9708643  69.4816351  56.3273481  70.9610868  19.2501438
  56.8296287  71.7759127  19.2524219  56.5393973  70.5513568  18.4114611
  17.6875365  26.0733962  49.1134167  16.7950201  25.8795881  49.3999195
  17.6264954  26.1275792  48.1597042  75.3466679  48.4847355  29.9164319
  75.7608391  48.7295437  29.0889287  76.0061766  48.6813402  30.5817366
  15.5390668  35.2858090  31.0940647  15.3759420  34.7276187  31.8543553
  14.6813214  35.3842616  30.6807685   3.8878787  62.5203037  47.3264027
   3.1605196  63.1245375  47.1778107   4.6722525  63.0562735  47.2092438
  71.3713003  15.2809000  60.2986956  71.4185084  15.4312015  61.2428427
  71.3617648  16.1584961  59.9166393   6.3301384  23.6216545  65.1260853
   6.4862508  23.2923722  66.0112000   6.3072419  22.8365254  64.5790195
   6.0021288  58.3757608  62.7809546   5.2128846  58.1216840  62.3026577
   6.4493138  58.9883189  62.1969775  79.8494755  78.7493422  16.1811199
  79.1600118  79.3796923  15.9724751  80.4090105  78.7405946  15.4045429
  48.7128172  71.4003446  12.8263417  49.3916902  71.8989089  12.3715916
  49.0595612  71.2739184  13.7095204  71.3483287  20.2495980  30.5775285
  70.5144585  20.1502275  30.1181626  71.1652328  19.9605834  31.4714956
  63.4419183  75.8680377  41.3608980  62.7606277  75.5423141  40.7727003
  63.4559301  75.2393682  42.0825720   0.2912243  47.3833230   9.7593823
   0.4637106  48.1129780  10.3544274   0.8425435  46.6723248  10.0861254
  22.0426798  32.8935027  62.6742363  22.2636485  33.1357145  61.7749357
  21.0929990  32.7742219  62.6636934  17.2436547   5.9470946  18.6358559
  16.7636740   6.5818036  18.1038821  17.6604307   6.4731103  19.3183780
  11.8289101   9.2233628  34.7370553  11.1078346   9.6899986  35.1595879
  11.4007235   8.5566390  34.2000580  26.9326312  42.4197538   0.3124323
  26.7677450  42.2732706  -0.6190119  26.5426204  43.2750204   0.4931059
  12.1041143  12.3002350  69.0871763  13.0514538  12.2551370  68.9577675
  11.9920003  12.8904259  69.8323870  28.6101484  54.1575670  66.5212059
  28.8863492  53.9213991  65.6356716  28.7648058  55.1005459  66.5768528
  82.5046806   6.8849808  45.5288076  81.6295154   6.7128396  45.8762026
  82.4130891   6.7729324  44.5826101   3.8166752  75.1931090  61.2810659
   2.9279986  75.4750139  61.4978933   3.9335981  75.4515959  60.3668737
   7.5863385  31.0123134  51.9927883   8.2110953  31.4307141  51.4004612
   7.5225461  30.1112771  51.6760921  74.1033853   6.6844553  12.5556076
  73.3178378   7.1333891  12.8680265  73.7713362   5.9804016  11.9985759
  56.7485357  53.9348936  60.2971935  56.1307551  53.4598064  60.8529520
  56.2133695  54.5909262  59.8505926  82.1496434  39.7213078  58.1751728
  82.4239023  40.2934837  57.4584961  81.2365226  39.5120502  57.9785633
  64.2242965  36.7649868   4.8189535  63.4728632  36.2682288   5.1426974
  64.5312795  37.2580093   5.5798235   2.5298175  50.0619745  69.2341518
   3.1333196  49.7049713  68.5825682   2.9547235  49.8890972  70.0742722
  82.1053148  54.5292854  65.9688759  83.0324591  54.3343258  66.1053562
  81.6661746  54.1496515  66.7299747  68.9749802  18.2809317  55.2017164
  68.6227645  17.9049444  54.3949890  69.9097956  18.0771875  55.1727247
  15.1493549  42.6245785   8.8455588  14.7155404  42.8412151   8.0202669
  15.7360661  41.9011307   8.6250472  19.9630260  45.9868097  57.2673416
  20.2765155  45.1499033  57.6101875  19.3555558  46.3064861  57.9344416
  80.8904419  59.9466445   2.2830239  81.2248239  60.8366754   2.1722737
  81.5351543  59.3921580   1.8435660   1.4985414  38.5562205  63.6383486
   0.6148995  38.8818789  63.4670115   1.4913599  37.6583028  63.3067989
  19.9921393  51.0667753  69.7143412  19.0986419  51.2298393  69.4121790
  20.5257273  51.7035294  69.2388868  26.4070717  31.0965582   5.8423748
  27.1311708  31.4963933   6.3240853  26.5929741  31.2927737   4.9241295
  15.0398982  45.9265518  38.3495831  15.1181877  45.8971310  37.3960447
  15.3132439  45.0561666  38.6393142  30.2469492  35.5754447  45.3811455
  29.4205236  35.1803708  45.1033592  30.5847025  34.9792719  46.0495234
  25.5481219  53.0241203  48.1811857  25.6597376  53.3857203  47.3019743
  26.4132881  52.6864290  48.4128857   1.7834850  58.5033417  16.1069536
   2.4131665  58.6577940  16.8111384   2.1035460  59.0354252  15.3784776
  30.3214684  63.9366939   5.0542250  29.9883130  64.5985177   5.6602183
  30.0057353  64.2177179   4.1954031  47.8655944   1.4758628  23.7202477
  48.1096646   2.3979991  23.7998462  46.9798121   1.4306205  24.0802121
  74.3514642  49.2582288  42.2313824  75.0565443  49.8977818  42.1310463
  74.1035947  49.0323731  41.3348427  78.8476009  59.1209936  68.5869217
  78.6896051  59.7268581  69.3109369  78.0818946  59.2192078  68.0209875
  67.3161448  41.4716625  54.2422533  67.9204525  42.1942759  54.0723467
  66.4921261  41.7494297  53.8421679  68.4708775  56.8104458  67.9935837
  68.2923366  57.2561646  68.8216496  68.1032241  55.9342480  68.1090736
  83.2107308  42.0774841  64.6062517  83.2589079  41.1312532  64.7424650
  82.6292647  42.3899508  65.2994299  18.4653568  38.3073902  34.7033167
  19.4155574  38.1919432  34.6987486  18.1429100  37.6643014  34.0718937
  11.1562157  44.3536949  60.7924604  10.3098309  44.7986555  60.8357906
  11.5977812  44.5992136  61.6054630  19.4745731  24.6419358  21.0267591
  19.0796804  23.7973046  20.8102202  19.6047187  25.0695252  20.1803184
  61.9881560  28.2860255  58.5773563  62.4536730  28.7291574  59.2866945
  62.6800753  27.9824209  57.9897308  56.4144096  56.7412796  19.5227375
  55.9477696  57.0893803  18.7629357  55.7503090  56.2517121  20.0080433
  10.9414124   3.9240626  50.2740192  10.0654650   4.1125175  50.6108141
  10.8163631   3.1807941  49.6839762  19.8069084  23.8639498  53.5843658
  19.4050705  23.9818621  52.7236366  19.1018617  23.5198116  54.1327333
  25.8458559  64.3736024  36.7225242  26.3370697  64.2768545  37.5383568
  26.0235373  65.2710314  36.4409518   1.9588248  44.5783567  50.1105356
   1.1511639  45.0773859  50.2325439   1.6651620  43.7141752  49.8221207
  64.6614052  62.9515600  66.7033625  64.7523833  63.8525724  67.0134115
  65.0557495  62.4194765  67.3944569  41.9177086  37.4410267   8.3826008
  42.1150631  36.5578528   8.6945000  41.0418338  37.6248093   8.7221613
  83.6041921  42.9247808  39.2250085  84.0773458  42.9309225  38.3929515
  82.7879138  42.4632215  39.0329552  12.9308450  26.7336154  54.0481281
  13.2079315  27.5332522  53.6008739  12.4172890  27.0423651  54.7945642
   1.5738529  26.2327147  58.9594746   1.4023328  25.3561473  59.3036318
   1.4019123  26.1593246  58.0207109  64.0565897   0.2888277  58.9661503
  63.3109785   0.4374382  59.5477104  64.5151211  -0.4582273  59.3507147
  11.3063574  32.2786069  40.6974888  11.8330479  31.9259238  41.4147329
  11.5693629  33.1969261  40.6362724  74.1125787  15.9976280  41.4204931
  74.6822537  15.2560079  41.2162828  74.6497465  16.5679669  41.9704008
  14.0231371  10.3499734  63.0876589  13.8653433  10.8418214  62.2817945
  14.9346328  10.0656378  63.0201340  10.3403852  59.2761102  21.0616532
  10.0436315  60.1666405  21.2490692  10.2202723  59.1774192  20.1171627
  77.7915473  43.8960838  44.0673733  77.4821283  44.2690134  44.8928499
  77.9324837  44.6540403  43.5000420  27.0445704  78.7378883  54.1035604
  26.3148165  78.2835531  54.5245981  27.4400997  79.2564631  54.8041773
  75.2701832  49.7937584  58.0625439  74.3184186  49.8952770  58.0540800
  75.4478027  49.1439629  57.3825121  23.9247441  28.7494421  47.2483253
  24.5563030  28.7159443  46.5298223  23.0715680  28.6738539  46.8209934
  47.8132248   6.7655820  38.7339377  46.9966221   6.4667690  39.1340709
  47.8980160   7.6768023  39.0145063  44.2139453   0.5659027  18.2800427
  44.3104274  -0.3633313  18.4884777  43.5980005   0.8954592  18.9344444
  43.9652920  25.8594155  43.5698652  44.5120811  25.7483792  42.7920961
  43.5202932  26.6956639  43.4324074  57.1327791  68.4092524  12.7048435
  58.0524621  68.6382868  12.5708237  57.1554694  67.6790502  13.3233204
  61.6513706  28.8018322  39.5861793  62.3123051  29.0238023  40.2420187
  61.3031984  27.9576588  39.8731995  63.3512784  53.9654684  42.5581408
  63.8370062  53.2159519  42.9024124  62.7114106  54.1699028  43.2400560
  23.1425738  14.9466085  51.7986059  23.9224720  14.5785582  52.2139740
  22.7219629  15.4581821  52.4897003  69.1765222  61.8145182   8.0422631
  68.6976204  61.8033817   8.8709774  69.4799337  62.7179697   7.9530945
  27.0912478  74.8029258   3.6919728  27.1929179  73.8732817   3.8960781
  26.1719069  74.8939946   3.4414711  41.3540507  65.1383972  32.9927874
  41.9612027  65.8765936  32.9412055  41.1424447  64.9381542  32.0809984
  23.6266923   6.8056041  67.6778126  24.5799208   6.7278671  67.6385403
  23.3472323   6.7903960  66.7624426  10.7270932  40.6447268  23.5835314
  11.2632322  39.8664927  23.4314108  10.0427508  40.5983686  22.9158807
  16.3590395  57.2132158  10.8695245  16.5255654  56.6744804  10.0960481
  15.4305339  57.0790005  11.0595071  16.4255855  37.8243085   3.5513630
  17.3208615  38.0749222   3.3235398  16.4639029  36.8744578   3.6633816
  75.8710892  71.3344860  45.7359409  76.7653401  71.6729879  45.6916046
  75.6882645  71.0240364  44.8491383   1.6202386  42.3847342  44.8231602
   1.5824236  41.4333773  44.7245550   1.2371211  42.5516891  45.6843138
  82.5037045   2.0324250  19.5909538  82.5143594   2.8413649  20.1025524
  81.5783042   1.7929573  19.5407429  -0.1902214  61.2482071  49.3089294
   0.5593128  60.9512281  49.8249054   0.0045676  62.1637106  49.1085768
  24.7973284  64.0151312   9.8092070  25.4109514  64.7182181   9.5962086
  25.2396327  63.2161548   9.5224419  21.0766029  39.5301461  64.9837637
  20.4305387  40.0839758  64.5454693  21.3583088  38.9114928  64.3098593
  27.7524567  40.9991550  37.6523972  27.4634051  40.5360842  38.4386826
  28.6267471  40.6510687  37.4772263   1.4513424  74.1442537  29.9502707
   0.6848067  74.4466734  30.4372978   1.1840507  73.3022785  29.5816708
  26.3193819  67.1727135   5.1481095  27.1373609  66.9911578   4.6853152
  25.6334132  66.9197919   4.5302811  22.6677179  62.6265764  52.8794622
  21.9287968  63.1397104  53.2064533  22.4931026  61.7354441  53.1821585
  -0.0085995  38.1443691  48.5417795  -0.0995569  37.3166990  48.0696344
   0.6497721  37.9659414  49.2132998  78.1471080   5.2284498  21.3045349
  77.7352638   5.3930540  22.1527806  77.9528469   4.3098803  21.1181870
  31.5969292  74.8885352  24.4001150  31.6415159  74.7146744  23.4598947
  31.4008729  75.8234096  24.4617820  55.6005845  54.0096142  20.1992359
  55.5861673  54.2517855  19.2732849  55.1835260  53.1485333  20.2281132
   5.9390700  79.1953421  52.4367666   5.4060787  79.4299889  53.1964302
   5.4632676  79.5574617  51.6892958  79.9610985  38.4350300  56.8287659
  80.0739748  37.4896717  56.9277143  79.3196006  38.5272169  56.1243439
  76.1216689  25.2176881  43.7977409  76.3000656  24.7054434  44.5864201
  76.9467522  25.2057052  43.3126354   0.2460269  33.5813928  45.4615736
  -0.1343292  33.0779052  44.7418118   0.8656194  34.1750407  45.0374079
   8.8001925  46.3272429  66.4930058   9.1251016  47.2255993  66.5532064
   7.8673214  46.3958168  66.6961813   2.7018839  41.0744715  60.9906292
   2.5482476  41.5548658  60.1770878   2.4359438  40.1765680  60.7924461
  13.1394875  79.5588589  60.3461170  12.8087735  80.4481983  60.2198887
  13.5649133  79.5809412  61.2032986  23.2431149  21.8766618  68.3054543
  22.3211432  21.6229200  68.2628345  23.4637690  21.8222499  69.2352867
  42.2613621  60.6287718  50.8185863  43.1888151  60.4436398  50.9661961
  42.1380424  60.4995632  49.8781967  51.9034323  54.7812107  25.2602616
  51.5222201  54.6738842  26.1316910  52.5346574  54.0655663  25.1851692
  10.0592339  50.0762987  36.1789322  10.4736161  50.5261374  35.4426146
   9.1513753  49.9508476  35.9027290  77.5520955  78.8933804  14.0789070
  78.4597526  78.9760663  13.7864151  77.2173987  79.7901561  14.0776100
  64.8415614  22.0506454  59.2241764  65.5508245  21.5296650  58.8476706
  65.2712012  22.6046157  59.8759079  41.4059324  28.0354233  14.5264473
  41.2697357  28.9828368  14.5168057  42.1737248  27.8981610  13.9715710
  65.6662680  13.2915044  12.8996372  65.3966070  13.5919404  13.7675393
  66.3973404  13.8630068  12.6647973  82.3181758  31.2987685  56.7356157
  82.5619821  30.3731632  56.7289066  82.8336967  31.6873670  56.0288906
  13.7687612  52.1799278  58.9682579  13.5777628  52.7184677  59.7361946
  13.0346096  52.3395777  58.3751583   1.6627925  10.3159256  19.1235867
   1.8204063   9.9460478  18.2549229   0.9077900   9.8310919  19.4569626
   6.8780303  53.2625961  55.9718847   7.1676087  54.0193748  55.4623127
   6.0649747  52.9861021  55.5491257   5.4720676  56.6845083  37.5937319
   5.2114671  57.5786495  37.3727512   6.0410458  56.7826223  38.3571911
   7.8439283  23.6451221  58.6329031   8.2208300  24.5161772  58.5086441
   7.5888389  23.3668184  57.7532959   9.7360086  39.8556972  54.2301893
  10.5083561  39.3616152  53.9552450   9.9472237  40.7657766  54.0219259
  62.4595985  67.9681709   7.0446673  63.1298337  68.1186631   6.3780585
  61.7082414  68.4823801   6.7492333  39.1811252  18.1272864  42.1040154
  39.4216514  18.2030153  43.0274010  38.4761620  18.7641501  41.9871330
  17.5829828  28.1647706  66.1381388  16.6750598  28.4102845  66.3159895
  18.0893528  28.6126423  66.8158007  83.3708114  13.5979529  18.3583966
  83.6070103  12.9794903  19.0497341  82.8203935  13.0911131  17.7614155
  56.0618497  50.1657057  38.6623549  56.6189290  50.4364204  37.9325557
  55.6191183  50.9688711  38.9364791  20.6849313  30.5598402  60.2366829
  20.5533290  31.4764190  59.9942064  21.6204715  30.4084635  60.1022148
  27.1189524  62.5337722  51.1291065  27.0263949  61.9911697  50.3460064
  26.2745431  62.4588087  51.5736141   3.4048739  25.3843975  17.0866394
   4.0889946  25.8124256  16.5718567   3.8734469  24.7447562  17.6228595
  44.3696994  22.8526898   6.8176451  43.9664108  23.5418291   7.3455467
  43.9524454  22.0454331   7.1184197  68.1018151  43.0251789  63.0096579
  68.3090545  43.3851719  62.1472836  67.7798427  43.7743998  63.5108900
  80.4538150  36.1237121  52.5757504  79.6266867  36.1526608  53.0566359
  80.2259565  36.4063549  51.6900730  17.1987331  31.6083694  19.2105353
  16.8878186  31.5044403  20.1098490  16.5689945  31.1188817  18.6813235
  67.7405537  30.2539301  57.4550962  68.5055019  29.9027681  57.9109192
  67.9659761  31.1670613  57.2773075  23.3679080  17.9112625  52.2338057
  23.0827808  18.8197505  52.1359062  22.5605011  17.4227893  52.3941898
  77.1459128  56.6620350  67.2131777  76.8868889  57.5835085  67.2180605
  76.3591910  56.1906385  67.4871969  57.6989779  51.0262146  26.8157425
  58.0183682  50.9604921  25.9157982  58.3493957  50.5542650  27.3357907
  72.9178549  27.2908616  61.3340569  73.0925001  26.3499427  61.3139296
  73.7814857  27.6964545  61.2574625  63.3811737  15.1576257  42.9373026
  63.8299895  14.4041693  43.3208418  62.7509214  15.4266703  43.6056089
  33.7724400   2.6476926  14.1469669  32.9918122   2.7167657  13.5973489
  33.5788393   1.9289285  14.7487390  65.4117394   2.8187390   7.4012461
  66.1758811   2.6127739   6.8628254  64.9179268   3.4542723   6.8831005
   6.4893329  50.5990076  21.3337803   6.5810537  50.3776407  22.2605038
   7.1466869  50.0608301  20.8927774  79.5722742  42.3070478  42.3473644
  79.1202093  43.1040573  42.6242161  78.9787502  41.9025278  41.7146540
  63.9257527  23.2414389  63.5714531  64.4553877  22.4441338  63.5665274
  63.3558751  23.1457090  64.3345404  26.2109861  52.0433166   5.6936970
  27.1129959  52.2887888   5.8994951  25.7355735  52.8738453   5.6727734
  58.3245167  46.9178220   3.8144865  58.1941876  46.9101080   4.7627392
  58.3629236  47.8464469   3.5855475  85.0408217  15.1135528  27.6736927
  84.3843842  15.4523206  28.2824278  85.1994131  15.8359587  27.0660663
   4.0612283  17.8490496  50.3766108   4.0119833  17.1441197  49.7309446
   4.9162424  17.7345932  50.7914400  72.4856843  57.5602150  53.2048512
  71.5714921  57.5921869  52.9229593  72.7268804  58.4766340  53.3398724
  74.5116715  80.2431387  24.9879861  75.2580182  79.7491595  24.6485996
  74.4352798  79.9648005  25.9006333  22.0354176  48.3616781  22.4704885
  21.1781192  48.3790398  22.8958917  22.5367928  49.0458727  22.9140377
  14.1577554  16.2351477  11.8320847  13.9594746  16.3492596  10.9026253
  13.9489937  17.0816290  12.2272050  35.4820490  38.6663342  56.8592024
  36.2834406  38.1763268  56.6750860  35.4602957  38.7401295  57.8133059
  42.9789347   2.1466084  15.1484051  42.9464239   1.2321492  14.8674526
  42.1691543   2.2742863  15.6425610  17.3366618  26.4263964  57.9027939
  16.5979421  26.7812610  57.4082279  17.6386452  27.1584249  58.4405422
  79.3668295  42.9182243  52.4705887  79.9017812  42.7377653  53.2435656
  78.4701384  42.7370071  52.7522564  19.2726481  51.1681604  53.7726355
  18.4322476  50.7438898  53.5995722  19.4065487  51.7488384  53.0235577
  47.3979935  77.3596337  17.9338684  47.9195914  77.5222542  18.7198200
  47.9896805  77.5588062  17.2082844  33.4057403  30.7672858  53.5054636
  33.5521650  29.9368358  53.9583921  33.8337040  30.6558132  52.6565504
   1.4298017  47.3872185  33.4894395   0.9256960  47.3783684  34.3030930
   0.9012902  46.8783045  32.8746939   2.9454449  28.9811611  59.9475145
   2.4597600  28.2575035  59.5517111   3.1306601  29.5726299  59.2180681
  82.9417400  45.2765131  68.3851671  82.6803951  46.1725330  68.5974789
  82.3296086  44.7263098  68.8738394  67.5211367  63.4276273   3.9344158
  66.7217121  62.9014137   3.9185896  67.9399595  63.2020404   4.7650376
  26.5586567  10.2561569  62.4307585  27.0694804   9.7328746  61.8131304
  25.7037139  10.3543746  62.0116377  21.7664170  25.5394053  54.8792076
  21.4856720  25.8775020  55.7295609  21.1229777  24.8636103  54.6658611
  62.4910523  34.9963093  59.4950867  62.6039053  34.1277313  59.1089916
  62.3343063  35.5724549  58.7469435  82.8959514  26.9051075  50.1150036
  82.6766099  26.1629200  49.5517254  83.6747221  27.2893906  49.7124195
   2.4557410  23.3682418  35.7747436   2.6047048  22.7695942  36.5066338
   1.5241361  23.5820556  35.8260012  40.3183410  57.1965053  10.3277531
  40.5733094  56.6166105   9.6101608  39.3618557  57.1605625  10.3364411
  27.3263073   6.4290160  53.9274836  27.9777956   6.4253944  54.6287537
  26.8517900   7.2518790  54.0456390  27.8193808  40.3723717  46.6443682
  28.7402534  40.5592823  46.4619207  27.7051020  40.6076002  47.5651503
  21.1591887  28.7757134  34.1031599  21.3812590  27.8986597  34.4157171
  20.9676147  28.6570716  33.1728601  71.7868961  74.3095016  40.8982277
  71.0956932  74.9277592  41.1353540  71.6707958  74.1693068  39.9584961
  25.5154586  29.6150923  58.0144119  24.9258327  30.1700664  57.5039482
  26.3910222  29.9419045  57.8074980  75.8141161  38.4792590  56.8557072
  75.1423646  39.1079593  57.1197462  75.4791779  37.6326442  57.1511602
  27.9879475  19.4975126  59.3775988  27.3824286  19.1889548  58.7035322
  28.7105393  18.8701212  59.3557978  19.4758594   8.1212693  32.9263353
  18.9433897   8.8234001  33.3001280  20.2779818   8.5566640  32.6377845
  22.1889305  38.8858628  32.0529485  22.2529864  38.5946321  32.9625154
  21.4146185  38.4381175  31.7120647  17.7336952  63.5656931  19.9770584
  17.7925965  63.5057857  20.9305706  18.5431800  63.1640580  19.6613827
  36.6024754  60.9578326  14.0944138  36.0194758  61.6697147  13.8306561
  36.4574948  60.2745607  13.4399262  56.6965319   9.8093885  65.0094366
  56.7021776   9.5442998  65.9291792  55.8782936  10.2950287  64.9051619
  61.6138396  73.4875777   9.8713484  60.6703744  73.3379152   9.9322500
  61.8068847  73.4219029   8.9361181  38.2618839  21.1626263  10.0152483
  38.8529307  21.1768837   9.2624607  38.8387531  21.0488386  10.7705631
  77.8227730  61.5404415  46.2480927  78.6663992  61.1593199  46.4915562
  77.3471112  60.8223581  45.8305550  77.6391048   2.8580065   1.0270872
  76.8596894   2.4781437   0.6215706  78.2883639   2.1550722   1.0030165
  35.3606037  53.8902428   0.8418026  35.5180893  54.7642591   0.4846945
  35.1110545  53.3628573   0.0829735   9.1503513  41.1647034  64.3877554
   9.0455937  41.9101000  64.9790573   8.3096772  40.7085991  64.4260597
  72.5981141  69.5948219  66.6755438  73.2992579  70.2443075  66.6226959
  71.8026484  70.1111364  66.8054819  15.0931058  33.3037176   7.9088488
  15.8426175  33.4132918   8.4940472  14.3545827  33.1362786   8.4943190
  66.9071542  57.4154105  13.5949936  67.7488242  56.9963469  13.4155216
  66.8246470  58.0868223  12.9177704  13.5912523  78.6390879   0.8542195
  14.5079503  78.6692860   1.1280575  13.3388195  79.5576599   0.7607546
  66.8453867  27.4220963   3.9371433  66.1093396  27.5855990   4.5268336
  67.6109463  27.3960848   4.5111408  17.7718079  22.3306870  33.2080913
  17.1810424  21.7283988  32.7558994  17.2985375  22.5794601  34.0020418
   3.7992331  34.9718285   1.7505671   4.3799391  35.6630611   1.4324300
   3.9297631  34.2483616   1.1375504  12.6164460  56.7113256  52.5835991
  13.2173562  57.2147179  52.0342970  12.9804170  55.8260345  52.5878334
  63.8019348  62.2439384  45.6375170  63.4880878  61.4694881  45.1706553
  64.4284297  62.6480103  45.0371313  48.4771464   9.3847030   0.7784986
  48.8688192   9.5905726   1.6272873  47.9317650  10.1447432   0.5757157
  34.2450738  22.3414373  57.5320673  33.9002872  21.6310954  58.0731487
  34.6657801  21.8986082  56.7950821  74.9721927  33.1564160  24.8100605
  75.8915002  32.9607888  24.6288529  74.8623842  34.0667553  24.5353832
  68.1794895  25.9096718  26.9455338  68.7485493  26.3141084  26.2906814
  68.7673808  25.6816983  27.6657033  45.5327890  41.5507079  20.1609650
  44.6282634  41.6036075  19.8523083  45.5364856  42.0488951  20.9782925
  74.7647549  56.3717842  52.5455189  75.5927910  56.8220282  52.7124548
  74.0952326  56.9726610  52.8725004  81.5006120  12.0174503  45.9673595
  81.9558148  11.3944232  45.4009151  81.1395897  11.4803982  46.6726732
   8.0366039  59.1099167  31.4720297   7.3415375  59.1342545  32.1296954
   7.6849908  59.6069717  30.7334280  12.4091315  57.0899630  47.7986240
  11.7819035  56.3701057  47.7306461  13.2465219  56.6619635  47.9770136
  25.1033348   3.1954260   1.3559952  24.2148370   3.5230751   1.2165346
  24.9892134   2.2617550   1.5333834  15.1912642  54.7730446  46.7958736
  14.9543381  55.1137018  45.9332895  16.1257482  54.5772886  46.7276716
  74.4117130  26.1458421  58.1146097  74.4777299  26.1780977  57.1602345
  75.0725032  25.5057383  58.3789062   6.9742435  65.4066038  50.7870626
   7.7401429  65.0843525  50.3118944   6.4630425  64.6203756  50.9787703
  23.0305624  46.1700583  63.4082842  23.4838367  46.8986702  63.8324261
  22.4810600  45.7962465  64.0971565  51.8868742  62.9227021  19.4410172
  52.4042711  63.6099460  19.8608151  51.1855778  63.3926728  18.9898625
  44.0026865  -0.2828843  65.5181837  43.2815227   0.1782840  65.9465265
  44.6366295   0.4037326  65.3110409  61.1828408   0.4361003  22.5732827
  60.7403097   0.6922667  23.3824682  60.5765304  -0.1724393  22.1510220
  74.3119723   6.5724154   1.2396755  74.9349517   5.8764143   1.4487400
  74.8297686   7.3765917   1.2773409  30.0419760  47.2709465  38.7527561
  30.1293898  46.9796324  39.6603489  30.9429622  47.3641062  38.4432793
  15.3121734   6.2905914  62.9385948  16.1846745   5.9042436  63.0141640
  15.3654242   6.8531275  62.1659708  10.3121591  40.4241753  35.2002549
  10.9656930  41.0691118  34.9297380   9.5845902  40.5505085  34.5912266
   1.4141172   3.8860960  12.3010960   0.5909317   3.4292527  12.1282044
   1.7007177   3.5501213  13.1503334  29.9536824  69.1923428  51.3171673
  29.8813033  69.7166300  52.1147346  30.6605315  68.5735273  51.5006495
  44.3893048  77.1848562   5.0189152  43.9654860  77.8147604   4.4359627
  44.5696137  76.4272025   4.4624272  35.8144763  64.7753193  11.3366070
  36.1708006  65.6630161  11.3721028  35.0486794  64.8472264  10.7668534
  77.3428614  36.6878128  37.8418040  76.5481413  36.7290974  38.3737326
  77.1183283  36.0993552  37.1210170  27.4325156  33.2361269  51.6157866
  28.2108235  33.6457968  51.9934607  27.1446753  33.8479590  50.9382582
  29.9844551  54.4789553  43.6746311  30.6380653  53.8321877  43.4087181
  30.4882050  55.2772570  43.8333273  80.4329736  29.9447918  12.8165114
  80.6214840  29.3677807  13.5566139  79.8258926  30.5956268  13.1687856
  18.0965614  28.4149456  30.9742522  19.0106893  28.1344867  30.9301519
  17.5930226  27.6142907  30.8271742  75.4156865  51.1793947  23.3626533
  76.2543965  51.0092402  22.9338837  74.9887599  51.8292236  22.8043604
  21.0101724  52.3683357  51.5802193  20.5156446  52.6439714  50.8084011
  21.1403298  51.4279318  51.4580202   9.3582505  47.2873688  24.0066385
   9.5083433  46.3509321  24.1362238   9.5967519  47.4439812  23.0929542
  25.1337307  -0.2560167   7.0915165  25.0541800   0.2475567   6.2813797
  25.6551951   0.3009625   7.6695147  78.6581558   9.9204417   4.6568289
  79.5572705   9.8248406   4.9709692  78.7426323  10.3943224   3.8294592
  28.7631178  38.6054373  67.5025940  28.2007980  39.3767881  67.5736523
  29.3260431  38.6473823  68.2756329   8.8069105  27.4997234  55.6492949
   8.7785512  27.3895288  54.6988821   9.1933399  28.3658600  55.7785606
  44.0909004  45.2533197  68.7636137  43.2809544  45.2369690  69.2734718
  44.3038034  44.3308115  68.6225843  25.6455731  23.4885025  24.7850394
  25.1960516  23.9675236  24.0888357  26.2844896  24.1118360  25.1306891
  32.4311471  52.3289871  57.6908302  32.5629711  51.7929459  56.9088316
  33.3145595  52.4911642  58.0217552   9.0683144   0.0551195  23.0688324
   9.6200889   0.0289698  22.2871056   8.8504522   0.9808560  23.1773701
   5.0250912  38.3956814  39.3410444   4.4381344  38.2604742  40.0849724
   5.7528198  37.7939272  39.4976759  68.6676456  80.3223324  39.5643735
  68.4106578  79.9827290  40.4216146  69.4879640  80.7879162  39.7272992
  34.8854637  80.1460075  47.7227688  34.8002696  79.2687130  48.0960274
  35.8247471  80.2519512  47.5719357  32.0471591  29.0329905   0.2510491
  32.1308870  28.9120550  -0.6947813  32.8328222  29.5193930   0.5008021
  73.2069315  57.5965261  30.5813456  72.4229206  57.5253296  30.0368357
  73.2744611  58.5297728  30.7831311  23.9652133  12.9654830  44.5001745
  23.1743703  12.7211707  44.0194368  24.3973911  13.6092799  43.9389420
  29.1934562  60.4449081  42.6702642  29.2680550  59.4975090  42.5558329
  28.3595014  60.5664158  43.1241226   5.9889477   2.0115490  22.5408211
   5.8613890   2.2175236  21.6147938   6.8288630   2.4137707  22.7621689
  68.1614340  51.6013527  57.4570179  67.5208760  51.1871004  56.8788195
  67.8628243  52.5074196  57.5351858  81.0844774  64.6517086  34.3689108
  80.2935405  64.1342068  34.5200562  80.9878580  65.4104710  34.9443841
  11.6618705  27.3941445  56.3758898  11.9011259  28.2936549  56.5991974
  10.7060003  27.4057055  56.3267946  52.8609142  75.6467059  21.1772289
  53.4199271  75.7885339  20.4132786  53.4732089  75.4965236  21.8974819
  11.1825466  52.4505424  43.5294008  10.5118454  52.2491026  42.8768587
  11.2496746  51.6549301  44.0573502  81.3014410  37.8304482  36.4579248
  81.9763784  37.5020313  35.8639264  80.6350900  38.2032108  35.8806419
   9.6119088  66.4661169  45.8036470  10.0240207  67.2698307  45.4867268
  10.1176989  66.2278891  46.5806007  76.1831499   7.4069226  69.1155291
  76.0373647   8.2988620  69.4308424  76.3650859   7.5098413  68.1814289
   9.7823894  26.8442583  61.5823507   9.6867579  26.5120411  62.4749422
  10.1318431  27.7286053  61.6920900  72.0224787  59.5261431  57.5438499
  71.8690921  58.8972473  58.2489729  71.1998905  59.5428371  57.0546675
  14.6972263  61.8762207  50.2782726  13.8727427  61.8911648  50.7643127
  14.4455361  62.0632124  49.3738842  26.0452199   8.7306166  46.0274124
  25.4358244   9.4525659  45.8736038  26.9121718   9.1222709  45.9214211
  58.4151245   7.5847197  68.7293577  58.1594802   8.4625554  68.4460163
  57.6337458   7.2339404  69.1567135  22.3799276  25.2904105  32.2831416
  22.7441835  24.8232341  33.0350041  23.1138897  25.7993317  31.9388604
  16.6404128  17.1309519  29.1213346  17.1662962  17.3422194  29.8927259
  17.2443080  17.2299945  28.3853078  52.9209528  68.9977434  14.2281094
  52.2018537  69.0657213  14.8562088  52.7193865  68.2138112  13.7171784
   1.3186353  63.4041452  51.6713667   0.8317749  62.6520061  52.0082474
   2.1573108  63.3722258  52.1316242  74.1738195  20.5241747  34.1586914
  74.3887502  21.4074822  33.8590183  73.9877946  20.0374766  33.3557263
  54.9214315  46.8801975  49.2671824  55.4468489  46.8959045  48.4672308
  54.1255522  47.3612499  49.0404749  83.4367796  33.9236760  19.8330915
  84.2722971  33.4567261  19.8430085  83.1228572  33.8338375  18.9333057
   6.1426145  35.9798861  52.6022434   5.2363229  35.8861589  52.8956413
   6.3457602  35.1444721  52.1814728  35.1354337  77.9790878  32.9705882
  34.8074484  78.8699198  33.0933952  34.6661568  77.4590254  33.6229277
  82.5224371  71.7407751  67.3925400  82.8069509  71.5311813  66.5029621
  82.9570013  72.5695086  67.5939894  12.3934329  40.9108925  30.1268315
  12.5668406  39.9803042  29.9848151  12.5387228  41.3148880  29.2713141
   2.3339474  46.0687876  20.9769225   3.1654042  46.4309645  21.2830925
   1.8159969  45.9516191  21.7733073  18.4236443  48.1057167  38.2960057
  18.1981993  48.7139034  37.5920796  18.4499383  47.2478914  37.8721166
  11.8355596  26.4540744  39.0319276  11.2475634  27.1419406  39.3439078
  12.4922955  26.3687134  39.7230434  17.7012956  47.3344374  51.0064983
  17.3072839  48.1010008  50.5901241  18.4010458  47.6919317  51.5531015
   1.5345363  14.1404068  54.6664476   1.5170379  14.5810771  53.8169003
   0.7616353  14.4714165  55.1239300  25.9650731  41.7291021  40.3424788
  26.0369253  40.7746410  40.3507996  26.5464354  42.0191956  41.0453987
  32.0541811  62.4775314  29.9637628  31.5216160  62.0649481  30.6437492
  32.7553105  61.8483782  29.7939968  29.2230749  51.3140535  57.5282717
  28.6607909  51.8188381  56.9406843  28.9546108  51.5833616  58.4067011
  59.2022094  80.3764751  11.2473812  58.3090410  80.5667999  11.5341892
  59.0925727  79.8731139  10.4406300  26.7708778  32.5545859  69.0266275
  27.1924615  32.7567005  68.1913757  26.0649824  31.9497085  68.7984514
   1.2764900   5.2561064   9.8896542   1.4573210   4.9529286  10.7793846
   0.3773110   5.5822916   9.9258795   6.4198649  28.3464217  30.2698040
   6.2160105  29.0917993  30.8346820   5.8684808  27.6373529  30.6006026
  43.1498528   0.7784683  34.9963403  43.7843752   1.4767875  34.8352098
  43.6167240  -0.0261156  34.7707081  14.7045851  80.0039768  31.6123366
  15.3868234  79.6254110  32.1668386  14.4703376  79.3005753  31.0068727
  18.3528376  43.9982176  52.8210020  19.1823745  44.1987324  52.3875332
  18.3419931  44.5657969  53.5916996  72.9777528  42.7132940  63.4252548
  72.9315246  43.2153463  62.6115942  72.3923124  41.9697714  63.2815075
  37.9384923  20.7363248  37.6454926  37.6883841  21.2454033  38.4165430
  38.0346537  21.3867950  36.9498825  29.1337412  14.9112006  34.7502461
  29.1413277  15.2102347  35.6595078  29.7446459  14.1744490  34.7353115
  16.1706269  53.3192730  57.8313923  15.8722365  54.1608477  58.1762791
  15.5735433  52.6775455  58.2159805  30.3541684  49.3063450  43.6056852
  31.1954117  48.8703966  43.4697151  30.5794072  50.2284956  43.7287235
  21.3994241  18.2389176  44.8619366  20.5484772  18.4806871  45.2275419
  21.2863302  17.3344457  44.5697498  39.3406320  61.9884682  53.8020945
  39.4789267  61.0770273  54.0597486  40.0001431  62.1493053  53.1272554
  18.2778943  56.9684601  55.3633833  18.9942896  57.2535181  55.9306145
  18.6732590  56.8998575  54.4943523  66.4522565  49.2856455  47.8124762
  66.6657509  49.4467258  46.8933964  67.1039177  48.6467934  48.1013298
  61.3436628  24.1924024  32.7061820  61.6592146  23.4126186  33.1629062
  61.7849208  24.1676664  31.8571162  77.2983259   8.1479759  29.9070587
  77.8114480   8.7500735  30.4459706  77.9449338   7.7150746  29.3496361
  74.4005937   5.3202744  15.0070420  75.1869446   4.8087425  14.8167267
  74.2245943   5.7992192  14.1971913  79.5604206  47.2237778  59.3919849
  78.6722059  47.3187590  59.7359085  79.8474933  48.1204081  59.2191505
  25.9494257  33.2828498  47.1730328  25.0289536  33.2212973  46.9177485
  25.9564257  33.0511117  48.1017303   1.4267915  54.3123646   5.1928463
   1.1152905  53.4444638   5.4496517   2.1658199  54.4839688   5.7764759
  21.5125918  67.6210308   7.7075255  20.7728529  67.4306870   7.1306479
  21.9628000  68.3530998   7.2860813  79.8943133  58.0870676  48.0453300
  79.0752370  57.5917864  48.0387402  79.6610869  58.9405251  47.6800203
  52.9073915   6.9760533   5.5691281  53.0422095   7.6049919   4.8602619
  53.7420318   6.9605084   6.0374918  26.9990039  48.0647707  50.5477333
  26.3753510  47.3792648  50.7872534  27.2801304  47.8340816  49.6623087
  33.1576586  28.1816196  21.3811445  33.1546354  29.0721178  21.0300922
  33.5808063  28.2625699  22.2359109  50.5727491  58.9214816   1.3361397
  49.7121439  58.5668852   1.1128607  51.0629019  58.8958707   0.5143585
  37.6236541  41.0270520   1.7397680  37.3609001  41.6171475   1.0333767
  38.5758037  40.9683152   1.6610804  39.6921539  57.7489662  57.3775434
  39.3845510  57.6305008  58.2761955  39.7810650  56.8593645  57.0355844
  13.6446607  46.6494179  67.9611158  13.9307511  47.3278236  67.3494387
  13.4292459  45.9007931  67.4048805  24.7233629  49.1237116  38.9275622
  24.2637086  49.2277145  39.7607088  24.0291071  48.9560032  38.2902932
  76.6189773  53.8316011  47.5605106  77.2244139  53.1067514  47.4047232
  76.7730738  54.0807390  48.4717846  11.0562193  32.3755455  63.8408709
  10.7667482  32.9597735  63.1400776  11.4746988  31.6447210  63.3858967
   9.5290583  51.9815969  21.8740988   9.6572137  52.8668451  22.2148943
   8.7925029  51.6353035  22.3778844  62.9789783  64.3026447  35.4511595
  63.8815762  64.2314959  35.1405406  63.0331613  64.1183662  36.3888884
  15.4580712  43.9882803  31.9748116  15.5319214  44.1517067  31.0345602
  14.5469689  43.7233448  32.1010303   1.2711876  22.5816365  20.1970902
   1.6822546  22.5100966  19.3356171   0.3313988  22.5622244  20.0163880
   0.5924075   9.4429798   7.0370236   0.8949774   8.5348769   7.0421400
   0.3040689   9.5942993   6.1369124  40.3236103  16.8303335  52.9865122
  39.8360872  17.1317244  52.2198820  39.8135829  16.0920036  53.3196354
   4.6553373  51.8513155  35.3284240   4.5280638  52.3086977  36.1595869
   4.8702103  52.5443554  34.7041202  14.3059242  44.4614506  61.2975454
  15.1910961  44.1289568  61.1487150  13.7318480  43.7720394  60.9638071
  73.4152533  61.2748194  25.4042292  73.3516539  61.8024588  26.2003303
  72.5081469  61.0622597  25.1846600   6.5895855  53.0190659  40.1265430
   6.9709313  52.8095102  39.2739630   5.7483703  52.5623751  40.1314306
  80.8999471  49.1223717  41.6542101  81.5932948  49.6595669  42.0375156
  81.3316886  48.2978201  41.4307213  16.2493122   8.1780660  45.7310820
  16.7172086   7.8428525  46.4958954  15.5553114   8.7268186  46.0964155
   4.4111496  68.6490679  48.3319139   4.2703620  68.0289555  47.6164627
   3.7222108  68.4453917  48.9644623  46.5906477  51.6188574  51.1461926
  46.6909266  50.7968187  51.6262245  46.9827223  51.4457703  50.2902985
  64.7882158  10.6727715  11.8312779  65.4787803  11.2982722  12.0506039
  64.1073835  10.8283778  12.4858704  70.5096937  54.0772820  42.2650051
  71.0941244  54.8344851  42.3012733  70.8566714  53.5408401  41.5522146
  38.1713695  13.2627983  20.1192227  37.4557955  12.8141279  19.6688023
  38.5038537  13.8890524  19.4761887  65.9892429  24.2242432  38.4516430
  65.3121425  24.8770928  38.6292839  65.6923915  23.4397221  38.9127707
   2.6418314  22.8087275  65.3768730   2.9163799  22.9166358  64.4662619
   3.1244263  23.4836905  65.8541203   4.3239462  36.2783742  58.9516258
   4.7761300  36.1026239  59.7767735   3.7274432  35.5377007  58.8429070
  59.6259597  37.7635832  13.4668198  58.7826562  38.2055350  13.5655728
  59.6851087  37.5665875  12.5319805  51.3122067  18.2418101  58.3277893
  51.0670957  18.9742797  57.7624226  51.5555224  18.6511462  59.1581345
   3.3697122  40.6655836  31.4873743   4.1802311  40.2956581  31.8373013
   3.5595566  41.5973043  31.3774443  76.5715779  63.4073067  24.4700503
  77.0333738  62.9016066  23.8012910  75.8376558  63.8073206  24.0035939
  58.3011741  19.3005772   7.2885552  58.5365233  19.9132986   6.5918341
  57.5403350  18.8305922   6.9472780  80.8276827  49.9115705  59.8614264
  80.3016139  50.4399681  59.2611933  80.9324081  50.4628515  60.6368923
  84.6830848  58.9776039  55.8980894  83.8174712  59.3430567  56.0808134
  85.2846504  59.7110224  56.0263157  69.5515550  25.0250411  28.9439464
  68.9593197  24.3194771  29.2040753  70.0249268  25.2481294  29.7454333
  22.8163338  54.3198204  50.4982805  22.2458792  55.0033998  50.1468039
  22.2338200  53.7650871  51.0171032  25.0000119  16.2101769  23.6051965
  25.5346680  16.0280573  22.8324056  24.9497890  15.3719592  24.0646553
   2.6792916   8.7070220  59.6562052   1.8357953   8.5601466  60.0841856
   2.4754294   8.7135737  58.7209892  13.8804650  49.5352507   1.3865858
  13.0081117  49.4563675   1.0005689  14.4692028  49.1742516   0.7237904
   9.8972893  69.1517830  45.2075863  10.6382906  69.6513700  45.5504656
   9.5067424  69.7249269  44.5478821  42.1945181  68.5397024  30.0675201
  42.9299727  68.4850807  29.4573116  42.1917000  69.4516940  30.3582001
  76.2119807  44.2501259  65.9570122  75.5765076  44.0505695  66.6444588
  76.1927165  43.4841156  65.3833485  15.8318472  20.7733583  32.1940660
  14.9801099  20.3706336  32.0249844  16.2083185  20.9113336  31.3248920
  22.2115684  21.7350626  19.5778954  22.9688811  22.1766496  19.9622238
  22.5851202  21.1449528  18.9233255  47.2557640  57.1840048  50.6191587
  46.8860865  56.3108253  50.4882717  48.1739902  57.0250320  50.8378410
  27.8910637  45.1159096  38.6568308  27.9819703  45.8317709  39.2857242
  28.5748911  44.4928598  38.9026451  68.6238605   8.2289524   5.9760704
  68.8023824   7.9246874   6.8658915  69.0631277   7.5920315   5.4125014
  21.5277958  32.7850127  48.4565163  22.2052860  33.4574580  48.5276079
  21.9642854  31.9760752  48.7235928  33.0980110  36.5795708  50.5320120
  33.9647245  36.5904903  50.1259041  32.7488732  37.4568868  50.3750038
  39.3461797  14.3970626  67.9723072  39.4381318  14.4550460  68.9233160
  39.3354795  15.3074305  67.6767683   5.5487359  54.5092297  42.1621609
   5.7657838  54.0209770  41.3679743   6.3952804  54.7904587  42.5092936
  66.8581188   5.8998556  23.7876835  67.8071231   5.9090300  23.6630287
  66.6731716   6.7009850  24.2778053  45.4686213  62.4564934  28.4061241
  44.7077179  62.6264668  28.9614296  45.7236814  61.5584755  28.6176467
  36.8978786  38.7405086  45.8934879  36.0982347  38.2163382  45.9387350
  36.7143583  39.4001126  45.2245522   6.0913622  27.9392028  57.0848846
   6.2250149  27.1394849  57.5936317   6.9284475  28.0854940  56.6442966
   1.4416999  26.2240648  49.4564581   2.2371385  26.5348530  49.8888016
   0.7316350  26.6909909  49.8969364  68.7871803  55.7461023  22.2434354
  68.0058612  55.2175570  22.0809150  69.3884863  55.1526308  22.6933861
  19.9638689  63.8409376  62.9794645  19.0243125  63.6794424  63.0654097
  20.1594210  64.4850302  63.6600018  77.7442123  49.5338535  67.8828335
  77.8797842  50.4560423  67.6650763  77.5467182  49.5354414  68.8194370
  18.2469416  21.1837649  25.7657361  17.9216921  20.3430271  25.4438639
  19.1094720  20.9835768  26.1293268   2.1937459  30.8977719   9.9662056
   1.6148036  31.4245768  10.5171433   1.6006582  30.3693218   9.4321432
  82.8129406  39.3472576  64.7216606  81.9466658  39.3535352  65.1287985
  83.0781413  38.4276581  64.7370052  38.3177731  67.1244147   6.8514290
  37.7811864  66.4321091   7.2374573  39.1288790  66.6847303   6.5964499
  11.5009010  58.6823797  38.1825423  12.2500563  58.3018732  37.7240515
  11.8078065  59.5420742  38.4705806  10.2073538  72.6552391  57.8566217
  10.7982934  72.6725674  57.1038151   9.5684493  73.3446074  57.6755047
  17.7469128  11.9658633  26.8281212  18.2754677  11.4409800  27.4292507
  18.3715027  12.5673600  26.4227524   1.4078651  43.7759733  67.5551605
   1.5079898  42.9107189  67.9520750   2.0278671  43.7781477  66.8258953
  79.6421881  67.9792261  43.8898039  79.1161502  67.5328684  44.5533419
  80.1661779  67.2839499  43.4919930  73.6667595  67.9666450   3.4165755
  73.8151750  68.8186529   3.8268032  73.4752473  68.1715682   2.5013914
  18.5991669  49.2532587   4.1903424  19.2317104  48.8539600   3.5931146
  17.9059064  48.5990095   4.2773882  80.6642026  39.5774384   0.2401772
  80.6771225  38.7313338   0.6875839  79.9484152  40.0576039   0.6564846
  25.7350302  79.6221161  50.9815550  25.8635855  80.4180622  51.4974737
  25.8964682  78.9081907  51.5983820  13.4742236  46.6971588  40.3064203
  13.5578537  45.9849310  40.9404373  13.9439249  46.3855314  39.5327950
  25.4051185  46.6250849  53.5027885  24.7957301  47.3610163  53.4455061
  25.6950593  46.6246557  54.4150209  27.5079840  13.5716124   2.5928822
  27.5969856  12.9922314   1.8361607  27.6935499  14.4453163   2.2487202
  14.5890498  46.6696978  25.7625508  14.3186402  46.0177946  26.4091802
  14.1900587  46.3748884  24.9439383  30.6704046   9.2208903  54.1636276
  31.0073802   8.8410895  54.9750662  30.5530535  10.1494067  54.3644238
  28.9502692  35.3971314  18.3080471  28.6656952  36.1335707  18.8492560
  28.1459475  35.0726199  17.9030883  46.7150375  56.7029455  21.4584675
  47.2780690  56.8634393  20.7011929  47.1532485  57.1509876  22.1819725
  23.8585359   7.7784293  21.6239810  23.5994229   7.1986239  22.3401618
  23.8707698   7.2137778  20.8511591  28.4623671  40.9553337  53.2532406
  28.1601024  40.1670742  53.7043715  29.3809581  40.7780600  53.0507708
  52.0579419  78.2778194   1.0124102  52.3120961  77.3724034   1.1908951
  52.8860793  78.7340977   0.8632984   1.3313605  32.3793340  52.7669954
   0.7367033  31.9220686  52.1724224   1.0961387  33.3028650  52.6775837
  81.6249553  32.2090197  11.6036594  81.6960440  32.0436597  10.6635344
  81.2765230  31.3938046  11.9645619  69.8027493  49.3671656  57.4907207
  69.3397046  50.2035713  57.4433947  69.2622210  48.7648964  56.9795132
  73.8314897  11.3487168  18.1088963  74.0785712  10.4783316  17.7964630
  74.6605665  11.7593928  18.3542767  69.9963869  46.5698433  62.5791407
  69.6727587  45.9278536  61.9471979  69.9370147  47.4080658  62.1207857
   4.2215553  38.1945586  27.8345680   3.4539276  38.0153465  28.3775830
   3.9529324  38.9212751  27.2724676  36.6583753  61.8887997  65.8300304
  36.2847662  62.3517752  65.0801659  37.4811172  61.5259981  65.5018520
  41.2437534  44.0874290  59.5439816  40.7926941  44.6501064  58.9145613
  40.5534267  43.5323620  59.9067259  72.6166469  20.3883143  11.5989437
  72.1581966  19.7052975  11.1095085  72.5894827  21.1536761  11.0247364
  74.7925240  47.2153492   5.6958809  74.3118853  46.6043778   6.2543907
  75.7041890  46.9303627   5.7581940  74.5701942  52.9156508   7.4800339
  74.3470201  52.0666006   7.0985403  74.7493705  53.4773829   6.7259875
  15.9590375  64.2593718  66.2007952  15.8082783  65.1738977  65.9617329
  15.1578343  63.8074207  65.9361315  46.9721050  11.8873472   9.4053736
  47.4574990  12.3965473   8.7562647  46.9307906  12.4563189  10.1740065
  69.5966698  70.4884958  53.6075830  70.3311897  70.2529764  53.0407953
  69.7827436  70.0474501  54.4364882  33.4330392  27.5030708  47.8979731
  33.4533501  27.2257066  48.8138819  34.3394423  27.4188280  47.6020527
  33.8319445  35.5827713  53.0416393  33.3455682  34.7618079  53.1170511
  33.7550354  35.8227730  52.1182156  25.0306296  29.9570990  52.3818827
  24.9000549  30.9028268  52.4510431  25.8925629  29.8053408  52.7695322
  22.9173183  52.2804594  47.9487705  23.0890870  51.3387966  47.9473495
  23.6463404  52.6561594  48.4423351  14.3553591  80.4415131  50.6167650
  14.7983980  80.8004379  49.8479176  13.5127091  80.1317406  50.2847719
   4.7826815  59.0032291  59.2855740   4.0828666  59.2220926  58.6702776
   4.3424481  58.9282703  60.1322174  42.1446037  46.5209627  61.1287689
  41.9923830  45.8014488  60.5160999  43.0900049  46.6672325  61.0963011
  29.6148348  66.6099453  29.8416829  28.9909935  65.9246922  29.6019435
  29.2505193  66.9978142  30.6373358  31.7344657  15.5666392  30.0141764
  31.6943023  15.6768554  30.9641623  30.9293828  15.0984423  29.7931266
  74.6895517  41.4826918  49.3790770  75.4561294  41.9429159  49.0373421
  74.8865570  41.3442993  50.3055048  22.2428799  44.4737387  48.3566523
  23.0786967  44.0303802  48.2114649  22.0022774  44.2433834  49.2540264
  27.2269917  50.5595636  45.2455187  26.5170670  51.1511850  45.4949713
  28.0185461  51.0935688  45.3126860  72.9900874  38.1486058  53.6844730
  73.2067372  38.9296818  54.1936016  72.0473457  38.2154393  53.5328054
  19.1292143  44.9683571  65.5447435  18.5854280  45.2958393  66.2611818
  19.0636301  45.6414223  64.8673058  75.7188232   7.9186761  34.4230700
  75.5059875   7.8625661  33.4915209  75.1524163   7.2679609  34.8377800
   6.9921917  60.1599932  67.6990175   6.6754019  59.2855072  67.9251814
   6.9117624  60.2048874  66.7462587   6.8962896  65.8275843  67.0168591
   7.4098939  65.6682491  67.8087234   6.6022933  64.9587297  66.7432022
  57.0830259  44.1892376   9.4316426  56.6626367  43.3531620   9.2304411
  56.4454636  44.6534934   9.9740544  68.4046764  14.2157336  27.3243847
  67.6619012  14.8123760  27.2320118  68.0922789  13.5348149  27.9201927
  78.8573826  63.0733442  34.7348928  78.4046538  62.6217794  35.4471850
  78.9002318  62.4267769  34.0303707  48.9203701   6.6862243  44.7161293
  48.4429810   7.4433368  44.3768454  48.5740862   5.9434455  44.2215633
  52.9030756  47.6598568   1.0941735  53.3611709  48.0132408   0.3316107
  53.5637448  47.6491089   1.7867270   7.4683779  18.5021467  11.7931023
   7.4635881  18.5224982  12.7500668   8.2153671  17.9471178  11.5690747
  12.3914402  13.8874502   9.6426430  11.7536324  13.9888497   8.9361372
  13.1270187  14.4420548   9.3826857  74.0698458  61.5472555  20.5589461
  73.5797943  61.7351532  19.7584617  73.5103334  61.8724728  21.2642193
   8.0653918  70.0033951  15.7634664   8.3041394  70.8160400  15.3175533
   7.4863166  69.5537281  15.1480770  54.4924879  64.8639059  41.9340611
  55.1857710  64.3665171  41.5002441  53.9322805  64.1972876  42.3315763
  25.5625885  18.6679669   6.2516442  25.3233831  18.9430590   7.1367064
  25.0518101  19.2384215   5.6772557  52.9122457  12.5434726  67.8651142
  53.0709490  13.3057921  68.4218121  53.7808451  12.2898715  67.5529432
  26.4350629  44.5052624  63.2656097  26.4846301  43.6152172  62.9169083
  25.7884955  44.4511271  63.9693499  11.4520591  10.6424256   7.8866902
  11.8064039  11.2898226   7.2771445  10.5207675  10.8551474   7.9473582
  44.7941992  74.5102265   2.9048958  44.1741607  73.7812688   2.8847399
  45.6460950  74.0962961   3.0433359   5.5909308   4.4101756  59.3498421
   4.8413809   5.0052016  59.3685913   5.7900532   4.3050235  58.4195042
  39.4782397  14.1877311  53.3994007  40.2162656  14.1920131  54.0089321
  38.7137327  14.0190451  53.9501286  11.0005808  55.4708385  56.5624428
  10.5913842  54.8779678  55.9321308  11.9199026  55.5042362  56.2979364
  74.6133513  42.3355694   1.5027275  73.8844723  42.0694084   0.9422579
  75.3738922  42.3380871   0.9215203   5.5699217  53.1647730  33.0046129
   4.8473015  52.8780317  32.4461937   5.7310307  54.0708637  32.7414131
   3.4101313  44.9507093  38.4292698   2.5457004  45.1967192  38.7586164
   3.8523182  44.5620966  39.1840434  10.3487214   0.4281371  59.2211390
  10.4610594  -0.3735692  59.7319126  11.2338646   0.6580394  58.9384699
  41.2861225  21.6313403  44.3079662  41.6815624  22.4639457  44.5661020
  41.9915280  20.9913867  44.4033432  17.0105731  63.2511139  63.8217640
  17.2255147  62.5925350  64.4822979  16.2929118  63.7528038  64.2084169
  47.3129937   8.1024974  26.4780641  47.5810680   7.2118323  26.2520742
  46.8351171   8.0070346  27.3019290  71.9025097  78.1433394  10.4273644
  71.8810806  77.3600533  10.9771195  72.4238262  78.7720873  10.9264889
  21.4994925   0.5842896  24.4256439  22.1679514   1.2541504  24.2818203
  20.9806460   0.9170361  25.1579800  12.9692793  52.8330994  41.1139536
  12.4916530  52.3529005  40.4375553  12.3149431  53.0089855  41.7900753
  81.1611242  51.4926834  13.6629429  82.0619673  51.2980385  13.4044209
  81.2303418  52.2865219  14.1932717  53.6069202  55.4738045  48.3678532
  53.8821602  55.1536465  47.5087976  53.7580490  56.4182901  48.3311510
  60.9736994   9.7716780  17.9728928  60.7271174   9.9095412  18.8874569
  61.9244504   9.6629687  17.9949417  31.8174863  56.8781281  44.0111399
  32.6374769  56.7625904  43.5310364  32.0815992  57.2615337  44.8474884
  25.9856081  63.3122778  54.9406147  25.8893323  64.1341209  54.4594383
  25.1441431  63.1925106  55.3808737  84.1934881  15.4096644  53.6365938
  83.5877857  15.9784167  54.1118717  85.0203571  15.8918422  53.6310005
   6.4925200  28.4449625  36.2424159   7.1304244  28.8261199  35.6390667
   6.5884429  27.4996471  36.1266232  24.5972347  49.2143250  45.6773901
  24.7771049  49.5380926  44.7947502  25.3662467  49.4690180  46.1872768
  75.9948535  47.0599556  20.1330876  75.8893002  47.8999043  19.6863508
  75.4803069  47.1490145  20.9352994  47.8470215  17.6578849  42.4223471
  48.4384892  16.9251960  42.5942945  48.1794462  18.3679908  42.9714155
  17.5737798  73.3481073  51.9919729  16.9533288  73.8518953  52.5187254
  18.3042276  73.1724453  52.5851154  66.5110803  12.3581190   9.5054617
  65.7467938  12.8166504   9.8545304  67.1930832  13.0283280   9.4615593
  61.2501177  21.9020789  68.5314035  61.9662675  21.2710707  68.4593248
  60.6229028  21.6300814  67.8614378  41.8280792  63.4006643  39.9330688
  41.8597126  64.3491030  40.0583506  42.1148539  63.2687378  39.0294194
  22.3093813  16.7318507   5.1714936  22.8773134  15.9882326   4.9697247
  21.7821377  16.4361067   5.9136381  25.7763958  77.9639149  62.4885845
  26.3722420  77.4977207  61.9021845  26.1219645  77.7948666  63.3650732
  65.0442443   7.5004523  15.8966172  65.2606139   8.4128993  16.0885835
  65.5782590   6.9938319  16.5084946  54.8360205  74.8957968  51.3005972
  54.9346685  74.8438025  50.3499174  55.1026964  74.0325260  51.6166353
  33.1038809  71.6199684  31.3982320  32.3633242  71.0396051  31.2221956
  32.7589059  72.2693062  32.0110822  19.8532271  57.9645348  51.8522358
  19.7887838  57.0208073  51.9987202  19.6104121  58.0814838  50.9337616
  10.8230829  80.4080772  53.5215282  10.7903051  79.8456383  52.7476978
  10.4276049  79.8822403  54.2167425   1.6848278  49.9819613  54.9032450
   2.0083778  50.6672478  54.3184948   2.4437341  49.7433090  55.4355383
  23.9879197   2.1806546  11.9159737  23.9430303   3.1062002  12.1559372
  24.6070666   1.8012829  12.5396481   1.7257784  49.8735809  30.8284354
   1.2547654  50.4763269  30.2530456   1.0980868  49.6624851  31.5195751
  83.4993687  71.8041563  57.5220060  83.5945730  70.9429407  57.9287958
  84.1153590  71.7924356  56.7894411  31.5978289  66.8030977  33.8383055
  32.4601793  66.3885784  33.8658404  31.5103126  67.2306967  34.6902037
  53.5340223  11.6879313  44.4311714  53.8976774  10.8280318  44.2200851
  53.0290684  11.5445082  45.2315998  25.7637518  32.0356770  18.4998074
  26.0938185  31.3637467  17.9033222  25.3575914  31.5438147  19.2134896
  71.4167864  22.4535055  13.8021603  71.4490527  22.4443455  14.7587719
  72.0817906  23.0926295  13.5461941  35.6010008  73.5378981  47.8391695
  36.0522962  73.0588484  48.5342073  34.8858714  73.9909363  48.2859087
  14.3283856  55.3358841  44.1025829  14.9170685  55.4341412  43.3542347
  13.8516319  56.1649323  44.1427565  60.6657244  43.5560894  38.2045436
  60.1348663  44.3514824  38.1624031  61.5590454  43.8550806  38.0347967
  20.0319386  39.7306371  56.4404678  19.9703979  39.3036985  57.2949648
  20.5254531  40.5333519  56.6087770  29.1562653  49.6587706  47.7581406
  28.6329293  50.3978252  48.0682182  28.7140918  49.3704653  46.9596481
  36.4385629  63.7061071  34.8650074  36.6555715  62.8005219  35.0864863
  37.2862482  64.1449165  34.7935057  51.6441965  79.1044235  29.6963882
  51.0645342  78.5517216  30.2205467  52.3149920  78.5052013  29.3689752
  46.4627272  21.3567848  13.9892330  45.9208078  20.8312912  13.4006634
  45.9426159  22.1429034  14.1557732  31.1665511  62.3280144  62.7454329
  31.8004918  61.6432524  62.5322390  31.6840124  63.0071640  63.1781292
  23.4530234  75.0451326  26.8453455  22.5006866  74.9532557  26.8744016
  23.7441230  74.3401718  26.2669659  78.3884687   9.7766609   8.8681736
  78.6804885  10.4996653   8.3129969  78.9617223   9.0471812   8.6326542
   5.1910406  22.0081019  28.3355236   5.2279693  22.6516557  27.6279163
   5.1119226  21.1652327  27.8888178  40.5258894  58.4745646  51.0534430
  41.1343575  57.7364206  51.0873079  41.0807848  59.2345142  50.8779335
  18.1179684  13.6203308   9.1406718  17.6035326  12.8753300   8.8299360
  17.5700777  14.3832703   8.9563503  24.7313523  73.6002779  15.2613616
  24.9132729  73.1504822  14.4362426  24.2795444  74.4032526  15.0018752
  52.8189764   0.9650080  40.2491474  52.0310602   1.2459319  39.7838426
  53.1801400   0.2637427  39.7069144  16.4649808  75.6241274  15.1406205
  17.0971012  75.6720924  14.4234347  16.2570560  76.5373611  15.3381014
  51.3420519   8.1297438  56.6084623  52.2126851   8.0718940  56.2149096
  50.8766565   7.3630183  56.2741423  48.4953699   0.8097308  66.2473774
  48.0244741   0.0960677  65.8170557  48.9662513   1.2477629  65.5384111
  10.6830919  35.9906411  45.9827852  10.0231361  35.6296372  45.3908682
  10.3448355  35.8070588  46.8592024  47.3688695   2.5580256  68.0106068
  47.5923261   2.0008414  67.2650528  46.7741308   3.2150309  67.6488543
  25.4014897  72.2121429  42.5621939  24.5425916  72.1701574  42.1417570
  25.9137535  71.5292645  42.1291876  19.7278392  79.7589922  34.5535898
  20.3155017  80.3921700  34.1413140  20.0472975  78.9069843  34.2565084
  82.3276870  62.5192785  38.7550330  81.6818817  63.0266809  38.2633948
  81.8291382  61.7899799  39.1235518  41.6148233  65.9442663  43.5307789
  40.8420897  65.9823322  42.9671621  41.4879799  65.1556158  44.0581942
   9.1785726   6.7476409  48.8402319   9.9457547   6.9352858  48.2994413
   8.4398970   7.0844310  48.3331203  21.0398746  67.7467489  33.0201483
  20.7132006  66.8809700  32.7753162  21.1829090  67.6904154  33.9649224
  30.0455114  72.5870206  29.3411961  29.5845284  73.2197335  29.8920098
  30.4896252  72.0085337  29.9611511  10.0691950  57.0026779  63.9629221
  10.5153847  56.2731075  64.3928909  10.2976239  56.9114399  63.0378675
  84.4969714  40.8536482  48.3743715  84.8027958  39.9783850  48.6123276
  83.6206488  40.7120275  48.0162716  23.1765001  36.8247814  14.7282257
  22.9164999  37.7387495  14.6129265  22.7472418  36.5542240  15.5398789
   2.3394679  50.8919191  38.3920860   2.4879916  51.6788101  37.8677011
   2.1870084  51.2199306  39.2783117  27.6463723  44.0122604  67.6261187
  26.7665863  44.3128777  67.3984385  28.1144357  43.9873695  66.7915392
  77.6057810  17.7392931   0.4967060  78.1063766  16.9435187   0.3167620
  78.1874937  18.2703419   1.0406056  73.5394382  62.2624826  66.4701033
  74.3250704  62.1892643  67.0120001  72.8861094  61.7285252  66.9220781
  71.6295618  63.9874573  24.6118202  71.5792817  64.9026795  24.3359986
  70.8489508  63.8562794  25.1500263  83.9302725  24.7927780   6.0723343
  83.3359975  24.2862721   5.5186930  84.2377180  25.5019064   5.5076685
  80.9157113  54.5867729  45.6869459  80.0928665  54.8004246  45.2470446
  80.7586295  54.8017883  46.6063595   2.8107398  23.3077259  10.1285401
   2.0915239  23.3010216   9.4969454   3.2631796  22.4764796   9.9851456
  80.7501859  24.4680710   7.9483214  81.3670797  24.5948000   7.2274771
  80.9759039  25.1512356   8.5796395  74.1234502  20.9586757  62.7009773
  74.7488794  20.2934497  62.4136829  74.6681413  21.6687720  63.0405474
   7.3922390  57.3147154  43.8973475   6.4780301  57.4811459  43.6676645
   7.7296579  56.7893791  43.1718111  35.1013723   8.7366050  64.5900297
  35.0940523   9.4365256  65.2429390  35.7038263   9.0462535  63.9137125
  53.6462635  43.6583252  20.1058140  53.7438444  42.7147312  19.9780026
  52.8348363  43.7497254  20.6052819  33.9090466  66.5779448  39.0817046
  34.4331264  66.2030602  39.7895408  33.9860225  65.9465361  38.3664179
  59.0495596  70.2107265   9.8377886  59.0701184  69.2537549   9.8417607
  59.7537169  70.4678919  10.4329815  69.5512247  75.7503462  52.2870731
  69.9846220  76.5950251  52.1649408  70.0461435  75.3263569  52.9881573
  23.2026792  69.2201185  64.7917700  23.3315253  68.9350939  63.8871193
  22.4724269  69.8373175  64.7467279  15.1829159  60.5454302  61.6771364
  15.7436645  61.2791348  61.9290638  14.5692515  60.9191275  61.0446835
  62.5534353   2.8903811   8.6614490  63.3843479   3.3441584   8.5203928
  62.4673090   2.8387587   9.6133673  79.1709480  27.9033797  69.4922638
  79.6701870  28.4742682  68.9082432  78.9000377  28.4742396  70.2112627
   4.5299813  68.9450073  20.3478503   5.1279247  68.6978674  19.6424294
   5.0270373  68.7852764  21.1501312  18.2143962  71.6223621  55.1535654
  18.0004346  71.8856859  56.0486126  19.1645443  71.5064907  55.1586437
  12.8583026  74.2078543  58.0425262  12.3641658  74.0204096  58.8406038
  13.5360086  73.5323906  58.0162191  31.1898255  50.1938248  66.1915398
  30.4731393  50.6586552  66.6234303  31.8373728  50.8733273  66.0039425
  66.5385303   6.4262049  68.7979650  65.6298718   6.6772979  68.9638567
  66.7023382   5.7047122  69.4052887  16.1610421  57.6900043  14.3216458
  16.3330611  57.2882190  13.4700527  16.2659176  58.6291113  14.1689720
  80.9513611  16.3410921  23.0864277  81.5929598  16.7471571  23.6692658
  81.3664169  15.5261250  22.8039685  85.5539567  64.3345213  38.1278324
  85.3285102  63.5774231  37.5872684  84.7130075  64.6547747  38.4541392
   3.6029133  70.9254599  67.8914452   3.3608961  70.1696348  68.4265947
   3.4267005  71.6815996  68.4512949  47.8001595  53.6573792  67.5290871
  47.9983044  52.9871321  68.1831074  47.3630047  54.3515110  68.0223465
  50.8854723  56.7799902  63.3547020  50.6354141  57.1498871  64.2013836
  50.3487062  57.2529554  62.7187681  14.2600172  31.6977282   0.0861731
  14.0432566  30.7911511  -0.1314602  14.4596308  31.6782065   1.0221234
  68.0111004  73.5329437  56.2892818  67.6535202  74.2789602  56.7707682
  67.9192055  73.7761450  55.3680658  34.7738504  52.2919893  63.1679249
  34.6156192  51.3765574  63.3985329  35.6166244  52.2824574  62.7141953
  36.3460708  61.5126991  54.8461390  36.2058687  61.0983849  53.9947176
  36.8272758  60.8594656  55.3540373  32.0914674  63.5960960  51.4477396
  33.0220294  63.7159967  51.2582397  32.0415068  62.7382421  51.8694305
  16.3299084  64.3721199  40.3853416  17.0659721  63.8948298  40.7682705
  16.6456532  64.6493864  39.5253062  45.4016560  54.5122643   0.9773913
  44.9899262  55.3734799   1.0482493  46.2001818  54.6692772   0.4734745
   9.3918335  40.6360960  31.0282540   9.2637908  41.5138865  30.6686401
  10.3313148  40.4756355  30.9395981  29.8472597   3.2700103  48.6984396
  29.0533363   3.7664359  48.4997368  29.5775897   2.3534530  48.6398554
  66.7405138   2.0281165  45.2288008  66.0070667   1.6098254  44.7778893
  67.4634752   1.9830649  44.6030760  37.4425319  46.9115534  19.7306004
  37.3429331  47.6672854  20.3095474  37.2963038  47.2620281  18.8519612
  34.2622209   2.9909259  30.9508443  33.7430334   2.2177243  31.1718369
  35.1680923   2.7235803  31.1062527  75.3789515  15.0489636   0.9170428
  75.7286698  14.6306057   0.1303377  74.4896418  15.3078194   0.6754723
  10.7566333  53.7295914  52.4577570  11.6360915  53.9083862  52.1248627
  10.8265126  52.8676414  52.8681087   7.5601347  35.1161807  44.1947079
   7.0027550  35.4814284  43.5075760   6.9527014  34.8811000  44.8961306
  23.6211419  44.2673254  55.2410316  22.7173901  44.0392399  55.0232267
  24.1084504  44.1147280  54.4314146   3.5936039  50.2038880   0.5094376
   3.2262891  49.9240227   1.3478842   2.9494541  50.8192177   0.1591959
   5.8820122   6.8890972   7.2192850   6.1034864   7.7893276   6.9810381
   5.2728217   6.9782610   7.9521980  44.5169926  64.7588873  31.0629845
  43.8365698  65.1906776  30.5464458  44.9298573  65.4680586  31.5557837
  61.9826985  42.1954775  62.1923542  62.8135897  41.7576361  62.3771429
  62.0927120  42.5566339  61.3127518  19.5606220  59.0300035  44.0432215
  19.3237519  58.7201214  43.1690931  19.0979302  58.4413338  44.6395588
  72.3949970  53.9950848  61.3046503  71.7556287  54.6988487  61.1943769
  72.8003086  53.9024496  60.4424572  42.7827963  44.1949438  10.4784146
  43.2040701  43.7041246   9.7728291  43.0557892  43.7460839  11.2785664
  17.1989167  41.9885206  46.1752129  17.8044140  42.3914623  45.5529261
  16.5838647  42.6874065  46.3977098  41.3351378  14.2405932   3.9989272
  42.2675047  14.3231433   3.7986544  40.8941445  14.6795886   3.2715708
  -0.0482471  71.4118719  55.5709314   0.2679227  71.8356228  54.7729969
   0.7425077  71.2492990  56.0852385  15.2242732  45.5303240  65.6518793
  14.5508397  45.9018421  65.0820589  15.0480604  44.5894909  65.6490517
  21.0570362   2.8627818  61.4210939  20.6725547   3.5978072  61.8987322
  21.8198785   3.2365554  60.9799671  42.0167446  76.2761688  51.2604809
  42.6350451  76.9354916  51.5754843  42.4526691  75.8801508  50.5059147
  15.2214336  80.5450344  53.3671808  14.4089842  80.6460190  53.8631248
  14.9352336  80.3208637  52.4817038  24.3107343  38.2978916  21.3933587
  25.0359106  38.4131503  20.7793021  24.5389199  37.5111389  21.8885183
  53.7280273  66.5997601  39.6467471  54.3965006  66.5807056  40.3315926
  54.1693974  66.2527227  38.8715124  51.2085819  43.7272406  27.9290080
  50.3717136  43.5981941  28.3753586  51.5827942  44.5054722  28.3419847
  53.3136940  53.7481308  56.7914248  52.7406693  53.0301046  56.5225220
  53.3929300  54.2965031  56.0108900  25.9996996  34.8954718  18.3544052
  25.7554147  35.8204215  18.3222890  25.9234119  34.6595614  19.2789364
  15.0023573  52.2525234  20.5758038  14.5038574  52.3451157  21.3876953
  14.3374985  52.1169491  19.9006691  25.4970860  65.7268620  52.7530622
  25.3669143  65.4480886  51.8466568  25.0040102  66.5440941  52.8254604
   0.6080144  28.1412049   5.8828678   0.9221500  27.5607415   6.5761318
   0.0083178  27.5992651   5.3701391  20.0684261  60.3117275  35.0949502
  20.6543589  59.5551777  35.0715971  19.9502909  60.5516386  34.1758633
  66.5095043  71.3230515  48.4524679  66.9427013  71.1277437  49.2833900
  66.5478945  70.5011511  47.9633522  28.9765143  78.7515974  61.8397713
  28.8745975  79.6858454  61.6580296  28.2477474  78.3368874  61.3780880
  21.1605302   2.5573867  43.9498901  20.3317538   2.4716418  43.4787083
  21.8279454   2.3222201  43.3053112  56.9417920  50.3523941   2.1832409
  57.8968149  50.4048939   2.2207585  56.7124342  50.7559986   1.3461437
  47.6911068  54.4551992  64.7766638  47.0190763  55.1334572  64.7089624
  47.8540134  54.3723869  65.7162571  10.1447981  24.6947069   5.5527535
  10.7560247  25.4229756   5.4420557   9.6608418  24.9073811   6.3507452
  46.8810415  49.0928936  27.1529746  47.8255129  49.2050886  27.2607470
  46.5156889  49.9609852  27.3237610  24.2063158  26.7359085   5.5976238
  24.6610420  26.9738598   6.4056101  24.2424553  27.5273533   5.0604620
  43.5920033  16.8182795  35.7205415  43.1993351  17.6664965  35.9268594
  42.9548070  16.3925212  35.1470089  73.2634258  47.4115849  64.6388578
  74.0055561  47.9201031  64.9657822  73.6626387  46.6988850  64.1399384
  37.7003908  76.6113520  67.1784830  37.0433950  76.3787746  66.5223646
  38.5329676  76.3445234  66.7888021  22.2065544  36.7306852  55.7650900
  21.7570257  35.9759903  55.3848410  21.8301797  37.4861407  55.3135729
  15.6960511  71.0528517  20.9590745  14.9731290  71.5530586  21.3377643
  15.3651237  70.7587385  20.1104188  35.8724833  21.0009885  55.6110573
  36.4790726  21.6727877  55.2996683  35.5607033  20.5719042  54.8142433
  16.7940176  35.9933877  44.4139719  17.2181737  35.5024886  43.7101698
  15.9368300  35.5788922  44.5122290  47.4735260  65.6497526  39.3341637
  47.7346182  66.5101099  39.6625662  46.8112993  65.3470802  39.9555135
  18.6686397  55.5115843  47.2967005  18.7964416  55.7008600  48.2262564
  19.2558622  54.7768736  47.1189356  78.3183188  46.5175724  55.2128935
  78.2306458  45.9043026  55.9425783  78.9995350  47.1284533  55.4939699
  34.3455315  41.1376238  36.1588550  34.2455649  41.1966562  37.1089888
  33.4507036  41.0584116  35.8283377  21.6429138  77.3053360  64.1279125
  21.6524744  76.4313889  64.5182514  21.8996549  77.8892374  64.8416185
   1.9886645  28.3918803  44.6323967   2.5507792  28.6525672  45.3619862
   1.8218955  29.2052119  44.1560459  52.6320648  49.9445915  53.7733173
  52.5259066  49.0065384  53.9314699  52.1980000  50.0965786  52.9338408
  82.3446489  77.0927906  39.3485808  83.0763341  77.3978996  39.8850298
  82.2771225  77.7390718  38.6457372  30.5394571  40.6272908   5.5337229
  30.4290455  41.3149662   4.8771038  30.3457277  41.0578556   6.3663807
  12.8755093  34.2927361  38.4784937  13.1974101  33.6417627  37.8549218
  11.9227028  34.2526841  38.3961034  36.4438122  38.4399815   2.2086134
  36.3834351  39.3930598   2.2735777  37.0091789  38.1855364   2.9378929
  53.0162334  45.0659466  54.2808580  53.9097834  45.1513624  53.9484406
  52.5832176  44.4833708  53.6568880  51.4581633  19.8471041  12.2065582
  52.0873163  19.2185755  12.5606194  50.6293112  19.6194477  12.6277580
  33.9034057  70.7502604  50.6938028  33.2336187  71.3809395  50.4294872
  33.4404016  69.9136734  50.7382822  13.3781362  47.0318079  57.8425026
  14.0869570  46.3906145  57.8941965  13.6358476  47.7233982  58.4520292
  -0.2216140   0.5317920  65.9704638   0.3717383   0.0665229  66.5601110
   0.3556784   1.0493701  65.4091406  66.4588890  20.2904837  36.2764788
  65.6898794  20.3648227  36.8415713  66.1952505  19.6743148  35.5930591
  27.7169051   3.0386107  64.4266415  27.8459743   2.4441665  65.1657009
  27.2937088   2.5005668  63.7575769  15.6834286   0.5631800  35.3372231
  16.1919802  -0.1413994  35.7386914  15.0599163   0.1135464  34.7668781
  45.7365677  71.3987615   1.8194857  46.0953519  71.9626811   2.5046864
  46.4909265  70.9074285   1.4942684  30.8599353  56.4395952  53.5140657
  30.3602505  56.3197994  54.3216467  31.4210677  55.6658316  53.4625912
  27.0072699  64.0651321  59.7812080  27.0708466  63.4101343  60.4763079
  26.2223792  63.8193321  59.2915535  69.2348108   0.7496779  46.5835285
  69.2526779   1.4629596  45.9454536  70.0339851   0.2524607  46.4093828
  55.9178850  24.7853537   7.2425928  56.2399666  24.2474003   7.9658451
  55.9152112  24.1959400   6.4883938  22.0179391  39.8425984  36.6840696
  22.4845552  40.5921793  36.3144445  22.0218110  39.1893458  35.9844446
  23.2718849  43.4425497  43.2046127  23.2382679  42.5432491  43.5307455
  22.5598812  43.4928083  42.5668383  59.9826560  73.1065228  15.6131973
  60.7172904  72.7176764  15.1384964  59.9301276  72.6042225  16.4263191
  54.5757389  61.7050505  64.0791225  53.6410427  61.5936422  64.2527866
  54.8991728  62.2111416  64.8244381  31.9057148  23.7715597  12.2517147
  32.2781103  24.4101639  12.8597775  31.1561030  24.2211409  11.8616047
  38.6988187  79.6374369  18.8752699  38.5175037  79.7793961  19.8043585
  39.6067691  79.3352604  18.8518691  21.1242390  51.8863678  44.6247673
  20.2459121  51.7925024  44.2560291  21.0139775  52.4968290  45.3537464
  10.1922806   1.4409583  37.7894497  11.0120018   1.7725222  37.4229074
  10.4582985   0.9542601  38.5695744  40.9899807  55.5672359  56.5352488
  41.4422369  55.2986431  55.7355309  41.6864395  55.6565762  57.1857834
  69.2879820  54.8165035  29.8461676  68.4777832  55.2856350  30.0454736
  69.2894077  54.0737534  30.4499531  22.6050210  77.4389172  32.8136373
  22.9577494  76.5684700  32.6288915  23.2774806  78.0420160  32.4969244
  52.7904701  72.3162460  40.8108664  52.2812223  71.5234232  40.6425571
  52.9662848  72.6769733  39.9418449  51.5021801  77.6091814  57.4519634
  51.5808439  77.2993088  56.5497303  50.8566284  77.0253754  57.8502941
  22.8157282  73.6775684  34.9205661  22.0183301  73.5109425  34.4179487
  23.5245967  73.3778143  34.3514585  76.8835909  11.4215298  32.1387043
  77.5583119  11.2398930  31.4844933  77.3261828  11.3015719  32.9789105
  18.0991745  58.8042545  69.3715715  17.8887355  59.4113970  70.0810289
  18.7566936  58.2176495  69.7454596  13.2910698  44.6002789   7.5885287
  13.7043923  44.5304985   6.7279902  13.8236969  45.2417012   8.0587568
   4.5793312  51.5752716   7.9494086   4.6225994  50.6393547   7.7534380
   3.6637991  51.7290802   8.1825915  51.3458443  71.3641214  51.1292315
  51.7452717  70.5748177  51.4948606  51.8492317  71.5412140  50.3345823
  46.6145515  49.1311407  52.6685333  46.1292076  49.3037844  53.4752989
  46.1129427  48.4441471  52.2296047  76.3968832  13.2337113  26.2519207
  77.3510570  13.3056898  26.2273350  76.1310560  13.2586165  25.3327027
  65.3443790  74.5112343  10.6585922  64.5288283  74.6625347  11.1363163
  66.0131658  74.9555226  11.1797085  82.0035133   9.1643374  64.4196701
  81.4244184   9.6777385  64.9829626  82.2096500   9.7497886  63.6909866
  78.3662614   8.4115069  55.8205843  78.4512910   7.4584716  55.7936573
  77.9466686   8.5908549  56.6620159  20.1672038  20.0243895  65.4254913
  19.4823750  19.8275035  64.7863722  20.5456313  20.8503955  65.1242495
  61.8676723  35.8616276   3.4340182  62.0707822  35.1918955   2.7809992
  60.9833730  36.1527224   3.2115069  56.0888943  25.7894652  20.9705377
  55.5175957  25.0841086  20.6666899  56.4755687  25.4530566  21.7789602
  32.8599248  25.2251380  61.2670517  32.8636059  24.6886294  62.0597506
  32.9881326  26.1196654  61.5826654  60.0158748  36.3789959  -0.0437984
  59.3006275  35.7464047   0.0231734  60.0301892  36.8154068   0.8080092
  31.3473678  55.5926704  49.1958380  31.7356801  54.7782755  49.5155287
  31.4883161  56.2198114  49.9051046  84.9119863  22.9210990  13.8900149
  84.9948845  23.7229293  14.4061887  85.5092582  22.3026126  14.3106949
  80.8022976  78.7712049  68.5377502  80.8297634  79.1950417  67.6799393
  81.0226440  77.8567791  68.3602619  30.6776595  77.4724817  24.3171382
  29.7864509  77.2618771  24.0385294  31.0250545  78.0212212  23.6139774
   7.8336638  50.4331513  12.5860253   8.3923929  49.6559449  12.5842037
   7.4141949  50.4245682  13.4463730  37.8021679   7.2698443  24.1054058
  36.9517777   7.6770919  23.9404368  38.4395203   7.9515117  23.8924575
  47.2629833  70.0648499  48.1027794  46.5424252  70.6704855  47.9288864
  47.9555273  70.3374386  47.5008583  72.1627092  53.6884069  67.4232864
  71.8052578  54.5740509  67.3592329  71.7676592  53.2170534  66.6898060
  34.7542208  21.3218518   8.6628189  35.4912823  21.7309685   9.1162434
  35.1585835  20.8066483   7.9647579  70.7154712   4.3046515  67.9968548
  70.9291086   3.3919375  68.1906033  69.7712144   4.3015235  67.8400087
  44.3645191  49.0630388  58.1395388  43.8561773  48.8903570  58.9320040
  44.8465729  49.8666668  58.3345699  64.1503114  57.8910466   2.9945603
  65.0575376  58.1959458   3.0090037  63.6401242  58.6429234   3.2956019
  79.9605412  69.5165177  13.4590664  79.2911762  68.8505764  13.3018913
  79.5389623  70.3413983  13.2180920   3.9023941  32.7689047   0.2743950
   3.6006110  32.0017977   0.7609215   3.6470717  32.5937624  -0.6313429
  72.4655780  15.2893393  67.4314642  72.5593242  14.4901221  66.9131088
  71.9583330  15.8787196  66.8732834  14.1305792  68.2623053  60.9928942
  14.1560006  69.2138386  61.0937548  14.6436119  67.9295969  61.7293262
   3.1223019   3.4175914  66.2410116   3.0253466   2.7543013  66.9243002
   2.6129063   3.0791419  65.5046701  56.8493938  69.0319538  38.8219333
  57.5712156  69.3870783  38.3031964  56.9351244  68.0827236  38.7333488
  82.1554677  62.0756483  46.2738848  82.9083754  61.7240953  45.7987309
  81.6244213  62.5007057  45.6004286  44.4989729  72.0008945  48.8823223
  44.5275068  72.6787758  48.2071257  43.6246300  72.0795250  49.2638636
   1.2680539   0.5407946  41.7924833   0.7896336  -0.2289350  41.4844751
   2.1841916   0.3496306  41.5915251   6.7359608   5.5717202  22.0384445
   7.5047868   5.0712891  22.3117676   7.0435803   6.1002560  21.3020649
  15.7801693  23.6107798   1.3853111  16.7003220  23.8742085   1.3726750
  15.6537455  23.1424876   0.5601158   6.2541860  25.8022185   9.1102209
   5.9230011  26.6080828   8.7138310   5.7237714  25.6876011   9.8987379
  24.9984329  47.7771969  11.5710964  24.3607252  47.9221840  10.8721390
  25.2332657  46.8525429  11.4930287  16.7491930  27.9260416  14.5431938
  16.2642401  28.7093373  14.8030129  17.3191135  28.2216807  13.8332596
   4.6441658  24.4751780  68.8518763   4.1034230  23.7578814  69.1824913
   5.4708441  24.0590232  68.6076403  69.7393352  28.6972828   0.9082833
  69.4572181  27.8218289   1.1732855  69.0204579  29.2710419   1.1733189
  81.9899649  32.5236435   4.1396704  81.0396237  32.6288576   4.1845312
  82.3305768  33.4181662   4.1468468  41.2672481   6.0063498  57.0411968
  41.8128178   5.2342360  56.8914509  40.4105005   5.6518023  57.2789145
   8.3577546  42.7939647  52.3001146   7.4372633  42.9925769  52.4717999
   8.7485131  42.6997321  53.1688261   9.7567114  17.6296943  58.5418797
   8.9585158  17.1585601  58.7809420  10.4628203  17.0061057  58.7115622
   1.7958253  56.3468380  14.3724575   1.7491048  57.0980854  14.9638024
   1.7344826  55.5846329  14.9482193  68.5328824  13.2748051   2.7345028
  67.6135785  13.4289379   2.5168886  68.5442585  13.2027264   3.6889162
  34.1823912  73.3855820  41.7918873  33.3617902  73.5367537  41.3228512
  34.8276019  73.2308245  41.1019707  32.9120453   3.5552447  26.4134455
  33.7149151   3.7830489  25.9446788  32.2106179   3.9409201  25.8885908
  40.9579849  68.3514071  67.0514107  41.4334011  67.5414801  67.2364140
  41.6341639  68.9665031  66.7673826  20.3762341  72.9901028  39.3542004
  20.7415152  73.8735962  39.4015527  21.0300565  72.4862576  38.8695478
  77.2571430  24.4706385  54.6018553  77.8001222  23.6849063  54.5383930
  76.6032467  24.2567962  55.2673817  35.3003049  75.1895475  58.8623285
  36.0162044  74.7828865  58.3741236  34.9118972  74.4707823  59.3610764
  62.2347671  75.7427330  16.5006867  61.3401455  76.0784359  16.5571442
  62.2303313  75.1779480  15.7278862  48.3106726  28.6300440  22.2797528
  48.5114973  27.8673477  22.8221455  48.6533754  29.3735667  22.7756920
  69.5837602  33.8346141  67.8515577  69.8295745  34.1106074  68.7345314
  69.4918737  34.6519988  67.3620033  24.2131734  76.1277771  65.2282190
  24.9605536  76.7045736  65.3861904  24.5573878  75.4405260  64.6577549
  77.5782356   1.3006347  34.1996551  77.6882467   0.4373687  34.5982718
  76.8006429   1.2125914  33.6484456  41.2857294  61.1494970  40.9509516
  41.2710667  62.0615768  40.6609058  41.9302320  60.7277632  40.3826284
  54.9756527  58.2496357  57.7588701  55.1410007  57.3873091  58.1400347
  54.3323565  58.0871868  57.0689392  10.4178596  56.4912701  61.2501574
   9.7113532  56.9330215  60.7790565  10.9234762  56.0518026  60.5664492
  31.6669035  57.2258472  46.8907881  31.3801718  56.6240549  47.5777102
  31.5161610  58.0971098  47.2574043  29.2234659  65.6580877  58.4005737
  29.8622108  64.9608946  58.2517242  28.5431147  65.2493715  58.9356422
  71.4804167  38.0089016   6.9934073  72.0573873  38.3618613   6.3160935
  70.6434554  38.4503336   6.8489638  17.6364153  24.2603417   7.1162739
  18.4947270  24.2344494   7.5391951  17.4861115  25.1883288   6.9360485
   6.2165015  14.7572060  24.3433037   7.1170657  14.9785252  24.1061630
   6.1991828  13.8001986  24.3511524  62.1977505  16.5789740  29.5250869
  62.5701246  17.4500220  29.6623659  61.2508425  16.7180484  29.5411134
  22.1597784  78.8070603   0.6737080  22.2895735  78.0685921   0.0786963
  22.1116751  78.4088059   1.5427962  57.6380682  70.5158329  49.5039511
  57.9893303  71.3584995  49.7916269  57.9814720  70.4032087  48.6175966
  77.9215154   7.7019542  43.9601707  78.4333238   7.8613608  44.7531891
  77.0494899   8.0386393  44.1661978  66.5837917  26.0513537  68.4104109
  65.7318077  26.1224788  67.9799461  67.2041688  26.4064734  67.7738142
  49.4553995  76.4554167  23.4423614  49.8566723  75.7634211  22.9166651
  48.5978365  76.1056852  23.6842346  32.5354099  74.7648954  62.0786810
  32.3084259  75.6494331  61.7918015  33.4638786  74.8175001  62.3054171
  80.2720929  76.4470196  36.5564489  79.7750534  76.6980934  35.7778955
  80.8809624  77.1722841  36.6960979  36.1865559  28.4447615  45.1688147
  36.7605862  27.7292769  44.8953009  36.6607258  28.8731902  45.8814478
  14.1632908  29.2709275  10.6324806  14.6899908  29.9202509  11.0985222
  13.3338659  29.2481013  11.1097374  59.1207466   6.5586417  42.2959232
  59.2020783   7.2337764  42.9695749  60.0233802   6.3535540  42.0521593
  54.9400243  31.5402930  66.0610676  55.6249914  32.1772807  66.2642717
  54.1350302  31.9415515  66.3884830  44.0057343  59.5975323   1.3063326
  43.6768454  59.3303032   2.1646157  44.6074408  60.3178997   1.4940777
  72.2592348   3.0108662  19.5086708  72.2999412   3.1533737  18.5630169
  73.1187600   2.6552840  19.7345200  51.9625003  57.7546902  14.1892662
  51.2586111  58.0163689  14.7828140  52.1035079  56.8271752  14.3791619
  53.6077738  79.2679501  48.8719559  53.7581730  80.2060509  48.7554598
  52.6603889  79.1643667  48.7827158  23.9471834   4.6476145  13.8936081
  23.0147617   4.8514815  13.8210907  24.2076176   5.0146933  14.7383919
  82.9937744  65.4340744  16.6624391  83.7139130  65.9815025  16.9753993
  83.3631420  64.5518875  16.6230547  29.3473864  77.1930075  39.5116210
  29.2697287  78.0217314  39.0389538  29.4242144  77.4479580  40.4310369
  17.1138585  65.1761246  37.5672746  16.4132953  65.8280754  37.5874019
  16.7242897  64.4193745  37.1293306  27.6233125  42.8929806  60.1265240
  27.5293398  42.0681477  59.6500206  26.7407799  43.2633400  60.1406097
  45.4695177  73.3820629  52.6985216  46.1262465  73.5626364  53.3710814
  44.6756268  73.8111782  53.0176353  56.5127143  14.3539183  55.6659031
  56.2670741  14.1485637  54.7638369  56.7345295  15.2848857  55.6477213
  20.4147738  36.4463873   4.8736849  19.7463863  37.1256180   4.9639263
  21.0538691  36.8184967   4.2659655  32.2384170  10.0323527  64.6085930
  32.6828599   9.1880744  64.6854353  32.7616105  10.6281226  65.1448298
  46.9680891  12.8347819  64.5654964  46.2813780  13.4667914  64.7781563
  46.7444763  12.0570510  65.0767279  22.5005787  34.0447111  14.1187134
  22.9502314  34.8321457  13.8121357  21.5813797  34.3037291  14.1836109
  25.8191937  69.7051354  22.0353451  26.3908690  70.0452252  22.7236405
  26.2482803  69.9617310  21.2190857  41.4961121  10.6469100  49.1329336
  41.1177299  10.2998584  49.9407816  40.7735011  11.1107486  48.7099457
  55.7170400  14.4977515  46.5513086  55.3820262  14.5660441  47.4453592
  55.6059465  15.3755801  46.1861944  50.0884485  64.1317272  62.2830677
  50.0478792  63.2793713  61.8493891  51.0242414  64.3202925  62.3535633
  27.3205584  35.5630751  11.7770043  27.3915213  36.5037318  11.9393864
  27.5794619  35.1570196  12.6042404   4.8207896  35.2470465   8.9995947
   4.5105594  34.3702574   9.2259350   4.7451728  35.2891941   8.0463162
  65.4537630  67.3293066  30.0126004  65.7524824  66.5931129  30.5464721
  65.2645350  66.9436312  29.1572165  80.9452018  24.2053550  50.0417805
  81.1711273  24.7080558  49.2591619  80.8139381  24.8664515  50.7214594
  31.6856426  26.8096202  45.5240202  32.1853796  27.3726790  46.1151791
  32.3053515  26.5791171  44.8318768  76.2201352  37.9619718  41.7977762
  76.1794383  37.6886320  40.8813381  75.3590740  37.7403259  42.1522856
   3.1791756  55.3112459  63.6426163   2.4243225  55.0313902  64.1604090
   3.4712982  54.5165157  63.1961823  33.8831051  14.6706717  47.9298449
  33.5850056  13.8996642  48.4124470  33.5058602  15.4111712  48.4047937
  83.1822967  59.3675089  29.3526721  82.2347833  59.3512583  29.2178178
  83.5500718  59.3652868  28.4689474  59.4100680  25.9144469  11.1982479
  59.1185181  25.2818890  10.5416718  59.7229383  25.3772135  11.9260731
  48.5317993  59.7125626  57.4817514  48.4700727  60.6568241  57.6259518
  47.9022932  59.5353603  56.7827845  58.6757431  28.0588095  38.2964897
  59.3997917  27.7066176  38.8141274  58.3588490  27.3118728  37.7886510
  14.1125190  47.2467089  31.1543536  13.3222330  47.4149799  31.6675448
  14.0129364  46.3446474  30.8500433  57.8412447  11.3237994  18.0665529
  58.1422839  11.2624686  17.1599960  57.0997581  10.7203238  18.1140471
   9.3061596  75.1202011  56.1420107   8.5460806  75.6964207  56.0614872
   9.9442255  75.6332827  56.6378450  37.4849653  73.9127207  57.7693367
  38.2486987  74.4885874  57.8057003  37.6720810  73.3119917  57.0479870
  67.2964820  21.2463801  62.7695465  68.0922637  21.0218375  62.2873211
  66.8865046  21.9359057  62.2473431  65.4004211   7.7890129   1.8246451
  66.2040657   8.3063622   1.7723503  65.5339975   7.2145767   2.5785771
  14.7640761  12.2921317  47.6448488  13.8842543  12.3737471  48.0129337
  14.8314627  13.0162661  47.0225048  73.2600746   0.1163142  57.8559303
  74.1972217  -0.0741346  57.8144884  73.0823192   0.6184714  57.0606470
  51.7801142  72.6584864  59.7966433  51.7788649  72.6637268  60.7538271
  52.0952463  73.5288048  59.5527792   2.3010977   7.8040545  50.3913403
   2.1487292   8.7448066  50.3018904   1.6453179   7.4000972  49.8230076
  41.3453388  58.8117075  68.9302731  40.5334282  58.4137487  69.2443800
  41.4378405  58.4909868  68.0331564  55.3067780  60.5339909   9.9890435
  55.1057529  61.1404896  10.7017696  54.6043348  60.6702948   9.3532580
  78.8531170  22.2921412  54.0417957  79.7056064  22.4949305  54.4269896
  79.0608463  21.8940966  53.1964350  15.0838774  51.4532204   3.1374397
  14.9215572  52.2692414   2.6641646  14.3915814  50.8625050   2.8407707
  37.6858299  44.3921013   6.6838064  37.2269743  44.6870728   5.8972445
  38.5503882  44.1257496   6.3710394  17.5579619  66.5396309  43.0304384
  16.7038178  66.7644024  43.3994198  17.5205123  65.5921602  42.8995752
  74.3104038  47.1988910  61.2434816  74.2544517  48.1341403  61.4394426
  73.4486494  46.9759505  60.8914852  50.4498491   6.1615699  59.6362925
  50.7770929   6.5517371  58.8257885  51.1686239   5.6090396  59.9433804
  24.0463543  80.1970959  24.8421907  24.4461370  80.5316544  24.0393972
  23.9253044  79.2619276  24.6777678   7.3558419  10.1014538  14.6844521
   7.8791445  10.8994503  14.6096649   7.4490159   9.8388882  15.6002083
  44.7537279  76.6196728  55.2921724  44.8005724  76.0859776  56.0854006
  45.2152538  77.4269819  55.5190659   4.3197721  21.1948557   3.0602017
   4.9499624  21.8482800   3.3637228   4.4405001  21.1684675   2.1110144
  83.6836547   1.8025847   4.6625748  82.8232259   1.3875981   4.7232332
  83.7317127   2.3680754   5.4333773  48.9572525  52.2721338  18.8295794
  48.1906939  51.8078661  19.1658390  49.6938562  51.9021654  19.3161726
  65.1813788   4.9888249  11.5023556  64.8246450   5.3690882  10.6996289
  65.4137105   5.7441302  12.0425072  11.4475434  32.5082083   6.7442742
  12.1505135  33.1522007   6.8299380  11.2346690  32.5087137   5.8110466
  11.4587029   2.1240847  61.3220739  10.8412178   1.9802897  60.6049538
  10.9050950   2.2828811  62.0866203  52.8375778  13.3422511  62.7627850
  52.8571424  14.2606204  62.4936104  53.5352978  12.9287474  62.2544289
  15.3638514  17.3847621  67.8515673  15.4241951  16.9084304  68.6796331
  15.5588635  16.7282527  67.1828413  26.0455912  17.1173830   2.9629793
  26.4861553  17.8806610   2.5894299  25.7965820  16.5894671   2.2043410
  83.3348999   7.8230708  52.3947477  82.7779779   8.5605376  52.6441669
  84.2106638   8.0742781  52.6882839  33.4103251  60.9727907  61.5171051
  34.1866446  61.4544249  61.2314749  33.5087800  60.1053286  61.1246109
  80.3798861  60.8269520  47.6353398  81.0383505  61.0923214  46.9932881
  80.7278675  61.1292572  48.4742394  73.0049569  20.9132405  27.6628151
  72.7717287  20.5403872  28.5129967  72.6496596  21.8017741  27.6853600
  84.7159490  25.8560412  40.3559971  84.9310550  26.2094920  41.2191486
  84.2195377  26.5538447  39.9283528  31.9163561  79.1762161  59.4170284
  32.6723242  78.5993290  59.3077087  32.2737575  79.9645233  59.8257637
  20.3263014  57.3009892  18.6734333  20.7765263  57.6420422  19.4462242
  19.4786232  57.7455826  18.6744061  51.7227745  59.6906185  29.9903488
  52.3341274  60.0541782  30.6308985  51.6449499  58.7673664  30.2307320
   8.2608407  43.8174267   1.0823097   8.3194249  43.2883187   1.8778267
   8.2233041  44.7204609   1.3975039  26.5887642  57.5047112  26.9171810
  26.6098213  57.2458982  25.9958744  26.3503337  56.7045832  27.3853445
  30.3916812  70.3596878  37.5465727  30.4562426  70.4505253  38.4972620
  30.7501960  71.1779690  37.2028875  57.5806865   2.5432627  49.7390556
  57.3410306   1.6756194  49.4134903  58.4680185   2.4340861  50.0810385
  15.6462496  60.1837654  35.6048432  16.3436859  59.6958752  36.0427609
  14.8376959  59.7747059  35.9132996  45.7698822  74.7715282  35.9312129
  44.8764420  75.1098585  35.9906340  45.9315634  74.6858692  34.9916625
  70.8704716  16.6328688   3.3922234  71.7795510  16.5262718   3.6722985
  70.7014186  15.8741875   2.8336086   7.5761660   7.1331828  64.5397902
   6.7245158   6.9999926  64.9559450   7.8289803   6.2641661  64.2281294
   1.7482861  35.3332084  68.3760834   1.1242064  35.8742564  68.8598394
   2.5501688  35.3681128  68.8976145  26.0542321  37.9013300  19.1235495
  25.4791546  38.2074261  18.4222496  26.5919971  38.6625385  19.3417263
   7.0262068  50.1155587  23.9142742   7.3270863  50.9594174  24.2513218
   7.7666967  49.5248528  24.0520039  18.4205597   8.1006308  11.5476265
  19.3505543   8.3264990  11.5655270  17.9795998   8.9192505  11.3203755
  34.1779146  25.5663722  40.5773735  33.4054020  25.8871119  40.1119900
  34.0526054  24.6185916  40.6247950   6.1600398  72.0798063  44.5754814
   6.5127944  71.5808821  45.3122759   6.6847800  71.8017244  43.8247824
  17.5518000  70.0695944  49.6850204  17.0121777  70.7097197  50.1490068
  16.9975388  69.2919827  49.6191025   2.4679503   2.5196116  52.1902752
   1.7508301   3.1194346  51.9848776   2.0550236   1.6569274  52.2288465
  42.3208189  68.7155485  63.0309057  42.9929209  68.6271477  63.7067032
  42.3962736  67.9148340  62.5118732  20.9020972  76.4395666  52.3015976
  19.9628913  76.5966940  52.2044516  20.9860516  75.4860783  52.3076820
   4.4817346  15.5843563  12.5221863   4.3782061  14.7378226  12.9568138
   4.8879188  16.1449118  13.1832638  80.0321102  78.3079386  31.6871595
  80.0961494  78.2308340  30.7352209  80.8981800  78.6091089  31.9618630
  35.8448982  78.4158945  68.0865288  36.4357853  77.7923870  67.6642466
  35.4871655  78.9332438  67.3649979  25.6545275  22.1395035  10.5337754
  24.7004526  22.0715542  10.4969349  25.8193558  23.0278797  10.8497658
  32.9341888  63.1188774  39.6597791  33.7809467  62.9762745  39.2368174
  32.7989960  62.3367882  40.1948404  14.8970342  76.2428951  63.5781240
  14.9016511  75.2944231  63.7070036  13.9741802  76.4628220  63.4508181
   1.2522230   4.9453967  61.5786934   0.9867200   4.9941771  60.6603432
   1.9240651   4.2638629  61.5979004  19.0877867  75.0648689  49.6888161
  19.3337703  74.1568756  49.8656368  18.5872173  75.3318834  50.4597712
  70.6691993  66.2286043  68.7770557  71.4277066  65.8753729  69.2419529
  70.9537066  66.2882900  67.8650665  30.0647664  61.2463188  67.3389101
  30.5161357  62.0334864  67.6436520  30.7322192  60.7595301  66.8554115
   8.9779425  78.2051802  49.3979645   8.6961645  77.5458002  48.7638903
   8.1861198  78.7081766  49.5883417  39.3949375   4.7931426  33.7351942
  38.6526463   5.3529589  33.5075116  39.6203849   5.0465815  34.6302772
  47.9076290  66.4691830  34.1490865  48.3328867  65.6227922  34.0112162
  47.5776911  66.4280653  35.0466847  79.6873683  55.1884671  17.9756394
  80.0723571  55.3938313  17.1236744  80.2208537  54.4685288  18.3122673
  59.9109873  10.5791514  58.3760118  59.5839915   9.7626727  58.7537193
  59.5910344  11.2612288  58.9664602   3.8991888   5.5918830  46.2215710
   4.0103014   4.7645037  46.6898966   4.3966444   5.4774325  45.4118347
  81.0488695  12.7778168  28.3653870  80.9303374  11.9221182  28.7776509
  81.8666953  12.6960774  27.8747692  15.0148209  13.8761752  61.2010717
  14.6409758  14.6954482  60.8766127  14.2565592  13.3543151  61.4636135
  31.1516857  49.1562223  57.1983814  30.5409026  48.4562874  57.4291658
  30.6524038  49.9624252  57.3287153  35.6024473   7.2105904   4.2800513
  36.0673540   6.9313879   5.0688114  35.6210678   6.4440508   3.7070790
  69.9268121  40.8775349   6.1982718  70.2896077  41.6857548   5.8357849
  69.1088146  41.1480923   6.6152945  41.8045282  48.6707926  68.4822989
  42.4993229  48.2685280  67.9610682  41.9338036  49.6122932  68.3678484
  12.3649311  66.3871908  15.8825719  12.9620934  67.1073484  15.6800866
  11.4998841  66.7182398  15.6410527  23.8282555  40.7809658   3.0751124
  23.2565992  40.9481449   2.3257866  24.6681898  40.5374451   2.6859560
  50.5389071  61.5077305  44.1801071  51.4199543  61.6515350  44.5255136
  50.0801992  61.0429144  44.8799372  36.2902992   6.0249396  22.2455063
  36.4627903   6.5739460  21.4806118  36.3195055   6.6303511  22.9863587
  41.0594988  76.5735817  39.6180534  41.0863447  76.7872763  40.5507088
  41.7323065  75.9018850  39.5067739  43.9966202  63.0318451  64.9971342
  43.3590555  62.9938364  65.7100821  44.2970705  62.1286535  64.8960972
  70.8275631  14.3325389  28.8019695  70.5072096  15.1429332  29.1980210
  70.0590923  13.9550078  28.3739987  33.1266707  40.7181950   4.3943205
  33.5172957  39.8751278   4.6242562  32.3910969  40.8142967   4.9992409
  65.3695497  19.0241950  62.7723312  66.0519633  18.7311976  62.1684265
  65.7731566  19.7424929  63.2595491  30.7998776  79.4171000  50.3375530
  30.5789304  78.8650560  51.0876608  29.9851942  79.4812250  49.8391438
   5.8158397  74.7771215  31.8366027   6.4261721  74.1859055  31.3959360
   5.2141951  75.0577736  31.1470389  65.7806573  21.2171309  25.0799251
  65.4653654  20.6796019  25.8064842  66.3732538  21.8481677  25.4884005
  16.1056717   8.9800494  59.6497202  15.2914389   8.5100215  59.4699287
  16.7868575   8.4421866  59.2460871  16.4879978  78.9691973  39.9674010
  15.6280839  79.1213608  40.3593540  17.0098603  78.5900450  40.6746006
  73.9846286   9.2404311  67.3640728  73.2002935   9.0130179  67.8634024
  74.6774635   9.3027156  68.0215931  11.0443839  26.9930308  65.7825994
  11.5705260  26.6109221  65.0801754  10.1695641  27.0831149  65.4047012
  37.9030171  45.7735751  69.9305199  38.0921212  45.4530356  69.0486337
  37.8483334  46.7242453  69.8332159  30.7032180  78.7788200  67.4311304
  31.5604663  78.8012457  67.8563976  30.4341817  77.8616571  67.4827147
  55.7111415  13.7985652  43.9328909  55.5261168  12.8664439  43.8181973
  55.8201990  13.9066165  44.8777008  55.7037449  77.8308201  48.1375599
  54.9137354  78.2360268  48.4952211  55.5540371  76.8900967  48.2316685
  31.4105233  18.4703868  38.8232374  31.5384682  18.4998076  39.7713923
  30.6184109  18.9861529  38.6723280  58.9720553  46.1403485  11.8765393
  59.5407312  46.6927071  11.3401261  58.5399168  46.7505570  12.4741497
  49.9927902  71.7445421  30.4980206  49.7383022  72.3720026  29.8214388
  50.4610157  72.2692633  31.1473775  42.1841002  61.1505365  43.3642197
  41.7921638  61.9664860  43.6754084  41.9385958  61.1040401  42.4402046
  25.0474405  72.2796535  65.6709814  25.7023358  71.6201591  65.4420567
  24.8490405  72.1105671  66.5920019  28.8753908  28.1111641  21.6602936
  28.1454580  27.7122898  21.1866608  29.6415346  27.6051255  21.3897743
  36.7022970   5.9746326  18.1219425  36.3510540   5.4690135  17.3889961
  37.5667551   6.2584842  17.8246632  59.1715908  48.9669752  64.8714304
  59.2297554  49.9165535  64.9770260  58.7591887  48.6609697  65.6792212
  12.2729366  21.2940092   0.1370659  12.4764317  20.5670948  -0.4515037
  12.8476685  21.1600800   0.8907070  53.3303151   9.2332213  15.3844821
  52.8582296   9.5658343  14.6211088  54.2023882   9.0198462  15.0525308
  31.6972359  13.1764357  34.0046716  31.4691170  12.2691863  34.2073536
  32.4115952  13.3840792  34.6070051  13.3659800   7.8632491  16.0277653
  13.2560690   8.0299704  15.0916266  12.8126677   8.5176604  16.4541757
  60.0005913  61.8549395  31.9371581  60.3650188  61.6915989  32.8070688
  59.9552822  60.9897709  31.5301442  15.8871039  19.9508040  67.2144604
  15.3208264  20.5577891  67.6910448  15.5433615  19.0836852  67.4293518
  81.4092788  12.6378482  10.4663551  82.0862589  13.3141177  10.4905939
  81.8931398  11.8180602  10.3660846  31.7705353  11.4719241  38.6229968
  31.3290795  11.2452739  39.4415164  32.7016266  11.3578265  38.8134837
  39.0637693  24.4935077  31.0433269  38.4840515  24.1117804  30.3842044
  38.8169465  24.0591376  31.8598032   6.5151270  18.0163329  51.8726015
   7.2522887  18.3434146  51.3570070   6.8538149  17.2317164  52.3037481
  25.5361271  78.0351019  22.1179128  24.9287844  77.9529285  21.3826489
  25.1217556  77.5433779  22.8269529  39.8050308  72.8732443  48.0666590
  39.0615892  73.2035589  48.5710573  39.4108677  72.3131371  47.3979664
  20.8253455  34.2706084  40.1695490  20.2161288  34.9942207  40.3160810
  20.2643418  33.5011697  40.0722456  67.2782327  39.5193815  29.3674803
  67.9020799  38.8011527  29.2616725  66.6077877  39.3538880  28.7046480
  80.7693909  17.8733599  31.2804723  81.2354375  17.8776586  32.1165419
  80.7466717  16.9515336  31.0236621   9.4289455  43.2850205  14.5573273
   9.8703906  42.6704978  13.9710560   8.4962961  43.1405213  14.3975868
  34.3391633   8.1553382  12.1146286  33.5915995   8.7309104  11.9530797
  34.1310763   7.3525816  11.6365981  74.8863197  41.7387104  51.9748545
  75.3558851  42.4648380  52.3853159  74.2703498  41.4424992  52.6449823
  81.0345982  19.5321798  54.6845818  80.5450879  19.7341275  53.8871908
  81.2962184  20.3865457  55.0278664  26.3273335  36.9505715  53.0298519
  25.4637027  37.0435333  52.6276970  26.9232559  36.8255568  52.2912884
  27.8268787  11.7043402   0.6437674  28.3032800  10.9340312   0.9534397
  27.0535982  11.3479211   0.2064600  20.4883242  19.0585494   2.8785038
  20.6375027  19.9772561   3.1020132  21.0825515  18.8904381   2.1471587
  12.7757072  49.3793249  41.3447714  12.8767610  48.6708212  40.7091284
  12.4283803  48.9512968  42.1273232   4.6476975  69.2309529  32.6571751
   5.5965963  69.1443402  32.5659704   4.3995228  69.8662300  31.9855618
  29.0244357  68.1501395  27.0775294  28.0706660  68.2162292  27.0308018
  29.1858570  67.4810881  27.7427697  68.5381151  27.6980138  34.5003009
  68.6060263  28.3138609  35.2299261  68.6987842  26.8407679  34.8946977
   6.4171869  35.5711007  12.6865995   5.4976034  35.7915235  12.8349650
   6.9037825  36.2919617  13.0863690  45.3718139  19.5813918  36.3571453
  45.9509588  19.9850202  37.0036006  45.8313609  19.6879590  35.5242658
   2.4462940  26.3055468  40.9894276   2.1059559  25.4138064  40.9173155
   3.0408421  26.3959455  40.2447319   7.3433536  10.0973022  52.3098755
   7.3800814   9.1941327  51.9949675   8.0269688  10.5508804  51.8167543
  64.7925402  21.0510826  47.7722549  64.9388004  20.9550381  48.7133265
  63.9063288  21.4060616  47.7026033  31.8470046  72.1631577   4.1196861
  31.1017737  71.6448214   4.4233122  31.4967939  72.6868227   3.3990183
   7.2541919  71.6671390  64.4605732   7.2717038  72.6000530  64.2470407
   7.5532666  71.2329198  63.6616755  79.9603612  29.0082765  60.1599646
  80.8452050  28.6546707  60.2507734  80.0922979  29.9323297  59.9479532
  33.1204030  33.6531403   5.1484719  33.9145592  33.4464022   4.6557179
  32.7261621  32.8012445   5.3357687  11.8304774   6.4400341   6.5219107
  11.8413636   6.9687202   5.7240334  10.9471736   6.0726216   6.5537443
   1.1195256  51.6627884  28.0558372   1.4896515  51.0853958  27.3881125
   0.1933902  51.7336226  27.8245640  74.9662885  79.8779657   1.9888964
  75.2080736  79.1964343   1.3617697  74.8072490  80.6532934   1.4505615
  40.0817013  21.8599558  67.1054029  39.3992066  21.5014458  67.6727676
  39.6156049  22.1401453  66.3176966  80.6359155   3.9067852  43.9443445
  81.3581158   4.3965000  43.5508490  80.6346495   3.0687934  43.4817410
   2.2683649  14.4966054  36.6061091   1.7679372  13.9467490  36.0032320
   1.9337595  14.2674351  37.4731445  31.7262769  20.5508423  31.9294977
  31.5897226  21.2355065  31.2746549  32.2709012  20.9649110  32.5989509
  79.4635082  30.2822781  38.2580686  80.0312192  30.8242965  38.8059306
  78.6933733  30.1163864  38.8017631   4.1190434  17.2948408  42.9146719
   3.5072801  16.6963029  42.4860334   4.1746271  16.9759607  43.8154793
  14.9621725  36.2268639  35.9515429  14.0610528  36.3008356  36.2657762
  14.9175847  36.4897084  35.0322199  85.0957931   7.7354062  37.0960379
  85.7500907   8.4332377  37.0620084  85.1914157   7.2765201  36.2614632
   5.5024153  24.1901183  45.7868862   5.9317422  23.4938645  45.2897501
   5.0709617  24.7276092  45.1226711  10.7733285  56.2363815  39.0478897
   9.8168677  56.2608004  39.0764832  11.0263979  57.1098757  38.7492299
  55.8967472   5.1734406  46.8522739  56.2787200   4.2977008  46.9106627
  54.9860335   5.0211847  46.5999842  13.3980358   8.7402683  42.6792669
  13.2577455   9.6262574  43.0132914  12.5164044   8.3902436  42.5510502
   8.6888558  29.1307044  43.6710358   8.8847512  28.7330937  44.5194244
   9.4667035  29.6486855  43.4639549   3.0384937  77.0694427  17.7391958
   3.2234278  77.6874278  18.4463906   2.6119628  76.3301847  18.1725538
   1.7160240  66.9631529  54.1983032   1.7074059  67.1268654  53.2552433
   1.8929864  67.8191566  54.5883894   4.5855796  23.0778503  25.9712863
   3.7897223  22.6706433  25.6291962   4.2898008  23.9113116  26.3374686
   4.2849374  20.7788920  49.7363329   3.3701301  20.6237793  49.5011711
   4.7682115  20.0837207  49.2897701  73.8322727  76.1677016  51.4338684
  73.0744366  76.7272771  51.6035509  74.1658608  76.4663229  50.5878305
  19.1483104  37.1848607  19.7663736  19.9390554  37.5680780  20.1459789
  18.4293735  37.5881028  20.2529502  29.6837925  65.8562448  16.4785042
  30.5959454  66.0140922  16.7220059  29.2401523  66.6843274  16.6620579
   7.6980025  11.9671428  45.4024601   8.2609457  11.2070346  45.5492973
   7.1283358  11.9953585  46.1711693   9.5050085  11.6705477  50.5208492
   9.8233509  10.7722199  50.6097078   9.5290214  12.0222950  51.4107513
  40.9186558  20.2971766  37.9451642  39.9672953  20.3748820  37.8737125
  41.0549156  19.6589491  38.6453995  20.9660053   0.2447536  38.7331223
  21.1201191   1.0513030  39.2250156  21.0343862   0.5072745  37.8151679
  52.1214733  12.3109581   4.1010418  51.4394698  12.9810216   4.0550270
  51.9758567  11.7674210   3.3267060  54.3476207  75.1673628  24.6167994
  54.7189111  74.8289890  23.8020134  54.3577344  76.1182908  24.5078707
   3.4949678   8.8490993  52.8599787   2.9605740   8.7101573  52.0780897
   4.1866037   9.4460267  52.5744057  11.9848669  22.3569250  48.0366135
  11.7017531  21.5596843  48.4843731  12.2231781  22.9568243  48.7434101
  16.1250782   0.8332288  44.1881466  16.3866794   0.9140562  43.2709408
  16.9465685   0.8837223  44.6768522  19.1804171   6.0805374  31.0349727
  20.0538635   6.2673873  30.6908607  19.0041947   6.7980617  31.6435242
  79.8010678  28.5678053  56.8228626  80.7325567  28.7318349  56.9700146
  79.7028519  28.5819674  55.8708191  76.1635072  33.4382463   0.3499366
  76.0420031  32.4893451   0.3174538  75.2888406  33.7969875   0.1999473
  54.0956000  58.1576903  49.1642141  53.7192113  58.7231929  49.8385811
  54.6018460  58.7509854  48.6092854  41.7918205  31.3526320  47.2690868
  41.7762423  30.3972530  47.2121477  42.7219725  31.5750694  47.3087168
  43.4726522  40.5930645  10.3794995  43.9538524  41.3866890  10.1453295
  43.6641988  39.9789085   9.6707335  36.1579394  31.4208007  40.6714249
  35.8494902  31.7311192  39.8200774  37.0609283  31.7333674  40.7274866
  12.1318889  29.9533510  38.9169812  11.8088865  30.7061410  39.4121647
  12.0098007  29.2088819  39.5061231  43.4766093  74.8723257  53.5696173
  44.1499701  75.4819805  53.8715124  42.9715577  75.3718174  52.9280090
   7.4981588  40.6539011  55.6524563   7.4811786  39.9046397  56.2478971
   8.3339733  40.5754709  55.1925707  10.6380785  23.6072707  46.0586691
  10.5381417  23.0682015  45.2740335  11.2169611  23.0986929  46.6265345
   7.0832008  32.9925466  49.0293407   7.8933501  32.4848008  48.9836597
   7.2254032  33.6061239  49.7501278  18.5704029  32.2382760  64.7432423
  19.1928744  32.9597807  64.6527386  17.7119017  32.6615906  64.7464800
  78.2938791  28.6524844  36.0396743  78.4708108  29.3968010  35.4644179
  78.4377278  28.9927459  36.9227147  26.3035110  50.7368581  66.6275609
  27.0186845  51.3729410  66.6400728  26.7181554  49.9154185  66.3638571
  78.0148746  38.4491944  55.0260639  77.2542120  38.6943054  55.5528879
  77.9334832  38.9735460  54.2294073  18.7107539  41.2923813  63.6700201
  19.4731557  41.2544584  63.0924940  19.0148556  41.7784119  64.4365215
   0.8598750  43.8509893  57.4154377   0.2708816  44.4962502  57.8065348
   1.7302048  44.2411566  57.4962330  27.9778290  12.4690855  59.8550224
  27.8604913  12.6794863  60.7814121  28.4024262  13.2432890  59.4854879
  62.2174415  54.3726613   1.8382015  61.5246424  55.0132015   1.6770544
  62.5467286  54.5902851   2.7102366  80.7457308  31.7063475   1.3270329
  80.2050234  30.9325361   1.4854117  81.5375860  31.5549207   1.8430436
  69.9609844  79.4250619  42.9935884  70.0446729  79.4375790  43.9470387
  69.0332274  79.2491623  42.8368759  75.4515852  17.1735895  64.6593857
  74.5097757  17.0438886  64.7707605  75.7152535  17.6840317  65.4249954
   7.8047860  20.2190208  33.7436748   8.0231118  19.5512807  34.3938208
   8.4108561  20.0566864  33.0207920  18.4287736  66.2417128  19.4540348
  19.3691728  66.0632088  19.4498482  18.0245766  65.3924849  19.6319809
  82.0423464  54.7421741  19.3573642  82.5506262  55.5299759  19.5503747
  82.4355287  54.0631628  19.9056172  83.0891281   9.6897733  41.7373085
  82.7969531  10.6012094  41.7250443  82.3487304   9.1961432  41.3846445
  48.9779235   5.6034511  33.6675930  48.9223720   4.7000793  33.9791465
  49.2210294   6.1096287  34.4427824  29.5488691  20.7195711  42.2251892
  28.8728237  21.2032056  42.6998329  29.1504908  19.8687816  42.0416546
   8.8496852  35.6261492  35.9529471   8.8789392  36.5481663  36.2084103
   9.2571199  35.1619577  36.6842151  61.5224851  68.1562717  21.6130757
  61.4251972  67.2042889  21.5907741  62.0788036  68.3224148  22.3740864
   0.3579504  19.7498226  44.6037817   0.9978680  19.1969037  45.0521326
  -0.2698084  19.9904311  45.2851486   3.1080720  22.4638367  43.4393692
   3.6514893  22.1688938  44.1700792   2.8417122  23.3507228  43.6816883
   9.4755530  35.9040332  26.5237784   8.9780438  35.1315284  26.7920184
   8.8355523  36.4576340  26.0763884  80.0534047  33.3680844  36.7721248
  79.1233177  33.2296848  36.5931940  80.3047008  32.6255870  37.3214698
  84.0172296  24.5445967  28.5575271  83.4640614  24.1582537  29.2364812
  84.9071095  24.4692707  28.9020157  84.4855328  46.7482901  18.0679929
  84.5794894  46.5226746  17.1425188  83.6485730  46.3614416  18.3250511
  54.2504263  15.3175771   4.4754171  55.1393652  15.3606212   4.8277965
  54.3623972  15.4178953   3.5300964  76.1751224  66.0190725  27.8938603
  76.7256130  65.4467678  28.4283352  76.6911609  66.1778927  27.1034741
  48.9952809  34.8539375  68.9117389  48.7706859  35.4093315  69.6582821
  48.1830866  34.3919759  68.7039768   1.6904035  76.4538656  33.4121895
   1.4725628  76.1055897  32.5476193   1.9179049  75.6822229  33.9308834
  10.6826353  19.6494555  60.6135893  10.0857806  18.9943540  60.2518749
  10.3866434  20.4776645  60.2358437  38.1938929  51.4011304  46.4484606
  38.7422795  52.1625929  46.2595758  37.6612396  51.6693763  47.1971640
  78.0203338  25.4832506  10.6170619  78.3490999  26.2396264  11.1029005
  77.0722718  25.5091214  10.7464516  20.4841748  80.6888923  59.1175175
  20.7324257  79.7653011  59.1572857  21.0596075  81.1190251  59.7500467
   0.4288053  25.8384538  56.5862894   0.4174321  26.5179610  55.9122181
  -0.4947770  25.6452513  56.7472267  15.6022441  42.2044611  23.5098171
  15.6514049  42.3037958  22.5590539  16.3069522  41.5929413  23.7234974
  29.5773112  61.3069465  11.6661968  28.8541609  60.8838632  11.2032833
  29.5300733  60.9563973  12.5556412  71.8807961   1.5332161  50.1226187
  72.7730049   1.7260924  49.8345327  71.3988436   2.3460242  49.9699879
  29.9197626  14.2430866  68.9507151  30.7642126  13.9475405  68.6104393
  30.1408648  14.7541559  69.7292757  82.8615985  23.8437438  44.3888283
  83.4121655  23.7729478  45.1686335  82.8305243  22.9544711  44.0360355
  68.5769654  11.2752867  62.3280573  68.2496692  10.6237769  62.9482555
  68.9907063  10.7600749  61.6355228  18.9543247   9.1167003  53.4091234
  18.2513869   9.1777474  54.0559530  19.0911973  10.0183320  53.1183386
  31.9551775  31.2454894   5.6989804  31.8339250  30.5902543   5.0118151
  31.0961077  31.3182261   6.1148396  16.8930263  28.7528725   1.6085377
  17.3108477  29.5370169   1.2524834  15.9686488  28.8489790   1.3793507
  31.8173528   4.1630059  66.5858316  30.9388089   4.4031966  66.2913799
  31.6978002   3.3297014  67.0413971  23.3437037  27.6732183  44.4989252
  23.0040169  26.8140054  44.2487192  22.5627780  28.2126904  44.6228552
  47.8585205  62.1978779  38.3389616  47.0563040  61.6827411  38.4244895
  47.9644761  62.6195116  39.1917396  75.0788320  14.3106794  44.3112993
  75.2164770  15.2528071  44.4096899  74.9576725  13.9916384  45.2055931
  12.3981440  15.3395438  48.8323641  12.4593663  14.3864477  48.7683964
  11.5399003  15.5496633  48.4642649  84.4969517  -0.1112349  53.3615828
  84.2202052   0.7988368  53.4684134  83.6794900  -0.6014466  53.2739449
  37.7363086   9.4240940  47.0373964  38.5849690   8.9825457  47.0696688
  37.8050232  10.1229274  47.6878881  37.7214289   6.6762954  42.3038292
  38.4968853   6.1408168  42.1360111  37.8251243   7.4347150  41.7291307
  75.3112854  15.9979117  59.7534418  75.1119376  15.5699325  60.5861044
  74.7854341  15.5244136  59.1088390  41.2382642  65.2911491  52.3216057
  40.7540683  64.4661517  52.3557234  41.7500297  65.2353127  51.5146303
  63.3379827  58.5030586  28.4191489  63.7191019  59.3810613  28.4288883
  62.3925183  58.6524017  28.4141445  15.5605793   6.1863768  21.7217922
  15.9512699   5.3282017  21.5570855  14.9816477   6.3335127  20.9738469
  25.2483487  26.3974500  37.8836250  25.5571628  25.8099437  38.5733366
  25.2757001  27.2680402  38.2805586   9.9954087  35.9968829  14.5234346
   9.4948214  35.9587312  15.3384125  10.3733480  36.8762732  14.5154345
  71.9655756  40.9093005   3.4488785  71.7375199  40.6912143   2.5451857
  71.7119304  41.8272597   3.5450527  39.6294188  20.7189679  12.3179495
  39.8569608  19.8010147  12.4656630  39.8033714  21.1467576  13.1563818
  66.7689289  27.0531893  31.3708949  67.1350647  27.6366973  30.7062936
  66.2622167  27.6296806  31.9428492   2.6899639  64.3586058  25.3193998
   3.1812897  64.7407288  24.5922065   3.1774488  63.5672505  25.5481982
  38.4705690  54.5639426  49.2138100  39.3424551  54.3916566  49.5692873
  38.6216179  54.7448976  48.2860899  18.9208412  17.0921350  27.1734262
  19.3794060  17.2820592  26.3549662  19.6142697  17.0478761  27.8317809
   2.4459954   2.4257576  27.1602821   2.8452981   2.9275662  26.4496660
   3.1557280   2.2944538  27.7889895  28.5309768  17.7895272  11.6916680
  27.7871585  17.6950920  12.2866869  28.6618996  18.7350261  11.6200912
  32.9104161  66.7325354  56.4240980  33.6178279  66.6388702  55.7861090
  32.8434587  65.8709431  56.8356895  63.1351709  18.9747751  30.7603908
  63.3276606  18.7828863  31.6781926  62.9612589  19.9158967  30.7438374
  25.3108728  69.8763635   1.6089621  25.6087539  69.8458602   0.6998053
  24.6002761  69.2363479   1.6497793  61.8822670  27.9529929  43.3055162
  61.8719196  27.0114684  43.1332970  62.0064116  28.3525968  42.4446249
  62.2778714   5.3182240  24.7521153  61.7736036   6.0727711  25.0564327
  61.8500507   5.0574084  23.9365330  27.5635386  38.6709213  60.6585121
  27.3234415  38.7152696  61.5840483  27.2607493  37.8087401  60.3735733
  11.2492061  22.0456314  43.7408733  11.5582216  21.1506844  43.8816261
  12.0316446  22.5877762  43.8413763  19.3352568  16.0960841  63.0732250
  20.1424098  15.6790757  62.7718306  19.1026521  15.6196332  63.8701725
  10.2679050  78.7256527  64.8763704   9.6473002  79.1221094  65.4878426
  10.3381920  79.3590117  64.1621256   6.1222663  70.5647082  13.3957314
   6.6334954  71.3202042  13.6857343   6.2320366  70.5519433  12.4449325
  13.3094215  33.4387398  46.2404394  13.4656334  33.7045932  45.3342676
  14.1332817  33.0381370  46.5179300  21.8349242  28.7156844  28.1155682
  21.4012980  27.9812145  27.6811123  21.1332178  29.3461990  28.2777119
  54.8457137  78.8973800  30.7422876  55.1567641  79.2796446  31.5628695
  54.1898432  78.2541291  31.0111666  12.8622639  27.2653961  33.5897350
  13.1310916  26.3784480  33.3503842  13.5829747  27.8219461  33.2946754
  15.0451732  37.3436236  32.9734349  15.0529432  36.9422054  32.1045065
  14.1952670  37.7805853  33.0278134  14.6996546   8.3150429  53.3789635
  14.7179627   7.9156065  54.2486477  15.1719940   9.1408455  53.4846878
  11.7432535  38.1960249  14.3506181  11.2522495  38.4098792  13.5572624
  12.1305835  39.0275621  14.6240246  20.1056910  15.6539726  59.5925808
  19.8333061  16.5094757  59.9244690  19.3574417  15.0817645  59.7626734
  52.3270559  51.2932873  27.5100636  52.1668243  52.1208954  27.0566058
  53.1327248  51.4432573  28.0046701  66.3093413  29.3526793  40.9727812
  66.4806653  28.6816597  41.6335487  66.5805031  30.1717544  41.3872957
  31.3563795  72.7775340  67.3616474  31.5639631  72.6869397  66.4316294
  30.4448942  72.4939327  67.4323388  13.4143329  37.8142524  17.2806954
  12.4578798  37.7764535  17.2815204  13.6841619  37.0409989  16.7852139
  17.6581323  12.1639216  41.8785000  16.9355702  12.6720881  42.2471523
  17.8918731  11.5439618  42.5693321  53.6778259   9.6117979  28.7075806
  54.2773867   9.2790687  28.0397105  52.8588629   9.7686034  28.2375336
   5.6946817  77.7983654  32.8702354   6.2301078  78.4306521  32.3908997
   5.6287136  77.0459096  32.2822809  31.0440850  45.4018641  55.8054447
  31.7519665  44.7949457  55.5891466  31.1721778  46.1409330  55.2108002
   9.5957476  33.4814835  43.2073975   9.8397785  33.6929059  42.3062944
   8.8480932  34.0497422  43.3926725  12.9943323  44.3184757  30.0482607
  13.5129976  43.6372519  29.6202993  12.8485990  44.9731159  29.3652964
  84.2824312  32.4235129  39.5038748  83.3489601  32.2479224  39.3854237
  84.3111579  33.1916523  40.0742865  24.3207645  15.8844101  18.8691533
  24.8728824  15.6290901  18.1300938  24.5195222  15.2415502  19.5499301
  10.8031666  21.6886353  53.7604427  11.1308086  21.2448883  54.5427275
  10.5965662  22.5750685  54.0567303   8.5964194  76.3852317  40.0262928
   8.0002537  76.4766915  39.2830205   8.5710373  77.2381342  40.4600477
   7.9844230  31.3332462  24.8425508   7.7437353  31.5667224  25.7390928
   7.6033467  30.4651451  24.7106004   8.2643348  28.1920481  33.8941932
   8.8340485  27.4546504  34.1130638   8.8577777  28.9394021  33.8199234
  17.9774988  21.4981961  48.0381918  18.5354781  20.7838154  47.7307034
  17.2098780  21.0609412  48.4066963  81.7971677  23.8370867   3.9917698
  82.6589340  23.5582562   3.6821785  81.4159030  23.0496807   4.3801871
  15.8276120  76.9698206  43.8892889  15.2825823  76.2576560  43.5546350
  16.4347115  76.5430246  44.4938612  42.1429128   8.2690640  11.7122116
  42.6554424   7.4662133  11.8069687  41.3057870   8.0696793  12.1313706
  43.7245748  71.3603308  11.5571633  44.4151649  71.9385889  11.8810978
  43.6986682  71.5230229  10.6142464  21.2506223  35.0511813  51.7360449
  21.2596393  34.0986753  51.6418028  20.9339023  35.2007413  52.6268578
  77.5334639  55.1172590  26.8799710  76.6724594  54.8844528  26.5325475
  78.0433948  55.3664017  26.1091733  12.7141190  46.4460945  28.5319257
  13.5864234  46.3353539  28.1537032  12.2795892  47.0720625  27.9526329
  10.3104687  60.9140635  57.7767181  10.9221137  60.1778078  57.7698660
  10.8565140  61.6773224  57.9651451  41.8280602  26.0466051  39.2300892
  41.7051554  25.6322622  40.0841665  42.4908161  25.5091882  38.7963080
  23.1596994  46.2663317  32.4250197  23.3214426  47.0698500  32.9194188
  23.2911158  45.5631971  33.0610728  76.0492412  61.9239170  61.4659357
  76.0767988  61.4940102  60.6111526  76.8619279  62.4280007  61.5068197
   7.8040922  25.3943801   0.2862041   7.7642435  24.4816756   0.0005204
   8.7265593  25.5394578   0.4965333  81.5652163   9.7312492  53.0929852
  80.8388613   9.4268608  52.5489378  81.9185294  10.4852235  52.6208353
  37.5472662   4.1749327  26.7945337  36.7303363   3.7627833  27.0755792
  37.6323644   4.9454253  27.3560786  19.2665520  77.7149002  44.4087982
  20.1498595  77.7792169  44.0456581  19.3784085  77.2296582  45.2262688
  15.4375553  27.7544522  50.4359388  16.2860215  27.8203106  49.9977636
  15.1079094  28.6528778  50.4558754  31.2508607   8.5442001  42.0232344
  31.6389084   8.3982211  42.8859901  31.9040895   8.2119769  41.4074850
  30.5453873  21.4425898  49.6978569  29.7552800  21.2727427  49.1849089
  30.2200127  21.7398572  50.5475616  34.1511416  29.9808383  56.9770861
  34.1556597  29.2883897  56.3162374  34.5604897  30.7291555  56.5427065
  43.7228584  27.4872923  27.9043245  43.5239887  28.0988646  27.1953368
  43.9677715  28.0466294  28.6414742   7.4841022  41.4606476  24.8654962
   7.2230422  41.6535807  25.7659721   8.0306762  40.6781054  24.9370241
  64.1304779  20.6637239  37.8917480  63.8551712  21.5301394  37.5921440
  63.3467579  20.2891302  38.2938528  69.1727317  25.2853394  35.8358669
  68.4387101  24.7076130  35.6268716  69.9125208  24.9169493  35.3529263
  32.3660040  42.2350740  63.3888292  32.5001478  41.3995552  63.8362026
  31.4157915  42.3497534  63.3754587  20.8577752  20.2497101  68.1681681
  20.5869842  20.3847814  67.2600603  20.0469041  20.3166890  68.6723900
  10.6729007  45.0223970  45.6312513  11.5721643  44.8696375  45.9214592
  10.2266502  44.1898060  45.7857847  21.2251353  44.3136072  51.1187649
  21.3801241  45.2287674  51.3526392  21.9488478  43.8367081  51.5250111
  42.4216604  27.1844101  64.7717381  41.7309570  26.7344427  65.2582550
  42.1957636  27.0461297  63.8519144  51.7452478  27.7003026  25.3333139
  51.7297649  26.7499399  25.4464555  51.6224718  27.8316092  24.3931460
  67.8435684  21.9405723  40.3179693  68.1182946  21.3680172  39.6017742
  66.8981196  22.0336866  40.2009773  66.4874361  80.2153011  45.2821636
  65.5670450  80.2208906  45.5449963  66.8624947  79.4625726  45.7392883
  84.5715154  15.2985346  12.3248243  84.3257804  15.5590820  11.4371526
  83.8691540  14.7118115  12.6053178   6.7828286   8.9496243  45.5252743
   6.8326151   8.1401193  46.0336590   7.6775610   9.2897373  45.5282593
  78.1304790  41.5360546  29.3891644  78.1470252  42.2791338  29.9923182
  78.9729733  41.1013889  29.5214510  47.5804853  31.5795064  37.2457266
  47.1666288  31.2184691  38.0296946  46.9814825  31.3549829  36.5336776
  21.8466258  47.5068188  48.7969923  21.2834930  46.7583227  48.5998440
  21.6814804  48.1248951  48.0849934  32.8738332  37.2194123  55.0108385
  33.2405448  36.6022110  54.3777418  33.1918764  38.0751085  54.7229767
  39.6769524   4.9497294  21.9764543  39.0075016   4.3179300  22.2389340
  39.3439174   5.7930005  22.2833943  28.9304543   0.9729727  36.2375355
  28.1607819   1.5080732  36.0438824  29.6554518   1.4350419  35.8167005
  12.7148571  80.6893644  47.0228958  13.1446686  80.2116647  47.7323294
  12.3757973  80.0058454  46.4449072  55.8403827  64.7662544  53.1378746
  56.7248131  65.0738049  52.9393053  55.5617429  65.3017330  53.8807440
  10.5258882  43.8762569  50.9047556  10.9298849  43.9621878  51.7682552
   9.6749723  43.4733343  51.0774565  82.1574004  23.0111837  34.4293785
  82.7444146  22.4924088  33.8793612  82.0897226  23.8534069  33.9795876
  12.3972595  15.4074407  26.7123365  12.1654534  15.3697336  27.6402783
  12.2452211  16.3193715  26.4643478  30.0866222  59.3650770  47.5252771
  30.4384494  60.2389193  47.6951218  29.1907144  59.5214558  47.2267342
  35.9506098   6.1026881  65.4237935  35.0676862   6.2280819  65.7715759
  35.9928004   6.6818640  64.6628693  74.6171576  28.1835432   4.0708771
  74.2425794  27.3686047   3.7365093  74.1772920  28.8718004   3.5718289
  44.6827790  78.6500051  21.3038864  44.8795936  78.6592891  20.3671875
  44.2962298  79.5086172  21.4759293  10.0867450  50.1017666  50.3259659
   9.3838805  49.8260880  49.7375679   9.6687436  50.7202053  50.9251642
  22.1984649   4.8339444  37.3385906  21.2675786   4.7576436  37.5480247
  22.6440954   4.6961516  38.1744480  29.8320246  14.3008566  16.7999434
  30.1983356  13.8023782  17.5303996  30.2009869  13.8878584  16.0192180
  57.0949411   6.2576753  21.6760015  56.9165945   7.1979034  21.6959262
  58.0500889   6.1950356  21.6749406  32.6371422  61.1272449  47.2912645
  32.0393029  61.1415465  46.5438604  32.6152125  62.0212276  47.6326513
  80.9464798  24.2688847  39.1438508  80.0988181  23.9565325  38.8274074
  80.7326807  25.0134778  39.7060823  81.1761014  69.7278149   7.6317233
  80.4365436  70.2718944   7.3610520  80.9828798  68.8633413   7.2689801
  13.1827128  35.3999591  29.7667408  12.3896158  35.3947544  30.3026557
  12.8669798  35.2840948  28.8705707  14.4375169  28.1384873  24.4729114
  13.5396409  28.4623003  24.4008350  14.9698889  28.9281178  24.5693302
  51.2251759  33.5054541  36.4951491  51.7169476  34.2409062  36.8605280
  51.7760277  33.1788278  35.7837343  37.1440339  12.1040976   7.1187216
  36.6099548  12.3322499   6.3578409  38.0452490  12.1397746   6.7981470
  18.1301141  40.4770422  51.9540739  17.6640975  40.8992672  51.2324190
  19.0371966  40.7662868  51.8552351  13.6754549  49.2771006  59.5745087
  13.6448622  50.2253866  59.4478416  13.2377350  49.1332865  60.4135227
  26.9787288  26.9139171  43.2548237  26.4865541  26.7511058  42.4501562
  27.8734279  26.6445637  43.0469942  81.5004013  20.8761287  68.9786100
  81.5742598  20.3191495  69.7535610  81.7554913  20.3090525  68.2508850
  72.0891036   2.3754019  52.8851795  71.8998231   2.0208661  52.0164394
  71.3736440   2.9882276  53.0548668  10.2245593  35.4049850  38.4160852
  10.3180349  36.3448048  38.5717487  10.0972402  35.0294113  39.2872715
  29.3550849  12.0356226  64.8896933  29.2906070  12.3304772  65.7980633
  29.3390417  11.0802317  64.9462843  40.5693436  47.5998735  58.1303072
  40.7348394  48.5404396  58.0657291  40.2333403  47.3560286  57.2678280
   7.3544490  35.9586525  39.3062496   8.0638504  36.5887833  39.1800833
   7.7788019  35.1956558  39.6986651  34.4086051  37.7785707  69.5608187
  33.4605432  37.8313899  69.6817350  34.5245337  37.6830268  68.6154795
  15.9988451  36.0085678  48.7533092  16.9035399  35.7410574  48.5914516
  16.0687792  36.7108488  49.3999481   0.9927054  55.2074289  57.8725576
   1.7246468  54.6705294  57.5688553   0.5281653  55.4536104  57.0726681
   3.1069785  17.8876054  55.5189657   3.5302916  18.3024383  54.7673321
   3.5851622  17.0673764  55.6405973  81.2414075  42.6533175  57.1949816
  82.1743382  42.6237106  57.4071026  80.8006282  42.5220060  58.0344486
  30.8226252  35.0134420  50.6092978  31.2275267  34.2348528  50.9915066
  31.5509629  35.6190825  50.4716206  12.6240492  21.1942267  51.6881132
  11.8314803  21.0877466  52.2141647  12.3115766  21.2035441  50.7834005
  24.5631796  52.0956829   3.0565396  23.6689767  51.8876066   2.7857294
  24.4574192  52.6123908   3.8553229  21.6056633  41.9775963  33.5126829
  20.9959936  42.0458364  34.2474484  21.1874366  41.3618946  32.9108238
  -0.0632009  43.1024606  37.0200801  -0.5230174  43.5358293  36.3010573
   0.6546178  42.6319511  36.5963006  36.4735270  40.6357336  34.6048999
  35.5771732  40.7657242  34.9145508  36.8545341  41.5138149  34.5988059
  41.3131556  56.8207338   1.6897764  41.0741887  57.6175430   1.2162581
  40.5599198  56.6415813   2.2526016  13.4359467   8.5547560  50.5704975
  13.8549912   9.4143307  50.5284739  13.6235809   8.2397962  51.4547062
   4.8941830  50.7778645  46.1174870   4.1452861  50.2495670  46.3936949
   5.4610556  50.8111143  46.8880606  36.7299906  70.1836088  16.6235581
  37.1559069  71.0323765  16.7436352  36.3720355  70.2186158  15.7364979
  84.5448400  42.9500532  23.4399271  84.4430539  43.1520319  24.3700218
  85.2850778  42.3441410  23.4060264  22.0001578  55.3291273  58.4093523
  22.8027654  55.4183149  58.9232588  22.2221160  54.6962118  57.7264309
   7.5900090  17.1100855  65.8816910   7.5282073  16.3376784  66.4436531
   7.5821179  16.7595315  64.9910259  18.7948978  11.7411995  30.6156731
  18.6928701  10.8854842  31.0322952  17.9413807  12.1617198  30.7200909
  33.6230803  40.7759142  39.0217328  33.7940717  41.4177179  39.7109938
  33.4268117  39.9657416  39.4921947  11.6077936  32.1767616  48.2621622
  12.3688662  32.7571344  48.2492018  11.2667239  32.2090411  47.3683739
  68.3037473  52.2477055  11.0855675  67.9430629  53.1340551  11.1082852
  67.5443829  51.6770172  11.2035179  10.1078710  73.1112125   2.2124853
   9.7395310  73.3089330   1.3513985  10.8566746  72.5441434   2.0282116
  17.7749014  54.1158676   9.8964512  18.3443773  54.0291166   9.1319877
  18.2506776  53.6755800  10.6007349  26.9510436  17.4614441  36.6509867
  26.8660641  17.3976982  35.6997013  27.8903031  17.3749161  36.8138814
  21.8858409  13.0581045  47.4192047  21.6805458  12.9713857  48.3501005
  22.8396893  13.1327105  47.3902321  11.1186910   7.8484809  46.6377449
  11.5823150   7.3179114  47.2856474  11.2100267   7.3607987  45.8191729
  43.0926419  31.9600463  21.3261914  42.7235414  32.7894163  21.0226417
  44.0373374  32.1125031  21.3493109  13.9084411  29.3333721  29.8633718
  13.1830144  28.7097168  29.8311019  14.3662167  29.1263437  30.6781173
  36.5595309  59.3843038  21.3971090  35.9555999  59.1717345  20.6855512
  36.0224406  59.3405897  22.1882176   2.1247356  39.0187907  54.1984940
   2.7819616  38.3229852  54.1866112   2.6057968  39.7979045  54.4774103
  54.7503194  49.0703317   3.2711163  55.5728755  49.4715717   2.9906883
  55.0178322  48.3450749   3.8356247  14.3333805  23.5203695  34.6372318
  15.1071632  24.0669346  34.7741985  13.8357723  23.9756060  33.9579844
   3.3931521  42.6413870  42.5727940   2.5758427  42.4041653  43.0109310
   3.1199610  43.1871605  41.8354130  21.4052606  54.4731188  54.7205353
  22.3060250  54.3921804  54.4069958  21.4256167  54.1070271  55.6047249
  26.3782716  25.9348798  45.8014107  26.8737316  26.2454748  45.0436020
  26.9031644  26.2011766  46.5562677  66.1993680  80.0612133  64.6756220
  66.1319587  79.4508249  65.4098654  67.0886103  79.9387657  64.3432283
  45.5493641  16.2903941  41.4151001  46.2519598  16.7406142  41.8840218
  45.5473185  16.6901982  40.5453968  27.8062725  47.2177553  13.8514912
  28.4421134  46.5022707  13.8565207  27.3092937  47.0908403  13.0433214
  49.9278317  78.0580903   5.7948810  49.7685550  77.5439797   6.5864325
  49.4214729  78.8600291   5.9242135   9.7080380  37.4502540  56.9652414
  10.3694344  37.5104308  57.6545620   9.3411112  36.5714240  57.0614338
  21.0273004  52.6672411  65.6576014  21.7035913  53.2816505  65.3723574
  20.9156132  52.0726633  64.9158239   7.9210359  34.4989252  60.0317240
   7.1335965  34.0955806  59.6663713   8.4065586  34.8111033  59.2681503
   4.7120929  29.1393089  38.4902978   5.1460487  28.9247656  37.6645350
   5.0635058  28.5068035  39.1169381  43.3046336  60.2373509  64.7406426
  43.5595936  60.0422256  65.6423927  42.7858550  59.4800977  64.4692234
  70.0512625   9.5952141  18.6394334  69.5622481   8.8367105  18.3204198
  70.5944003   9.2494136  19.3477094  24.5462505  75.8660565  17.5358260
  23.9504377  75.1452477  17.7399731  24.7227708  75.7730628  16.5996504
  84.9884485  31.4094090  10.9393978  85.0253275  31.1551046  11.8614614
  84.6857823  32.3173928  10.9532857  64.8616485  69.1495962  32.1737695
  64.8161314  68.5631568  32.9289174  65.1763509  68.5959334  31.4591718
  54.2403555  51.5673923  19.6389210  53.7931824  52.0280600  18.9289534
  53.8278818  50.7039118  19.6613538  84.5480293  26.4340878  19.2519462
  83.9684553  25.7183552  19.5128179  84.4506765  27.0861650  19.9458849
  57.6554856  17.1021788  49.6635246  56.9418654  17.0154231  50.2955484
  57.7616367  18.0467074  49.5502901  26.2963629  52.7254868  41.7214108
  25.4620600  53.0639315  41.3964081  26.5001726  53.2763100  42.4772453
   9.7945625   5.3832948  22.8744745  10.2009642   6.0151762  22.2813535
   9.5324850   5.9025878  23.6346602   9.7703242  67.9066563  37.0864367
  10.0846910  67.3488569  36.3749146   9.3076265  68.6192465  36.6455770
  74.1615183  35.2778502   0.9539118  74.2807967  35.5965967   1.8485632
  73.5284108  34.5646591   1.0361614  49.9352313  15.4312015   4.7449070
  50.0217343  15.1576138   5.6580877  49.5642472  14.6688449   4.3005908
  24.9789143  14.0181613  27.4126458  25.0097418  13.3811271  28.1264162
  24.3121171  13.6775982  26.8162990  30.0707579  26.7388844  66.9469738
  29.1880846  26.7388678  66.5766764  29.9331117  26.7352724  67.8942156
  46.5458247  67.9127529   4.1147557  47.1531210  67.3105266   3.6849299
  45.7805094  67.9317858   3.5401573  21.8110776  52.1889734  39.9317551
  22.5926185  52.7024364  40.1361656  21.5803075  51.7647219  40.7581854
  31.5958840  76.4369180   8.9550534  30.9362906  76.7167284   8.3203306
  32.3673478  76.9639304   8.7468901  56.6367293  54.6400356   6.1289763
  56.1058618  53.8773441   6.3585657  55.9997584  55.3379965   5.9761852
  12.7960587  42.4237919  39.6508169  12.9120243  41.6054106  39.1680741
  13.6788726  42.7867413  39.7225070  10.7659495   2.6553470  47.4092197
  10.0114167   3.2390583  47.3305273  11.3875568   2.9781476  46.7568111
   9.1781622  53.3904409  34.6127319   9.8401964  53.8912487  35.0893188
   8.3486831  53.8074875  34.8456883   5.2071482  26.6888976  15.3814816
   4.9979937  27.5200939  14.9553347   5.6570971  26.1803937  14.7067964
  17.2756493  49.0554810  21.1879492  16.7917180  49.8620844  21.0106754
  16.6275883  48.4678125  21.5763998  38.2596755  48.4368706  51.7950249
  38.9545798  48.7237453  51.2025356  37.5768805  48.0970621  51.2166166
  52.8670416  58.1944349   5.0118151  52.8920564  58.9601591   4.4379940
  53.6230526  57.6710334   4.7458639  75.8964593  27.0130014  17.6817501
  75.6783379  26.0853338  17.7716720  75.2117134  27.4686074  18.1714237
  14.2324793   8.3107769  67.0598030  13.4131396   8.7911904  66.9409847
  14.1725230   7.5793242  66.4453030  42.0140371  68.6717942  15.7012406
  41.2748274  69.2524149  15.8820095  42.4646279  69.0806653  14.9623051
  59.7053194  26.1459613  31.3395619  60.2253962  26.5411282  30.6398487
  60.2352190  25.4097772  31.6453028   3.5142925  45.1734734  53.9762688
   3.5025433  45.8964157  53.3490086   4.3086290  45.3158951  54.4910288
   6.5898067  11.4575279  61.7760229   5.6804657  11.5093696  61.4816713
   6.6683525  10.5835009  62.1583033  50.6993961  14.2576504  36.7259049
  51.2922668  15.0062954  36.6605830  50.9514332  13.8229012  37.5405836
   6.6953245  76.3834224  38.0231762   6.3626304  75.8563329  37.2967291
   5.9361806  76.5145842  38.5912681  85.4638701  25.3281617  36.4185333
  85.0797631  26.1959124  36.5438342  84.8964670  24.7407198  36.9177318
   3.8747921  72.6864720  52.2523594   3.6165753  71.7805726  52.0823526
   3.1016007  73.0849642  52.6518679  33.3714437  25.9929681  43.1316090
  33.9044714  25.8545136  42.3486996  33.5650063  26.8919706  43.3972359
  82.0329631  43.1465197  22.3762012  82.7006058  42.8449345  22.9922628
  81.5065185  43.7681293  22.8788853  74.7415222   9.8225218  31.3351655
  75.3882910  10.4470992  31.6635323  74.8879136   9.0313011  31.8535948
  21.1178112  23.8432264  39.3753529  21.6059160  24.6487665  39.2048049
  21.7259789  23.1411576  39.1441321  54.6144128  11.9460602   5.0321284
  53.8926819  12.1873064   4.4514933  55.3989858  12.2586890   4.5816364
  25.5524015  15.1603830   0.5931076  24.8756266  14.8016489   0.0190732
  26.3715887  14.8039103   0.2494593  48.5645876  75.2738097   0.8186951
  49.4029960  75.3642442   0.3657904  48.7982926  75.2096012   1.7447033
  14.4233170  70.4952557  31.6731238  15.2318516  70.3390927  31.1851525
  14.1791382  71.3936956  31.4508319  24.9051809  64.6588802  43.6953068
  24.6738195  65.4908371  44.1082811  24.0654349  64.2255831  43.5426140
  49.8334894  62.5211790  17.0942250  49.9916777  62.0557334  16.2729016
  49.3270263  63.2922270  16.8388596  78.6133702  29.3975806  41.9314623
  78.9686788  30.2541065  42.1688509  79.2538715  29.0336037  41.3203096
  76.5814717  28.5198236  54.6401548  77.4769415  28.6728239  54.9417448
  76.6744960  28.3076620  53.7114096  76.3591940  17.2133732  30.0090313
  76.0922230  16.6011560  29.3233562  76.6750277  16.6547132  30.7192278
  77.6804448  24.4257379  39.2703462  77.1452041  25.0750566  38.8141274
  78.1000997  23.9263773  38.5698032  55.7905826  37.3761638   9.3824473
  56.2527904  38.1206273   8.9972582  56.2317524  36.6073620   9.0211334
  26.1111832   7.1751601  41.5181017  26.8234539   7.1544224  40.8789778
  25.3983235   7.6281178  41.0676670  76.2602652  23.7747192  50.0091505
  75.7950605  22.9818535  50.2759457  76.3427992  24.2862678  50.8139706
  39.1366696  35.7104588   1.9645329  38.5237241  35.0208044   2.2192983
  38.9917016  35.8247685   1.0253046   4.3801817   4.3079150  34.4057608
   4.4558284   3.6138529  33.7509418   4.8648804   3.9774564  35.1621294
  49.0618944  30.1225734  40.4834223  48.4114361  29.8556018  39.8339105
  49.0407324  31.0793471  40.4643202  43.1395054  35.0121355  66.6269732
  42.8860807  34.0901875  66.5820551  42.3125458  35.4908705  66.5705585
  64.2351748  26.8204331  16.1985636  63.5382773  27.0506334  16.8130314
  65.0030972  26.6745377  16.7510533  67.4945487  44.5687199  41.4919853
  67.2198082  44.8068237  42.3774529  68.4506954  44.6034718  41.5203953
  16.0328913  24.2253590  24.3542671  16.3724816  23.6012816  23.7128329
  15.9091020  25.0348163  23.8585973  11.1552656  35.1105404  67.2386932
  10.3718221  35.6603408  67.2257519  11.7204845  35.4830384  66.5619326
  66.4671458  27.5014162  38.7083912  66.4344205  28.0664802  39.4803143
  66.4435924  28.1067491  37.9672790  10.6877911  37.7227974  41.6896582
  10.5911672  37.8044581  42.6384640  10.0614226  38.3510184  41.3301706
   7.1557534  30.7248163  68.4221506   6.3432914  31.2085795  68.5708523
   7.2285050  30.1409984  69.1771984  11.2542140  19.6703410  67.2951889
  12.0349121  19.5733297  67.8404713  10.6457734  20.1743746  67.8355455
  80.0016937  52.2662928  18.3614292  79.7850904  52.0472982  17.4551430
  80.9584150  52.2535946  18.3888092  41.0893917  31.5675378  69.3163824
  41.3728619  31.2542582  70.1752949  40.8606720  30.7724643  68.8349533
  22.9890442  32.1197510  44.3482447  22.9835439  32.5587845  43.4976864
  22.6610875  32.7787876  44.9600840  13.3990973  41.5928288  11.1366692
  13.9164084  40.8758183  11.5034237  14.0427464  42.2693749  10.9263649
   5.7073939  34.4852138  56.7995977   5.1544428  35.1250505  57.2480249
   5.3003782  34.3776417  55.9399462  16.0401309  47.3748446  53.1048870
  16.6676390  47.2970390  52.3862696  15.1919591  47.1851635  52.7038145
  33.5639999  73.2078030   0.5169239  33.6389396  72.7466109   1.3523331
  32.6758686  73.0156114   0.2160635  57.2409153  42.2826242  30.5556154
  57.8544807  41.6169786  30.8665562  57.7023983  43.1116056  30.6823087
   6.4870828  41.4282751  40.1938295   6.9785082  42.1465588  39.7953296
   7.1437323  40.9295177  40.6799221  20.4247499  57.7068043  40.7102442
  20.2640295  56.9886732  40.0981283  21.0925174  57.3682451  41.3066483
  12.1607512   2.3660965   0.3270951  12.4191397   3.2251139   0.6610956
  12.4384802   1.7515488   1.0063830  73.4372816   2.5893538  36.3214040
  73.6933956   2.7756446  37.2246957  73.6220798   3.4004729  35.8479285
  24.3918824  62.4981499  63.0097389  23.8526487  61.7138910  63.1116772
  24.0835953  62.8966522  62.1958637  31.9305277  72.5261641  47.8202438
  32.7920341  72.1631289  47.6147032  31.5720963  72.7873468  46.9719839
   6.8931079  25.6176662  35.1101017   6.8637753  24.8004794  34.6125269
   6.9812596  26.3001609  34.4447732  76.9079018  38.9078021  29.6895909
  77.0355463  38.3573151  28.9169955  77.4992132  39.6486068  29.5561862
  57.3479652  59.0928364  45.0572968  57.4840689  58.1666183  44.8577309
  57.9541111  59.5543003  44.4777536  26.6765213  23.1136250  33.2092762
  27.3510098  23.2673001  33.8708496  25.9577703  22.7039075  33.6906910
  17.9517245  26.1676168  53.4149790  18.3889830  25.3161430  53.4205246
  17.0181155  25.9575748  53.4371138   8.5914069  38.3504796  36.2196684
   9.3134129  38.9763951  36.1633563   8.2224071  38.4883380  37.0920610
  43.9311790  56.1099482  55.4572296  44.8813105  56.0105801  55.5173159
  43.6276197  56.0627222  56.3637924  66.9415988  52.3386526  30.5495715
  67.6834549  52.6857090  31.0449839  66.3532485  53.0862808  30.4440856
  16.7814219  44.5208597  41.8255854  16.4909661  43.6126995  41.9099522
  17.0208287  44.7794151  42.7155638   7.6113015  30.3621197  13.8121712
   7.4984896  31.3066816  13.7058461   8.2393706  30.2751327  14.5292449
  11.9078910  26.7195821  26.9571924  12.8357100  26.7056537  27.1921158
  11.8564844  26.2019920  26.1536431  46.7833138  49.3487549  48.9478731
  47.3474741  48.6315775  49.2370367  47.3907804  50.0308180  48.6615086
   0.3455990  27.3179837  10.6310692   0.7737368  27.1340819   9.7949448
   0.0479644  26.4626475  10.9409847  45.4285669  71.9399118  26.7927909
  45.4487944  72.0373058  27.7448082  45.2533388  71.0096502  26.6508675
  10.7636714  24.7878170  37.1033454  10.9573865  25.3585792  37.8469419
  10.2550745  25.3365660  36.5063214  45.8303452  59.2812300  59.5495319
  45.6701517  59.1577816  60.4851246  46.6754818  59.7287464  59.5082426
  35.4549360  77.4902344  48.8717318  36.2479591  76.9659138  48.9832449
  34.9957585  77.4108124  49.7078419  17.6953399  22.0410776  19.0893400
  17.2893596  21.3690090  18.5418594  18.5290933  22.2294927  18.6585426
  10.4499185  13.2889020  39.0874386  11.1510515  13.2257104  38.4388638
   9.6710235  12.9725838  38.6297297  34.3364859  20.2089477  36.7977095
  35.2339315  20.5351567  36.8641162  33.7896252  20.9803128  36.9466114
   4.6996909  43.4605074  32.8191996   4.4019568  43.9523935  33.5844660
   5.6549299  43.5005760  32.8655052  13.6006522  17.0839763  14.8488152
  13.3917403  17.0055139  15.7796383  14.2934585  16.4396238  14.7036934
  57.0780468  66.4599371  50.9824228  57.2157526  66.6875410  50.0629330
  56.1266422  66.4518452  51.0872698  25.4661703  38.7709594  48.2755423
  24.6965361  38.4341574  47.8167820  26.0457778  39.0772295  47.5780535
   8.3868235  64.4439554  35.5142403   8.7355053  63.5633469  35.3757572
   7.9709667  64.6704578  34.6823788  48.9467573  32.0040226  31.2274194
  49.1097832  32.8903055  31.5501547  49.4339514  31.4377785  31.8259525
  84.4441957  22.7528734   3.8810959  84.5239825  21.8920107   3.4702625
  85.3476924  23.0332871   4.0270224  11.0160279  45.1011324  31.7551041
  11.8020606  44.7422075  31.3433313  10.4192567  45.2695370  31.0259008
  64.7425708  80.3106620   0.0936356  64.3531808  80.8829954   0.7547274
  64.1157374  79.5935466  -0.0015316  27.7806735  51.9054556  39.7150326
  28.1332278  51.1995363  40.2568913  27.3256397  52.4774122  40.3331280
  35.8148456  31.9686508  37.8282404  36.5788674  32.1781468  37.2910142
  35.0747418  32.0230675  37.2236609  84.8556624  51.3452148  41.9212055
  85.1030624  51.2075615  42.8355742  83.9167200  51.5286875  41.9521427
   2.8877571  34.0337110  58.7928438   3.2532930  33.1494761  58.8201094
   2.0668447  33.9686751  59.2808056  30.9239745  40.0562000  52.5806665
  31.1230254  39.8985028  53.5035658  31.1095548  39.2219090  52.1496773
  54.2644176  67.1078279   1.6105595  53.5949144  67.2988822   2.2674408
  55.0942406  67.2510698   2.0656529  10.5969715  35.4177856  50.4048300
  10.7638013  34.5894074  50.8544827  10.6868339  35.2080417  49.4752264
  23.4181929  33.2591987  31.7219758  23.7788749  32.6967430  31.0365701
  23.1916666  32.6574445  32.4310684  69.6133537  23.0556364  21.9623032
  69.7629673  23.3159037  22.8712120  70.3800148  23.3812018  21.4906349
  24.2440724  10.5905831  45.7888412  23.3767915  10.4460096  46.1671972
  24.2303896  11.5031314  45.5002308  16.6629148  44.1495991  29.4461608
  16.8916750  44.9973822  29.8271704  17.3097086  43.5428047  29.8062825
   1.5080586  30.5380964  20.6771445   0.6896579  30.1532459  20.9907413
   1.9302598  29.8344350  20.1843619  63.8756634  24.9583507  49.9284029
  63.3102680  25.5000591  50.4789591  64.6675850  25.4826784  49.8093510
  85.2416796  30.5274315   1.5863791  84.3090791  30.6343575   1.7736092
  85.6803984  31.0856743   2.2283449  26.1618400  39.7456169  56.5432787
  26.8309808  39.4511628  55.9253979  25.8044815  38.9379048  56.9122362
  68.7612690  63.4360552  51.2935305  68.2198692  64.2135525  51.1570787
  69.0361632  63.4932089  52.2086239  31.2096071  67.6429796  58.3924437
  30.6500077  66.9107342  58.6510801  31.8682981  67.2503424  57.8195620
  47.5113964  30.3763366  27.5604010  47.1041107  30.9021425  28.2487893
  47.5970125  30.9764647  26.8196249  29.3755913  73.8106632  25.2195883
  29.6366119  73.1069136  25.8135867  30.1762891  74.3165874  25.0811720
  30.5662417  72.6182032  42.4826908  30.3319478  72.5449800  41.5575027
  30.5550051  71.7168474  42.8046703  58.0236244  55.6012058  55.1828051
  57.2554302  56.1417294  54.9985790  57.6659584  54.7346544  55.3761864
  23.4320951  43.0873442  51.9269085  23.8308907  43.0679941  51.0569572
  24.1248775  43.4144497  52.5007439  43.7826252  70.5270672  45.6245470
  43.5103512  71.2719631  46.1604834  43.0823660  69.8838902  45.7349682
  12.9274023  48.6331558  54.0440083  13.5915923  49.2606497  54.3291950
  12.1183586  48.9371777  54.4554090  51.7603636  47.4880409  60.2732944
  52.0277882  46.6343689  60.6138277  50.8040619  47.4723434  60.3116894
  80.4688544  53.1545877  31.2670445  79.8976726  52.4200153  31.4915037
  80.9026791  53.3807564  32.0897675  39.8968491  44.3748846   2.5805941
  39.5935974  44.9970811   1.9194308  40.6673500  43.9646157   2.1878615
  33.8917160  69.6017551  34.6992779  33.8205814  69.1977501  33.8344359
  34.4443798  69.0012264  35.1994395  14.4397581  53.7913895   1.3798451
  14.2165983  54.6377087   0.9923205  15.3342223  53.6211491   1.0845760
  46.2743425  51.7808867  17.0966434  45.7497311  51.0565615  16.7555237
  46.6497755  51.4426374  17.9095829  56.5834808  55.4175854  39.7509885
  55.7255507  55.4666710  39.3293595  56.9813395  54.6240854  39.3928051
  64.9765540  72.9678202  41.4335918  65.4359795  73.7384844  41.7671156
  64.6101905  72.5511742  42.2136021  74.4713844  44.7389650  18.6938190
  74.8117603  45.6322050  18.6438298  75.0217665  44.2388487  18.0911624
   8.4326798  34.9343491  57.0799685   8.7295282  34.0495944  56.8670845
   7.4841070  34.9052596  56.9550896  25.2924377  23.4032386  51.2854195
  25.5629450  22.5811904  51.6944313  26.0454884  23.6667960  50.7565689
  28.2024789  10.9417439  52.4655056  28.4715557  10.0236011  52.4364805
  28.0687451  11.1812413  51.5484524  30.5153108  34.3606114  36.2464213
  29.9608493  34.4110441  37.0250511  31.4071679  34.3101859  36.5903354
  27.6063848  53.0987310  55.9200191  27.7282143  53.5260296  55.0721979
  26.7561197  53.4135294  56.2269068   0.8502451  52.1314240  47.5129223
   1.1823104  53.0125904  47.3411417  -0.0638769  52.2646093  47.7636671
  77.0732487  48.4232092  27.3782420  76.5412040  48.7016773  26.6328454
  77.9329873  48.2350302  27.0018506  66.0788781   1.7607279   0.6188908
  66.7268414   2.3225279   1.0440531  65.6147051   1.3402195   1.3427344
  35.3840923  35.5788398  55.7616234  34.9134469  36.3866687  55.5563545
  35.0276041  34.9324989  55.1522017  25.1619887  49.6545649  48.8336372
  25.3841352  48.7315845  48.9560509  25.4707885  50.0831509  49.6318769
  10.1688528  52.5317049  12.1154392   9.6369648  51.7638159  11.9064653
  10.2169108  53.0205584  11.2938869  10.0865563  48.5059949   7.5291004
   9.5306309  49.2126795   7.2008028  10.9690388  48.7435737   7.2444763
  80.7228647  54.1568708  48.7814713  80.0122077  54.0029383  49.4039679
  81.1081551  53.2922602  48.6392307  14.2635477  62.0509291  47.4324131
  14.7180986  61.2681866  47.1210718  14.3071020  62.6617432  46.6967201
  28.7007475  67.6022673  43.0165911  29.1535258  67.7314949  42.1832132
  29.3688011  67.7715111  43.6808920   3.1357878  42.3928690  28.5903525
   2.7941024  42.6774549  29.4379926   3.8094372  41.7485380  28.8077593
  73.8821853   6.4281118  29.1913342  72.9949559   6.4839751  29.5462108
  73.9232660   7.1265298  28.5380697  10.8352447  48.3701372  57.1432781
  11.7419457  48.1004000  56.9970989  10.3117883  47.6914930  56.7170477
  67.6964602  71.4569237  25.5967369  67.4578747  71.3140252  24.6808281
  67.3631916  70.6850340  26.0542908  35.7522368  34.0654540  44.0928173
  35.7443500  34.6617079  43.3440542  35.6372809  34.6348381  44.8536205
  13.3805740  54.3200588  51.6480207  14.1799104  53.9541006  52.0266628
  13.5254776  54.2847490  50.7025146   9.4818038  46.7484808  50.2104902
   9.4584936  46.8944740  49.2647743  10.1491451  46.0731459  50.3322077
  35.0721097  71.0437536  56.2972546  34.6349835  70.6439781  57.0491409
  35.3257823  70.3033686  55.7461548  35.8913064  35.9354496  26.3634539
  36.8207645  36.0468984  26.1636591  35.5931759  35.2642322  25.7495975
  81.8517933   0.3687804  51.9183588  81.8146953  -0.5801065  51.7980766
  81.0017643   0.5958312  52.2953558  18.5892987   8.5558307  28.2565403
  18.5367501   7.7661943  27.7180743  17.7369523   8.6079931  28.6889935
  26.4852643  51.2010670  63.3821440  25.8355808  50.5153847  63.2272768
  27.3263121  50.7449198  63.3538532  27.7380705  38.4959650  54.6782351
  28.4022784  37.8885198  55.0039244  27.3792887  38.0651164  53.9024305
  29.2909169  14.4265699  51.9308805  29.6111798  13.5680640  52.2077084
  30.0076246  15.0270510  52.1357870  23.9690056  78.8027714  48.9038563
  24.4565239  78.4891872  48.1421328  24.6392384  79.1585869  49.4873142
  77.0136983  51.0551214  54.9843407  76.4246006  51.5139723  55.5832148
  77.6062168  50.5684090  55.5572844  40.6790733   3.2124627  55.0353098
  40.1787519   3.9984474  54.8159122  41.3291311   3.5119870  55.6708717
  24.9667144  43.7814379  60.2664661  25.0911093  43.8144159  59.3179560
  24.3449306  44.4853735  60.4510975  18.1953323  73.0412483  31.6653872
  18.0740142  73.9335775  31.9898272  17.6222372  72.5066137  32.2148967
   7.5329733  33.7554526  51.5871859   7.4494427  32.8342986  51.8336153
   8.0229545  34.1525364  52.3072386  56.9113431  12.1102374   3.4739742
  57.6531086  11.5211146   3.6116290  57.2080335  12.7138083   2.7928603
  17.4469399  31.5506196  61.8712330  17.3969567  30.5996847  61.7739725
  17.9143035  31.8470240  61.0902405  38.1812906  29.9498105  46.6807318
  38.9907074  29.6620774  46.2584925  38.3812356  29.9355435  47.6167059
   8.2245386  53.8388968  27.5727749   8.8327098  53.2358646  28.0002189
   7.4764460  53.2930183  27.3306918  16.3568139  60.6247711  30.6198883
  15.6930280  61.2031603  30.9955049  17.1895850  60.9900856  30.9186721
  30.2307582  43.1661320  47.6399326  30.2559853  44.0867662  47.9007626
  30.8414030  42.7316666  48.2354021  39.8227096  28.7565637  41.9666672
  39.9431348  28.8145638  41.0188484  39.1004944  29.3563414  42.1534920
   7.2343045  64.8317337  53.9487600   6.6289753  65.4955244  53.6183167
   8.0914944  65.2571487  53.9268589  66.3173676  63.7925148  59.5097876
  65.7354021  63.5166407  60.2179146  65.7749224  63.7468910  58.7224483
   1.6139771  46.1262274  13.6552560   1.6185302  46.0629749  12.7001595
   2.5329885  46.0322666  13.9058995  50.2395234   3.4687369  12.9967284
  49.9094805   3.1410258  12.1601212  51.1879167   3.5184996  12.8771281
  21.1242779   9.4232981  27.0384765  20.3241070   8.9409869  27.2466493
  21.8037137   8.7507575  26.9905996  26.3917749  38.9477749  13.1019726
  27.2399014  39.0410109  12.6681271  25.7742327  39.3876572  12.5176945
  52.0961380  61.7725229  67.3813438  52.0979166  60.8980131  66.9921637
  53.0191708  62.0245409  67.4083471  67.0323849  71.2046528  53.7911034
  67.0324755  72.1608210  53.8355017  67.9581165  70.9673023  53.7370920
  81.2541303   5.7158988  56.7734528  82.1588764   5.4770224  56.9749546
  81.3118038   6.6100924  56.4368057  26.1609006  67.8477144  39.2367268
  25.5710626  67.6326561  39.9592733  26.9362879  67.3083210  39.3918657
  20.6424141  54.8415852  62.3331451  20.2191067  53.9832020  62.3182440
  20.3575397  55.2632332  61.5224075  56.5801716  74.0815544  26.2012744
  56.6456127  73.2003975  25.8331609  55.8984470  74.0119171  26.8695784
  15.3782189  76.4497614  52.9211712  15.4472065  76.9568491  52.1122599
  14.4375730  76.3940096  53.0894184   5.5845660  42.3664045  56.7328310
   6.1474466  41.8068409  56.1977720   5.4172224  41.8524170  57.5227928
  42.5793266  64.6375942  50.0911140  42.8340006  63.7502861  50.3442192
  42.6511765  64.6443272  49.1366386  52.0488462  13.3837931  38.9264154
  52.6129303  13.5209697  39.6874833  51.1597499  13.4878581  39.2653990
  79.5238695   4.7423308  58.7543726  79.9831113   4.4485610  59.5411587
  80.1950082   5.1883452  58.2377768  45.0661707  58.7839937  47.3317432
  45.1667070  58.6393023  46.3909006  45.8757830  59.2217922  47.5946045
  45.3520584  40.2020597  54.4945145  45.3380775  41.1244822  54.7497988
  44.6998310  39.7873545  55.0591803  40.7790709  78.3220148  35.6862450
  40.4912710  78.3197784  36.5991521  39.9678230  78.3575296  35.1794481
  29.0131664  44.8122168  50.1327753  28.6873388  44.4450521  50.9545183
  28.2919526  45.3518581  49.8089361  38.0250001  58.3392096  49.5426130
  38.7887001  58.0819225  49.0260935  38.3202791  58.2823801  50.4513550
  78.4068308  39.8117488  47.8447723  78.9878234  39.0541213  47.7763462
  77.9444465  39.6849482  48.6732388  75.8105326  55.3499651  60.5366850
  76.7239761  55.6205463  60.4437542  75.4310608  55.9903860  61.1384249
  19.4037938  59.8288918  54.8781347  19.2124152  60.6595755  54.4427443
  18.5472786  59.4960451  55.1461411  62.4966860  70.0717449  57.1674776
  61.6652250  69.7483730  56.8205786  63.1632710  69.5692778  56.6990519
  57.1398649   0.0025599  19.9031675  56.4306793   0.1492350  19.2772496
  56.7867336   0.3040545  20.7402062  18.0045223  60.1822758  36.9601655
  17.9151440  59.2374134  37.0845747  18.8127804  60.2822399  36.4572167
  30.2834177  21.0669463  60.2645302  30.5087498  21.7740195  60.8690977
  29.3489013  20.9176963  60.4081774  46.6978333  11.4413302  21.4194441
  46.1740241  10.6457560  21.5138888  46.7189118  11.8199580  22.2983217
   2.8069943   7.0641775   3.3384457   2.8601378   6.8215580   4.2628613
   2.6468080   6.2377901   2.8827563  27.7876496  41.2500381  49.6335220
  27.0160913  41.0978556  50.1792049  27.9861641  42.1787643  49.7530794
  59.7598657  12.7538245  54.9444246  60.6004367  12.3281329  54.7757244
  59.1159401  12.0492022  54.8729706  58.7526855  15.4264777  34.7507620
  58.6221609  14.4823687  34.8393178  57.9677162  15.7354014  34.2984104
  77.0206642  72.2867584  60.2860069  76.5229893  73.0658054  60.0377369
  76.5684080  71.9500780  61.0595369  72.2034225  68.9091732   1.4572611
  72.9062233  69.1432812   0.8510485  71.3985548  69.1153600   0.9819641
  57.6160049  65.0790739   1.4078046  57.4618721  65.9946394   1.1749486
  57.5490856  64.6063995   0.5781490  80.1264534   1.1143344  35.8449483
  79.5760975   1.3341372  35.0932670  79.7381029   0.3149836  36.2005424
  85.1175627  71.4494610  52.4074554  84.6821813  70.6935120  52.8014374
  84.8330402  71.4403057  51.4935637  70.7170836  46.6816638  64.9391196
  71.5852896  47.0765803  64.8585472  70.3850035  46.6481612  64.0419951
   7.1861084  15.2638953  16.8249130   6.7527445  15.4389518  17.6602483
   7.9986580  15.7681601  16.8663311  55.4599151   0.4146426  17.5726962
  55.9710846   0.8249705  16.8751526  54.8648009   1.1028521  17.8700912
  84.9424171  62.8237200  25.0334668  84.7629738  63.6172962  25.5377126
  85.3673553  63.1379986  24.2354155  83.1620203  38.6843681  50.7740402
  83.8182576  39.2395759  51.1951447  83.6593474  38.1590700  50.1471758
  56.0425720  12.6894706  67.8305769  56.6053042  12.3913901  67.1159315
  55.6444821  13.4954589  67.5017357  59.4803033  15.7689326   0.4344833
  59.6743688  16.4607852   1.0668688  60.2623639  15.7207434  -0.1153232
  78.7692356  51.1713219  36.3793159  78.4775925  51.8908882  36.9391346
  79.2741299  50.6040382  36.9619823  72.0490492  43.3877802  44.7620249
  71.2660957  43.5411596  45.2908802  72.1074427  44.1548920  44.1924953
  17.4912708  27.9401369   4.8723974  18.4229582  28.0502577   5.0623169
  17.2856300  28.6490698   4.2630091   3.2255638  39.5714831  69.7593832
   2.6317117  38.8839436  69.4579506   3.9791575  39.5114398  69.1722536
  67.4246032  44.6218796   7.4735441  67.4261243  43.7390824   7.1035519
  67.2107345  44.4938774   8.3977213  26.1185234  24.8267002  11.4826050
  25.9417885  25.3689976  12.2513046  25.7694452  25.3314419  10.7480183
  43.2222700  60.4176235  53.5808134  42.5321531  59.9014902  53.1641865
  42.7538776  61.0312748  54.1467381  29.2784953  78.8804865  35.6275606
  29.6822929  78.1158400  35.2170753  28.3557844  78.6433077  35.7202101
  57.9792500  59.7502041  57.3216963  57.1559572  59.2697430  57.4087858
  58.5409546  59.1714239  56.8062067  31.5365767  63.5865498  68.0355883
  30.6069708  63.7882423  67.9288960  31.9789195  64.4275093  67.9200172
  28.6064339  65.2694941  53.8746309  29.2000937  64.9615574  53.1898165
  27.7936816  65.4747629  53.4125376  46.3593674  50.7525826  36.8087578
  45.6825113  50.4418802  37.4100566  46.9987488  50.0408554  36.7794418
  15.8400834  42.9281044  18.2321131  16.1895823  43.7761688  17.9584849
  14.9789286  42.8787708  17.8171313  63.4938192  77.2617579  49.8949575
  62.6101112  77.5461006  49.6616268  63.6171913  76.4437485  49.4134283
  31.9634223  42.3894548  51.0422993  31.3749027  41.7265177  51.4033985
  32.0165181  42.1801996  50.1097631  70.9345350   7.0826381  56.9918346
  71.4337787   7.8931849  57.0918560  70.9743414   6.6688769  57.8540707
  55.5753097   3.2751506  32.1452546  55.4105887   3.0323165  33.0563688
  55.3820762   4.2119162  32.1083617  32.8469825  59.6608353  68.7072182
  33.0901837  60.5071354  69.0825319  32.4738622  59.8762321  67.8524542
  27.8760624  69.4813967  36.4194894  27.4632955  69.9447155  35.6906605
  28.5755968  70.0666571  36.7099285  49.6640730  80.0892067  68.9584351
  49.6027899  79.5394707  69.7396326  50.4953575  80.5534363  69.0568495
  53.7802792  47.3742247  35.5793405  52.8733206  47.4123478  35.8829832
  54.2954254  47.6844788  36.3240576  19.1978514  40.6896591  32.2836709
  19.2529845  40.3471899  33.1758094  18.3351433  40.4137421  31.9740915
  74.7345600  15.4852526  62.4365282  75.2482042  15.7057803  63.2135534
  73.9539013  15.0512545  62.7806902  58.6887407  57.1368933  26.5373993
  58.6515284  57.0675516  25.5834389  58.5423279  56.2435341  26.8483734
  39.7801089  62.1048212  46.7361546  40.5074739  61.5396214  46.9963837
  39.6229243  62.6598501  47.5000048  44.7956181  67.9668999  40.4136801
  45.3671598  68.4150553  41.0371637  43.9590597  67.8851128  40.8716202
  44.3011332  58.3396673  67.1257257  45.1317930  58.5821104  67.5349379
  43.8380384  57.8425741  67.8000259  56.9154820   7.8665393  10.9835422
  56.2743625   7.8640406  11.6943097  56.5158758   7.3303740  10.2986526
  59.1723728  66.8499184  41.5376997  59.5205784  67.7212477  41.3485765
  58.8479567  66.9114494  42.4361420  74.3223000  62.1118450   8.4915251
  74.9010563  62.6871061   7.9911810  73.4464645  62.4709892   8.3495557
  47.8860188  46.2952995  64.5323420  47.6548195  47.1540880  64.8862600
  47.1217966  45.7480574  64.7132254  32.7233267  68.8101053  52.7370977
  33.0547929  69.5983076  53.1673336  32.0347309  68.4905577  53.3201551
   1.9597062   8.7036746  22.1016192   1.0041769   8.6711161  22.1478701
   2.1599062   8.5564559  21.1772394  56.2749290  48.9331627  53.8806915
  57.1285582  48.6755228  53.5325909  55.6999588  48.1960917  53.6748552
  43.3610249  63.8743210  15.3977430  43.2672167  63.2778311  14.6550226
  42.4715948  64.1826963  15.5710983  80.3834781   0.8876174  66.8112183
  79.6491251   1.4640467  67.0226240  80.0832281   0.3851359  66.0538578
  54.7521767  79.5680454  15.2612343  54.3946514  78.8171508  14.7873535
  55.6803641  79.3618109  15.3715458  43.7931633  67.7099848  47.1270752
  43.2098246  67.9760170  46.4163208  44.1603327  66.8753386  46.8358850
  59.3978214  79.2337990  56.3438940  59.9513102  79.9747133  56.5907335
  59.9191284  78.7478161  55.7049131  42.1311566  28.3265345  47.4101114
  43.0793950  28.1959288  47.4058914  41.7783138  27.5088351  47.7609730
  31.5849590  34.4704652  47.5642300  31.3407063  35.2518916  48.0601597
  31.8005252  33.8201904  48.2327366   1.1148699  18.9889567  68.1697464
   0.3021534  18.4836142  68.1883574   0.8340891  19.8980563  68.2743263
  19.0888345  55.2645063  67.7077961  19.8115504  55.8423615  67.9527378
  18.8928962  55.4974937  66.8002987  63.9006615  79.2206001  39.6319556
  62.9874086  79.1027784  39.3705726  63.8567972  79.7695494  40.4148769
  69.5093155  66.2327433  55.1502657  68.6903811  66.2202168  54.6548605
  69.6218777  67.1488667  55.4038048  52.2876358  65.5303812  52.6828194
  51.6464853  65.9479713  52.1076918  52.2112751  66.0045052  53.5108328
  44.6157074  23.2592583  14.8972082  45.0872469  23.7973952  15.5330467
  43.9060259  23.8216829  14.5869446  61.9536638  64.3273449   3.5413393
  62.2444487  65.2388954   3.5139501  61.0511827  64.3541813   3.2234773
  25.5648279  50.0665474  43.1930923  25.6171799  50.9584093  42.8494835
  26.2022662  50.0470829  43.9069033  83.1020164  74.2530870  39.5870018
  83.8073730  74.7939777  39.9421525  82.3022747  74.7373247  39.7923350
  15.6272352  74.5495892  29.4834423  16.4953387  74.1463327  29.4798279
  15.7562387  75.3995895  29.0626264  22.4378657  54.5627928  64.5340872
  22.0295262  54.6223831  63.6704111  23.2117915  55.1226568  64.4722557
  48.1878805  51.2744045  33.1031299  49.0021849  51.2830162  33.6061883
  47.5440741  51.6818380  33.6825609   7.1132010  38.7060709   3.9688196
   6.3617700  38.3718748   4.4586125   7.7344459  37.9779597   3.9570322
  69.8454389  19.9855845  49.8354626  70.6496296  19.9068015  50.3485966
  69.4951114  19.0954631  49.8010540  13.5794640  64.0731573  14.0978467
  13.3535039  64.0886641  15.0278652  14.0803516  64.8770475  13.9596260
  51.0501608  11.4579718  64.0933657  51.5386710  12.0470660  63.5184193
  50.6907329  12.0292800  64.7720814  10.4885983  43.9282942  38.5851359
  10.9584200  43.1651211  38.9213824  10.6093001  44.5991087  39.2572021
  48.2959461  78.2193470  49.8502684  47.4307013  78.3646250  49.4675398
  48.6946821  77.5502682  49.2938757   3.1742757  32.8542395   6.8448248
   3.0956596  31.9132014   6.6882935   3.4670466  32.9222412   7.7536144
  26.5975094  60.1721668  43.4336090  25.9758592  60.3011703  42.7172661
  26.2852907  59.3869066  43.8831806  59.9130392  55.4517841   9.3979836
  60.2522564  56.3309383   9.5660621  59.5618677  55.4965258   8.5086536
  15.4883528  71.0607386  63.7771749  15.3823340  71.8294907  64.3375349
  14.8380649  70.4371691  64.1004753  55.9408579  14.3353026  53.0596972
  55.1123747  14.5254939  53.4997797  55.7784948  13.5198062  52.5855255
  76.8866882   5.2292960  55.0937939  77.1813497   4.3746989  54.7790480
  75.9514675   5.2498286  54.8908854  58.5091591  55.4120064  67.8659821
  58.1945992  56.0741329  67.2504616  57.7331066  54.8926878  68.0764103
  22.9643035  62.0343208  33.7599850  22.7084422  62.6541185  34.4430804
  23.9118266  62.1438980  33.6798477  66.2583885  16.7908995   5.2679163
  67.1630940  17.1018927   5.2358991  66.2611279  16.1155742   5.9462601
  46.7301512  57.3956347  35.3215384  47.6473379  57.1845436  35.4960299
  46.3464737  56.5700960  35.0257206  35.8447838  46.5183163  56.3114452
  35.8761787  45.6817961  55.8472538  35.5469751  46.2922478  57.1925974
  27.4169421  54.8562241  43.2710505  28.3707309  54.8876333  43.3454323
  27.1088290  54.7757483  44.1737270  52.8837967  71.6444206  56.9335985
  52.9942369  72.4964476  56.5115976  52.4614048  71.8439007  57.7690792
  67.5567445   3.2411902  24.5552444  67.1914730   4.0716689  24.2501044
  67.1646580   2.5821822  23.9823484  25.5806351  57.9770899  54.6870852
  25.8499384  57.3292255  54.0359545  26.3999796  58.2725143  55.0841188
  40.3727245  25.9421825  34.9693537  39.6079350  25.6728196  35.4780459
  40.6172943  26.7917800  35.3362346  33.5915232  11.7323351  31.4808965
  33.9318800  12.2518468  32.2092485  34.3102503  11.7057002  30.8492684
  67.4382124  14.0457862  17.6311922  67.2397217  13.2248252  18.0815971
  68.1468544  13.8225882  17.0276654  68.3023271  16.1335032  39.7494054
  68.2168254  16.7247432  40.4973030  67.4063716  15.8539050  39.5614719
   9.0021276  60.8684444  50.8417130   8.8887680  61.6265059  50.2683687
   9.3554342  61.2326956  51.6533327  32.8903985  75.3532887  19.7045290
  33.0004525  74.8744106  18.8830709  32.7049565  76.2526846  19.4344616
  27.2230077  67.6926422   9.9806166  27.5209475  67.2426653  10.7711744
  26.2679696  67.6808357  10.0438261  69.0094763  49.3967552   3.9930954
  68.3122391  48.9268227   4.4505396  69.1106183  50.2123089   4.4838944
  55.1314688  71.7362213  15.6623566  54.9260807  72.6462889  15.8764255
  55.3147602  71.7466450  14.7229278  31.0654879  57.2533941  16.5312362
  31.7365122  57.5134134  15.9000897  30.8174443  58.0688953  16.9667363
  78.4719492  70.7118130  19.2029250  78.5740585  69.7966862  18.9414847
  77.6162053  70.9656191  18.8572133  25.7472420  61.5730286  48.9895582
  24.8248243  61.8209553  48.9270163  26.2220263  62.3259830  48.6376095
  78.4801764  68.2527113  51.5639210  78.1250186  67.6585865  52.2250652
  79.0778465  68.8214302  52.0492840  84.0769489  74.9130297  50.5005407
  84.5068510  74.0619707  50.4161644  83.4081487  74.7780180  51.1718893
  45.5482006  61.8802786  41.1779833  45.4368544  61.5352011  42.0638466
  45.7763958  62.8009558  41.3065052  57.3522949  64.7632122  66.3732195
  56.9453239  65.2411842  67.0958185  57.4228573  63.8630915  66.6910839
  81.5216694  20.7499640  64.7514153  81.0493574  20.0141661  64.3618631
  80.8677730  21.4457743  64.8184824  23.7231176  23.1581230   1.8222656
  24.5806521  22.7388592   1.7509260  23.9159983  24.0953894   1.8460741
  45.6143188  79.6156693  42.8032637  45.3414679  78.8152170  42.3548698
  46.4726877  79.4039583  43.1701660  62.6003298   5.7468741  54.6847820
  62.2450719   5.8443587  53.8013124  63.1074032   6.5459006  54.8285484
  37.3062778  65.0786972  22.5407004  37.5041509  64.1679955  22.7591205
  37.1041775  65.4882765  23.3819079   8.2450944  62.8319216  46.6403389
   9.1699004  62.5892878  46.5945864   7.8360206  62.1238184  47.1378088
  53.5552868  25.2066176  19.5671773  54.1686496  25.6654685  18.9931798
  52.7462277  25.7147353  19.5082343  47.3693657  65.9240913  23.6378312
  47.8257656  66.7642927  23.6824918  46.7249012  66.0384274  22.9393888
  23.4680834  38.9395735  59.0071294  24.0963879  39.6544001  59.1095290
  23.8399115  38.3909676  58.3164701  52.1891865  23.4201854  39.2035031
  51.2944445  23.6983531  39.3991899  52.2036180  23.3113520  38.2526207
  34.1213799  65.9017420  35.1859379  34.4694448  65.5382490  36.0001588
  34.8887229  66.2496853  34.7316742  54.2016125  58.8068628   7.6186419
  54.2477608  58.6804199   6.6709530  53.8419342  57.9851055   7.9526812
  44.7757530  77.1898937  64.7011375  45.5877018  77.6531792  64.4953728
  44.6364832  77.3534060  65.6339312  11.9401892  27.6635783  29.6362042
  11.5147027  27.9613917  28.8321519  11.7703112  26.7219394  29.6624541
  73.0954695  59.0056944  44.8174763  73.7435293  59.2141533  44.1445780
  73.1968021  59.6983147  45.4703474  58.1920615  40.9521506  63.9203081
  58.2490912  41.8016646  64.3577060  57.7808371  41.1438487  63.0774716
  26.5313840  63.1811571  45.1826048  26.1056900  63.8573933  44.6556139
  26.5580559  62.4136543  44.6112347  14.8376107  59.9122667  25.3126693
  14.2767692  60.1423120  26.0534573  14.3316090  60.1668262  24.5410490
  13.7926005  68.6673260  65.1417875  13.6772345  68.6263227  66.0911226
  12.9356288  68.4322882  64.7859907  44.6615696  62.3385906  55.8996773
  43.7754536  62.6941061  55.8315802  44.5685148  61.5694618  56.4618254
  51.3167775  49.3540020  32.5681915  51.5959985  49.6564789  31.7040291
  51.0519594  48.4446640  32.4296322   5.6166609  15.9457724  10.0096774
   4.9889859  15.4671614   9.4682086   5.1607426  16.0833209  10.8400083
   9.5309448  79.1686773  44.2651272   9.0873551  78.6402178  43.6016560
   9.2659652  78.7789345  45.0982666  13.5746630  11.8975013  42.8815269
  14.2123898  11.9763892  43.5909748  13.6808928  12.7017443  42.3734522
  64.3855810  59.6020508  55.8542871  63.7655926  59.6741915  56.5799856
  64.3080235  60.4351187  55.3892946  30.8549738  67.7322626  44.7726297
  30.1524615  67.1393490  45.0393867  31.2679338  67.2946978  44.0281630
  53.7785912  55.6842136  34.8857236  53.0999041  55.7756853  35.5544877
  53.3322144  55.8831930  34.0626907  74.5076618   2.5705188  60.2417803
  74.3398771   2.9118674  59.3633986  73.6429367   2.3302691  60.5745983
  34.9181342  60.5502987  57.7634811  34.3736839  59.7715759  57.6477480
  34.9088717  60.9784126  56.9074106  56.4538336  75.3767538  34.1916728
  56.3878870  74.7536039  33.4680915  56.6466284  76.2140799  33.7698364
  32.6403546  65.9467840  63.4686470  31.8194699  65.8699512  62.9823589
  32.5365615  65.3497839  64.2096281  39.0925646  63.1669521  56.4702988
  39.9283481  63.6289835  56.4053106  38.9538240  62.7989674  55.5976200
  19.1084155  12.5463717  19.2179728  18.8146122  13.0535167  18.4611964
  19.9621399  12.9186099  19.4389296   3.5876235  17.7099555  69.1188765
   2.8617199  17.9038661  68.5258341   3.6905249  18.5063021  69.6398973
  47.0650050   3.9198916  65.4552126  46.7609903   4.7569793  65.8060551
  47.6323936   4.1592257  64.7223949  56.3596535  67.6315403  29.6960402
  55.4520702  67.7813625  29.9607682  56.8312120  68.4030771  30.0100446
  85.2452287  11.2321799  52.0257473  84.9562845  11.8213027  52.7226496
  84.4765672  11.1298697  51.4645672  82.3606596   9.3050330  36.1264992
  81.8389902   9.5426696  36.8930626  83.2464466   9.1828769  36.4680934
  14.5491227  30.7145255  47.6744223  15.3124245  31.1675399  48.0327415
  14.9169548  30.0005191  47.1537304  11.7361992   9.8764105   1.6107693
  12.6216047   9.5146485   1.5730372  11.6372269  10.1735707   2.5152769
  61.6091442  77.3963594  63.3515167  61.5886402  77.5844526  62.4132061
  62.3445702  77.9115868  63.6830664  71.5771637  32.2293132  63.9447498
  72.1494588  32.1176665  64.7038603  71.3617620  33.1619590  63.9422941
  36.9101246  22.9558413  39.1003752  36.8010815  23.8831084  39.3114066
  36.1290844  22.7319186  38.5943556  -0.0671951  20.4907840  39.7897458
   0.4857596  20.4216903  40.5680132   0.4420479  21.0256999  39.1808414
  13.6237925  29.2152376   7.8129330  13.8122862  29.3474980   8.7420216
  14.4745129  29.2972060   7.3819103  64.9225340  27.0085852  35.3697610
  65.3060708  27.4606936  34.6182704  64.7457275  27.7041953  36.0030842
  58.4860239   4.9116748  66.6542530  58.2315120   5.4786437  67.3822641
  59.1852936   4.3636840  67.0105696  36.7616320  69.8667955  59.5517206
  36.9623971  68.9450598  59.7139788  36.2559962  69.8623228  58.7389851
  75.5461082   1.6788523  55.9241199  76.3544044   2.0967524  55.6270456
  75.8112630   0.7928412  56.1709166  64.8432526   6.1718886  30.3213859
  64.6692071   5.3056472  29.9531960  64.6338830   6.0833972  31.2512064
  73.5454187  43.8342612  58.6045837  74.2613897  43.8250392  57.9693413
  72.7594623  43.9783328  58.0775595  23.0987334  75.7537746  14.8495424
  22.4362087  76.1473703  15.4173255  23.4841776  76.4947081  14.3819022
  61.9357595   0.6359332  60.5913544  61.7619047   0.2347987  61.4428854
  61.7005763   1.5564578  60.7077360   3.5850524  56.7400074  52.2071314
   3.9946841  56.4641619  51.3871670   2.6539134  56.8121099  51.9972992
  12.8826439  56.0559702  40.7406092  12.9816902  55.1224899  40.9277773
  11.9797909  56.1445475  40.4352522  61.8809080  64.7842169  64.2710304
  60.9344530  64.6507549  64.3224525  62.2149038  63.9802074  63.8732290
  35.1297730  44.8196907  12.7489987  34.5070093  45.4956551  13.0163517
  35.5656164  44.5609303  13.5609856  32.8244901  63.2722569  22.1807456
  33.3172464  63.5858011  22.9391074  32.7636480  64.0332556  21.6033316
  56.3032436  61.9799280  15.9152794  55.5186510  62.5277853  15.8929586
  56.0530901  61.1840963  15.4459107   1.5582188  11.6482680  67.2673225
   2.2122248  11.1261790  66.8026400   0.9470042  11.0039370  67.6243734
   6.4710053   0.1792853  47.5000668   5.9233292   0.9565490  47.3898840
   7.1007594   0.4241698  48.1780577  71.1012182  15.9270518  69.6937466
  71.6555891  15.5492251  69.0109921  71.6693792  16.5509455  70.1456118
  58.6794949  73.3131123  33.1516838  58.9002419  74.0777302  32.6198363
  57.7489996  73.1647110  32.9831934  69.1827202  78.0423069  68.9917994
  68.4239721  77.6496124  68.5601425  68.8157654  78.5115194  69.7410727
  82.5452242  11.4397948  20.0410986  81.9175586  10.7195227  20.1000667
  83.3658466  11.0695975  20.3663301  34.3718689  23.5031195  15.1312294
  35.1345032  23.8456507  15.5973759  33.9380138  22.9343004  15.7671871
  66.8578815  78.1905317  51.4822245  66.6085386  77.2667265  51.5076590
  67.5701618  78.2639360  52.1174431  31.0070038  68.3484554  14.2722142
  31.1336327  67.7595758  13.5282898  30.2656960  68.8984489  14.0188396
  36.0911894  78.0486059  19.3141413  36.6464520  78.8037634  19.1200984
  35.2123117  78.4156942  19.4092858  78.2188377  16.9663375  26.5090895
  78.2651672  17.7162593  25.9160447  77.3633489  16.5745299  26.3333988
   3.7252863   0.8172553  35.7354569   4.1221865   1.6759532  35.8815598
   4.3944891   0.3211825  35.2639627  41.6922569  55.8707380  51.5595770
  41.7234182  55.6277084  50.6342649  41.1014175  55.2302313  51.9556713
  47.1677597   0.3847068  40.1719618  46.6373261   0.4933207  40.9613132
  46.8913659  -0.4579503  39.8117375  55.4977560  46.1429262  44.2236757
  55.9292221  46.2832022  43.3808279  55.0553846  45.2993917  44.1288328
  47.2619173  10.2727454  68.2637548  46.7843852   9.5777839  68.7167788
  48.1597015  10.1963370  68.5868311  46.5903091  69.1190863  25.4683948
  46.1278248  68.7407064  24.7206187  47.1180391  69.8234892  25.0921607
  69.9994802  79.4571972  50.1727057  69.7054386  79.7084141  51.0482979
  69.3734074  79.8744011  49.5809221  54.5928764  78.2556438  51.2682915
  54.5824909  78.5557318  50.3594112  54.1792822  77.3928595  51.2403965
   7.7982148  31.8710559  62.0148897   7.1351775  32.3960536  61.5665770
   8.2725056  31.4309829  61.3094664  40.8493376  73.8864851  31.2618494
  40.4099035  73.0908871  31.5621114  40.2423000  74.2713547  30.6296968
  83.2047424  59.3898051  40.7111835  83.3968029  59.0796702  39.8262215
  84.0068206  59.2180198  41.2045240  23.1475762  29.7271483  18.7592852
  22.3881516  29.1715377  18.9347827  23.1662867  29.8131411  17.8061390
  40.8692122   0.8008542  68.8289739  40.2805758   1.5153184  68.5854936
  40.5354881   0.0419584  68.3504947  41.7465210  54.7575235  48.8368082
  41.4816570  54.9706888  47.9420233  42.6186705  55.1416683  48.9263773
  43.5882482   0.5391448  26.8213677  44.3881819   0.8374350  27.2542191
  43.8439474  -0.2684743  26.3757181  44.0216017  71.5713024  19.8309100
  43.8351822  71.9745541  20.6787705  44.9764204  71.5836763  19.7645652
   3.8020346  75.5926132  21.4545202   4.3454567  74.8990536  21.8285489
   4.4268674  76.2606716  21.1725402   8.9006584  22.3459263  18.0154362
   9.5190757  22.7072497  18.6504498   9.0562766  21.4017792  18.0400791
  62.9401255  80.1323128  51.1013794  63.6526489  80.0468922  51.7348146
  63.2712507  80.7510376  50.4504108  44.2892998  11.3295765  19.3774071
  44.8633116  10.8784981  19.9964943  43.5822504  10.7067604  19.2088547
  77.4151382   4.2866175  45.9276867  77.3311624   4.6371215  46.8144369
  76.8366632   4.8349231  45.3976345  11.0026472  27.8995390   1.7019310
  10.1253980  28.2438774   1.8695441  11.3710969  27.7486964   2.5724068
  15.8140581  36.2674494   0.9475937  15.7020538  35.7927771   1.7712250
  15.6719702  37.1853466   1.1789170  34.2620611  57.6121235  67.8015232
  33.7281775  56.8196726  67.8583097  33.7362719  58.2864809  68.2316589
  72.8681573  13.2562297  65.6478262  72.0255050  12.9185336  65.9513521
  73.5061082  12.6044886  65.9384871   7.5321969   2.1613925  27.3723578
   7.2701128   1.3319438  26.9729209   7.2683390   2.8270667  26.7371440
  58.2106830  76.4240551  61.3704300  57.8980709  77.1266222  60.8004236
  58.6643530  75.8214712  60.7811022  17.7371883  77.7275419  68.3915472
  17.1382463  77.7186918  67.6449394  17.5076616  78.5221720  68.8733244
  24.3457770  59.5189476  42.0004177  24.3010759  58.5636473  41.9599390
  23.7975597  59.8153734  41.2739038  48.9512730  63.0876255  49.7410059
  49.4699669  63.1048059  48.9367104  49.1257715  63.9320421  50.1566267
  59.8305878  37.0525019  62.8231096  59.9853954  37.7398722  63.4710217
  59.1082821  36.5397399  63.1858444  57.8218746  55.1455593  62.4938488
  57.4824667  54.4738913  63.0853701  57.5365448  54.8652267  61.6242361
  80.3939056  64.8839092  64.5331621  80.6404781  64.9665117  63.6119604
  80.8744335  65.5849218  64.9735117   3.6533164  61.3366604  65.4983425
   3.8029479  62.1018028  64.9430037   4.4503592  60.8146048  65.4066467
  52.4711084  63.0027914  51.3180685  52.5887871  63.7749195  51.8714237
  53.0440998  63.1568432  50.5669498  74.8647956  50.1385138  66.1826355
  75.5847887  50.4290984  66.7424578  74.8179451  50.7983992  65.4908380
  43.8540936  68.4512424  35.3713036  44.0575075  68.9367485  36.1707664
  43.8965464  69.1071272  34.6754265  52.6383066  60.0797510  45.7663345
  52.3127031  59.5979357  45.0060225  53.4991741  59.6991682  45.9403753
  76.1063490   9.9601405  28.2812262  76.5464887   9.3072551  28.8255167
  76.6124687   9.9752848  27.4689174   4.8067611  48.4201165  19.4009152
   5.0015848  49.0240212  20.1175537   5.0775378  47.5629158  19.7297516
  74.0817118  51.3673019  38.3142376  74.2834091  52.1188164  37.7567601
  73.9923096  50.6343699  37.7051020  29.9639463  68.7527943  40.2295828
  30.8872938  68.8981342  40.4358244  29.9480844  67.9042101  39.7869921
  64.3480873  71.7617702  43.6021185  63.5243273  71.2858534  43.7077045
  64.1673899  72.6340055  43.9525318  18.0409058  36.2699168  32.0294428
  17.2319706  35.9305423  31.6464520  18.2891377  35.6161444  32.6830482
  62.9798898  31.8322985  24.2872667  62.8539190  30.9453910  23.9500022
  63.5071430  32.2700446  23.6189675  25.1205683  68.6010933  52.0945597
  25.8406115  68.7418556  52.7093410  24.6233344  69.4187069  52.1168137
  32.0985260  58.5393641  54.8031184  31.3449612  59.1292498  54.8233936
  31.7577734  57.7283690  54.4257555  10.5701082  38.9037676   3.2371893
   9.6166223  38.9496775   3.3078089  10.8791345  38.9354344   4.1425791
  27.9286545  19.0289707   1.8531218  28.0790346  18.9174147   0.9144154
  28.7488525  19.3937941   2.1853914   4.4304207  75.5765486  55.6965399
   3.8672596  75.7459450  54.9413013   5.1352370  75.0283957  55.3515911
  13.7028801  60.7301092  17.5272548  14.4306493  60.2956343  17.9720175
  13.1949723  60.0148916  17.1442056  15.2818306   8.4493392  36.6475630
  14.7615393   8.7865775  37.3768091  16.0790547   8.9790290  36.6570210
  27.0453080  13.0408328  41.5460873  27.2223862  12.1420043  41.8235207
  26.5330990  12.9470866  40.7429123  37.6509643  67.3122978  35.5598807
  38.2071209  66.5870571  35.2753687  37.3419762  67.7106667  34.7462106
  17.7619255  50.3718472  65.8739185  17.5456226  51.2133360  65.4722500
  18.6028230  50.5217695  66.3059425  39.6218810   9.1223471  66.5015507
  40.5533883   9.2635100  66.6706705  39.2021665   9.2483657  67.3525476
  81.1721325  78.4813929  26.0971117  81.0895252  78.5389662  25.1452208
  82.0736599  78.1943941  26.2423635  58.7406731  70.2271986  46.8264818
  59.6433640  70.1825666  46.5112114  58.2879543  69.5268726  46.3565683
  76.3630152  61.1952543  58.9446115  76.2470293  61.9116306  58.3204412
  77.2713852  60.9181309  58.8250542  64.3495903  24.4976085  43.9777660
  64.0663848  24.6921580  44.8711729  65.2720651  24.2577689  44.0657997
  74.9451503  17.7318518  38.4246826  74.1848812  17.1528285  38.3702898
  74.6755371  18.5252612  37.9620409   2.9862975  70.3759956  23.1267643
   3.5123919  69.6575356  22.7756548   3.1036757  70.3176641  24.0749478
  29.0442666   8.7746470  43.6194134  29.7257241   8.8690512  42.9538870
  28.8000306   7.8498595  43.5826254  34.3474978  30.2093144   7.0565834
  33.6388939  30.7901402   6.7795363  34.5774429  29.7187348   6.2674751
  59.8999453  67.3590326  47.0493793  60.6859350  67.8273726  46.7681122
  59.9786186  66.4948463  46.6453695   5.9847735  61.6515398  39.1061401
   5.1748275  61.8738365  39.5652699   6.5420817  62.4218369  39.2169809
  45.2967882  48.8620758  62.1875381  45.2444220  48.3856344  63.0160856
  46.2350225  48.9379168  62.0137453  75.6328926  34.7066443  36.9093466
  75.3989944  34.5545047  35.9937167  75.8855161  33.8440650  37.2385263
  53.2504940  73.5274649  64.5562983  53.1067133  73.6555052  63.6186600
  54.1949272  73.6335182  64.6704674  59.6859741  62.4418497  54.7623014
  59.6845484  61.5243244  54.4895744  58.8543653  62.5562954  55.2222538
  21.7303315  49.7017691  51.1119160  22.6300087  49.5093844  50.8477089
  21.1889925  49.2101882  50.4942379  16.3583057  44.8708744  10.0724688
  15.7838600  44.4898434  10.7365933  16.1542624  44.3861790   9.2726746
  61.3503885  56.0750103  61.2426519  60.5347347  56.2820625  61.6988039
  62.0393276  56.3278627  61.8571901  54.1593313  63.4727430  49.3463469
  54.3815231  64.2594242  49.8443413  55.0042820  63.0722809  49.1415977
  48.1114388  67.2726393  47.8620338  47.8707933  67.7468061  48.6579514
  48.9658499  67.6296425  47.6196337  28.3590325  12.2569030  25.8944774
  29.2151173  11.8468325  25.7712197  28.1449040  12.0928901  26.8128872
  66.3611397  12.4605696  56.3586998  66.9276247  12.4076789  55.5889416
  66.9663272  12.4966090  57.0994329  39.6408629  79.6422577  51.8815231
  39.8158455  79.3349123  52.7709913  40.5046272  79.6966124  51.4726305
  60.9233365  75.0637057  20.7704964  61.8705234  75.1909759  20.7168999
  60.6074581  75.8208754  21.2635937  23.5301065  52.3762703  53.3367205
  23.1985521  51.8814707  54.0860367  22.8072858  52.3736858  52.7092218
  54.7062358   2.7586501  41.5410900  53.8326606   2.3707812  41.4895296
  55.2972779   2.0537226  41.2765551  15.3507495  58.6005163  41.3752222
  15.5740166  59.2557955  42.0362759  14.4532645  58.3433533  41.5864468
  84.6250019  12.4531596  43.7998009  84.5755205  11.4972632  43.8062572
  83.8320884  12.7309459  43.3411551  22.9419875  69.0032101  69.3467569
  22.8344893  69.5455408  70.1281357  23.5822058  69.4749451  68.8140106
  21.4829167  13.1314032  25.3480864  20.8891781  13.7659114  25.7494497
  20.9046277  12.4803202  24.9507093  38.3716965  79.9519253  25.8378673
  38.9736748  79.9703503  25.0938821  38.7855196  79.3601608  26.4661980
  70.3230915  15.9883254  50.5670547  69.5487842  15.9884494  50.0043106
  70.8654270  15.2761500  50.2280760  69.4024944  46.0451937  18.6653185
  69.8951244  45.6617594  17.9396975  69.9823284  45.9565973  19.4217408
  73.8964653  67.3629189  40.2621126  74.5369625  67.9602528  39.8758769
  73.7911177  66.6703176  39.6098566  72.7623415  73.2571173  49.8427916
  73.0664062  72.5084925  50.3559542  73.4124660  73.3500767  49.1464233
  58.7936592  66.4029884  55.9063768  58.5702991  66.1387444  55.0138998
  58.3536482  65.7609129  56.4634848  83.5271901  44.0657730   6.3333311
  84.0233368  44.5979996   5.7114020  83.8955707  44.2901345   7.1878424
  35.5967625  74.0492465   8.0895128  35.7429226  73.3184578   7.4888315
  34.7010525  74.3334725   7.9074469  36.9302726  78.7455463   8.8527668
  36.9213724  79.1866732   8.0033195  37.6063251  78.0734253   8.7665385
  70.1015520  62.8437853  46.9726515  69.4026279  63.4149265  47.2913027
  69.8898077  61.9824648  47.3325443  79.0019807  16.8408625  53.8552856
  79.8834381  16.6450351  54.1729498  78.7547264  17.6435130  54.3144655
  39.4203424  48.1218672  69.6745443  40.2201605  48.2406664  69.1622877
  39.4294286  48.8432884  70.3035927  36.8813205  64.9179268  59.6297789
  36.9582224  64.7567940  60.5701780  37.6337886  64.4667006  59.2471361
  62.2218037  70.5551434  67.9473925  61.9884062  71.3681221  67.4992561
  61.6160822  69.9040413  67.5932646  67.3970270  53.3048487  21.6171050
  67.3307371  53.1600666  22.5609684  66.5202188  53.1147718  21.2834716
  59.1813612  52.4802971  56.6040182  58.3643913  52.7040672  56.1582422
  59.5444345  51.7585945  56.0906410  68.3954558  32.7114241  38.4962821
  68.7312708  33.5915034  38.3262539  68.7826690  32.4654811  39.3364096
   7.7829512   4.4304793  63.8998890   7.5781210   4.2523711  64.8177958
   8.3982333   3.7398951  63.6534214  69.3869543  34.8380256  40.4338074
  70.0953150  34.2894578  40.7707548  68.8728905  35.0676274  41.2079191
  61.1466742  69.1548586  17.3231196  61.8703890  68.9235687  16.7409050
  61.1845779  70.1093149  17.3848379  19.8080605  35.0681658  14.2500057
  19.0847700  34.4892664  14.0092697  19.7788113  35.7707854  13.6006203
  46.0759592  42.0075321  58.1235456  45.4925680  41.2742901  57.9279995
  45.5646133  42.5725746  58.7027597  35.7977819  63.3251905  28.4172750
  36.0772228  63.8611221  29.1595173  36.5669823  62.7990961  28.1986690
  77.4561939   1.4874404  45.4827404  77.6741562   2.4150603  45.5735350
  78.2985172   1.0366004  45.5416346  11.5449723  22.7541964  35.4134393
  11.0075768  23.4883254  35.7109141  12.4292191  23.1151049  35.3495026
  38.1880212  73.6179018  50.5292416  38.3924031  74.2036867  51.2581587
  38.1344795  72.7492714  50.9277964  69.1870546  63.0538797  67.6700592
  68.6171675  63.0588818  66.9010115  68.6082220  63.2785416  68.3985615
  73.0677271  70.2606869  69.5919371  72.6738071  71.0271740  69.1753387
  72.3320961  69.6685886  69.7484589   7.4640902   3.9905112  18.1521881
   8.3326252   4.0152114  18.5537732   7.6145228   4.2405932  17.2405624
  52.7780041  17.8727286  13.5571504  52.2112689  17.1458285  13.8153362
  53.5507927  17.4518340  13.1804907  33.1810093  58.5179234  57.2276497
  33.2919455  57.5698423  57.1564531  32.8111959  58.7797832  56.3845062
  41.0717344  68.0561209  35.4075170  40.8175087  67.3362207  35.9848738
  42.0201874  67.9657030  35.3153205  80.5516491   1.2500613  29.5570946
  80.6194648   0.3103106  29.7259045  80.7275829   1.6589396  30.4045010
  35.6532693  80.8465195  40.7921934  34.9017310  80.5984497  41.3305998
  36.0503268  80.0137997  40.5369425  84.2123985  47.2974300  29.8769164
  84.2745209  48.2525921  29.8706150  84.3060589  47.0452547  28.9582944
  67.5015721  18.4086268  52.0784283  67.7080021  19.2790454  52.4189901
  67.5066862  18.5161631  51.1273003  81.1803970  10.9626811  66.6541576
  80.2254877  10.9189551  66.7038774  81.4631233  11.0648101  67.5629282
  34.9929070  70.6545115  61.6496515  34.7520971  69.7381496  61.5135288
  35.9024644  70.7092237  61.3564873  51.8869877  66.1903858  46.9394207
  51.5127611  67.0621347  47.0668364  51.1429691  65.5948830  47.0291233
  50.9815058  18.0869334  47.8762722  51.0660896  18.6356299  48.6560154
  50.1667723  18.3773368  47.4662685   8.8219005  70.2656364  33.2067585
   8.4715760  69.5097065  32.7355075   9.4592071  70.6491613  32.6042795
  41.7324552  34.5382541  36.0507131  41.1560807  34.1644900  35.3841329
  41.1865553  35.1778262  36.5080571  65.1030254  75.2202129  54.1335630
  64.7176981  76.0816050  53.9730835  64.5862913  74.6222878  53.5934687
  33.4423614  11.7791884  22.4564147  32.5996804  12.0731776  22.8023767
  34.0740791  12.0076602  23.1382966  64.4035959  45.4979181  19.5871758
  64.1286135  46.0832644  18.8814974  64.7186947  46.0839033  20.2753377
  43.3241320  73.3221102  57.7319574  42.5074434  73.6808348  57.3847246
  43.0912304  72.9931831  58.6001730  21.8285513  79.1598797  13.5018814
  21.0400987  79.1902781  12.9599857  21.5995693  79.6586752  14.2860997
  29.1872033  35.4182570  38.6551094  29.1485508  36.1126750  37.9974508
  29.0734395  35.8724444  39.4899750   1.6882905   6.4271682  68.5224485
   2.0302685   6.4196627  67.6284552   1.1864956   5.6151622  68.5937595
  41.1221743  63.3883142  44.4343042  40.4000282  63.2270527  43.8270760
  40.7351160  63.2746649  45.3023481  75.2969837  73.1742096  40.4954863
  74.4216919  72.9150343  40.7834625  75.7572889  73.4018087  41.3032913
  39.5662498  68.5657597  13.6458874  40.5178881  68.5934210  13.7451220
  39.2484283  69.2932415  14.1806710  39.3171525  71.4097595  25.3046894
  38.5036707  71.3846874  24.8008537  39.5932078  70.4948711  25.3595304
   2.3266848  23.6952823  55.9859419   1.7016085  23.1687587  55.4876614
   1.8351372  24.4776480  56.2359762  64.0699339  62.7431726  20.5950475
  63.8235378  63.5544920  20.1508832  63.2423878  62.2796202  20.7235527
  67.7865362  72.1623087  40.8154535  66.9346189  71.7268276  40.7867098
  67.6944256  72.8236818  41.5012598   7.2263446  56.0285018  63.5671661
   6.8301025  56.8551371  63.2916466   7.7839651  55.7734702  62.8321508
   4.8437222  23.1393187  54.7044182   4.8884591  22.6560824  53.8793707
   4.0035923  22.8846209  55.0859213  28.5441422  76.6404152  32.6014304
  28.9355040  76.5374851  33.4688807  27.8047037  77.2320271  32.7409434
  79.8608679  46.0264035   4.6767416  79.7100538  45.5688877   5.5038872
  79.1230435  45.7702561   4.1233578  34.7738161  47.0588896  66.3933158
  34.4948330  46.8664286  65.4981289  35.7191029  46.9084380  66.3871676
  84.6197319  65.3300858  26.2308598  84.3126297  66.1857128  26.5305710
  84.5044994  64.7556353  26.9878054  75.9751234   7.4075167  66.3477230
  76.0039291   7.6260131  65.4162407  75.1863060   7.8424781  66.6714764
  60.9366450  14.8480647  31.4960361  60.9853134  14.0469115  32.0175958
  61.8395290  15.1634734  31.4567089   0.6641196  77.4817085   8.3117527
  -0.0672246  77.2300053   7.7478278   1.3809298  76.9058228   8.0457240
  49.3104172  74.4045448  34.0977550  49.1411209  73.6695623  34.6871424
  48.9077520  74.1447496  33.2691407  77.8772506   2.0961230  67.3667717
  77.4561414   1.8788283  68.1984472  77.1895656   2.5206225  66.8538237
  67.4709639  15.9251731  66.2506723  66.9921074  15.2034514  65.8431864
  67.6053223  15.6428855  67.1553802  32.7103051  47.4361270   6.6937238
  31.9221409  46.9405978   6.4713031  33.3582123  47.1590274   6.0459089
  78.7174902  16.3568061  42.8922462  77.9623136  15.8993571  42.5225449
  78.7061796  16.1259597  43.8211250  74.8868760  21.8859237  21.8147779
  75.5791386  21.2592547  21.6043377  75.2139100  22.7233641  21.4861798
  51.7216668   1.0505717  47.9745674  51.8336091   0.7685225  48.8823938
  51.7705044   0.2418940  47.4647665  10.3246554  32.3039954  37.9983139
   9.4076308  32.5405543  38.1373668  10.6282767  32.0074981  38.8562989
  47.3870516  61.0747004  34.6189737  47.1252155  60.2102661  34.3020701
  46.7243958  61.6694212  34.2676592  78.1120596  36.7720073   8.5287160
  77.7745924  36.7720454   9.4244534  78.8248310  37.4107783   8.5412788
  48.1396389  76.9147205  33.6884809  48.6311102  76.3284159  34.2637539
  47.5139570  77.3496675  34.2677712  56.3563936  14.1911288  10.8461037
  56.2335222  14.6946879  10.0413885  57.2824877  14.3039913  11.0602226
   5.7551574  75.7257175  28.1717014   5.1547717  76.0554075  27.5030661
   5.2793311  75.8338976  28.9951801  17.1119460  34.8825209  53.2117224
  17.5067004  34.7347586  52.3523235  17.3045405  35.7990783  53.4093618
  82.0106563  17.0147937  42.3907375  82.7245006  16.9044535  41.7626572
  81.2738237  16.5442794  42.0009565  67.0097017  71.1551380  61.7632294
  66.1910009  71.4695215  61.3796568  66.9882393  71.4717960  62.6662779
  29.8683747  25.0731890  -0.0010754  30.6770810  24.6268122  -0.2520381
  30.1379021  25.6951087   0.6747928   6.3749417  12.9910319  52.6091480
   6.1750086  13.1468814  53.5321665   6.8513831  12.1608393  52.6041460
  65.2458987   1.0100978  14.7380900  64.3787608   1.3799327  14.9040043
  65.7299265   1.7167704  14.3108153  84.1884670   0.7008498  57.9535007
  83.3600578   0.2213042  57.9524136  84.0683756   1.3848918  58.6122036
  70.8599758  75.1554489  54.8571491  70.9857130  74.4267845  55.4649925
  71.4742374  74.9811935  54.1440248  74.3727407   8.4791034  47.2721720
  74.9705991   9.1855471  47.5165701  74.2709407   7.9638713  48.0724287
  29.7285097  56.2490196   2.9262438  28.9686363  56.6937752   2.5507250
  29.4507330  55.3377838   3.0196038   8.6471778  77.6249933  46.3658810
   8.2659727  76.8000984  46.0651064   9.5135164  77.3831701  46.6933155
  12.1830367  51.8247318  63.0919981  11.9614409  51.0074568  62.6456928
  11.4329242  51.9980192  63.6607981  16.2014254  12.3620456  15.5689347
  16.9068202  11.7198794  15.4897189  16.5886649  13.1821864  15.2629268
   3.9573859  66.9202518  46.4030123   3.4305953  66.7575169  45.6205511
   4.8620318  66.8123341  46.1094046  78.6820850  62.5068324  40.5602169
  79.4351158  61.9374221  40.4022837  77.9263887  61.9848483  40.2906084
  61.5477562  50.5713701  23.1656289  62.0951366  49.9361420  22.7040076
  61.5699577  51.3528061  22.6132751  36.9030166  57.3043680  67.2020435
  35.9511447  57.3889256  67.2569752  37.2370791  57.9472256  67.8276396
  20.7358798   4.7500937  26.3916898  20.6784495   4.6672576  27.3435688
  19.8334130   4.6526091  26.0879087  69.6017218  76.3958740  32.8592491
  69.9307680  76.5230989  33.7490678  68.6937475  76.6968489  32.8943276
  84.1324482  14.1122954  40.2706051  84.7969064  14.3725150  40.9085751
  84.6301279  13.8885157  39.4841790  80.2728844  42.9658413  47.1581411
  79.9883556  43.8478184  46.9185686  80.2371025  42.9541636  48.1146002
  66.8982873  30.6091636  30.2251387  67.6944146  30.6085913  30.7565618
  66.7670402  29.6907847  29.9893618  63.0783114  20.6477492  21.8078065
  63.7450251  21.3065856  22.0018411  63.0936870  20.5650275  20.8543110
  39.5625114  66.6586637  56.9751406  40.3203535  67.1842289  57.2314453
  38.8115764  67.1281242  57.3383713  47.6842833  49.6040297  60.9004688
  47.2805548  49.9642611  60.1108646  47.8324413  50.3648186  61.4621449
  59.9994802  79.3945980  14.8494887  60.2539539  80.0524807  14.2024469
  60.4116726  79.6864080  15.6626177  53.6370325  76.0101604  61.6622114
  54.3750477  75.4243088  61.4938688  53.0577230  75.8878326  60.9101009
  31.1037167  39.9150794  44.4609642  31.9090756  39.9632590  43.9458847
  31.2581833  39.2023127  45.0809097  67.2419119  75.5941916  28.7618828
  66.9944429  75.1191568  27.9685783  68.1990719  75.5918789  28.7536812
   7.5365027  18.6429351   2.1427953   7.9361304  19.2954104   1.5676293
   7.9469021  18.7912123   2.9947460  24.2406099  41.2979908   5.6506005
  23.4414738  41.5907593   6.0886660  23.9305180  40.8080979   4.8889723
  71.5772924  24.7715037  31.1805749  71.3903389  24.8003810  32.1188951
  72.1267137  23.9955848  31.0695863  75.9954748  13.6519759  23.5478997
  75.9524068  13.2801764  22.6669121  76.7141494  14.2828887  23.5067368
  83.6377821  14.3521159  36.3896847  83.5990677  13.5069697  35.9419584
  83.0490121  14.9160521  35.8881283   3.0093153   6.1958640  32.7691698
   3.4672316   5.5985396  33.3605671   2.3345431   5.6554835  32.3581934
  41.6075819  40.7628746   4.6547308  41.5709560  41.1878033   5.5116596
  41.2031763  39.9066277   4.7944966   8.6348732  35.2927344  48.2385921
   8.1149348  34.5863478  47.8553009   8.4118422  35.2764457  49.1693020
   6.0242175  67.5484562  43.4472609   5.4838656  68.3020830  43.2100010
   6.4310836  67.7972555  44.2771959  48.9249047  24.5388644  21.2921214
  48.2312878  23.8874572  21.3959956  48.7112244  24.9879115  20.4742384
   7.9593047  15.2638667  36.8820190   8.4229382  15.7563823  37.5592923
   7.3392876  15.8918517  36.5112782  64.0057096   5.6752627  32.8119731
  63.2662568   5.0774520  32.9218149  63.8865170   6.3322203  33.4978557
  14.3100365  17.3728316  58.1443262  15.0176581  17.0042270  57.6155233
  14.5024928  18.3097117  58.1823492  33.5595322  62.1563721  55.0931263
  33.5420823  62.9431200  55.6380606  34.4781446  61.8873453  55.0902414
  20.3944930   8.6763995  49.5809221  20.1328286   8.4933608  48.6785555
  19.6019085   8.5244315  50.0956488  83.6616859  28.0230086  46.6079330
  84.3500623  27.6273005  46.0733509  82.8490648  27.8060668  46.1509752
   5.5741271  10.7661288  26.9971609   5.8496912  11.4553492  26.3927794
   6.0135897   9.9779361  26.6780281  76.1467695  68.9403534  24.3045449
  76.8001318  69.6389103  24.2675900  76.5825748  68.1837940  23.9122224
  51.0411453  67.6693583  51.4985514  51.8873072  67.9769993  51.8235111
  50.3961706  68.1583548  52.0095491  43.4026146  74.6949339  20.6751347
  42.8640556  73.9036608  20.6665468  42.7849293  75.4068899  20.5083513
  82.5407467  13.9720099  49.3925810  82.9282293  13.3846133  48.7436914
  81.6516170  14.1276496  49.0740633  82.7162594  58.3930416   1.0632315
  83.1429834  59.0490933   0.5121079  83.3915014  57.7317734   1.2148705
  27.7672394  14.3246882  54.6771049  28.3511075  14.4368403  53.9269400
  27.3154744  13.4980243  54.5075130  80.2263603  20.6196063  52.4935389
  80.8780346  21.2550395  52.1972704  80.5279169  19.7836917  52.1378183
  27.1096849  70.3753519  39.8755741  26.7445707  69.5416021  39.5792985
  27.9650116  70.1465225  40.2392817  65.9471273  71.6448259  34.2336822
  65.5411434  71.2725592  33.4508491  66.7542505  72.0493221  33.9156103
   9.6196040   2.1827071  63.7376261  10.1705941   2.4067443  64.4875956
   9.1762598   1.3755648  63.9987659  83.5504303  19.5038646  35.3071094
  83.4210357  20.2229636  35.9254861  83.9867982  18.8230937  35.8193254
  10.4540213  26.6915648  34.6012783  10.2989682  25.9992163  33.9587450
  11.3046082  27.0574229  34.3586135   8.2438334  16.1568015  31.0251808
   8.6499747  15.3456443  30.7197070   8.8507184  16.8454879  30.7538319
  30.7491215   8.1341689  68.3845329  29.9574002   7.8342765  68.8311529
  31.3925847   7.4448722  68.5490322  64.0816355  78.9229202  59.2171764
  64.5387220  79.4339943  59.8850870  64.0315533  79.5075083  58.4608841
  50.4905128  63.2553148  24.3262815  49.6702099  63.1901217  24.8152471
  50.2259350  63.2098818  23.4074950   9.8154219  33.2085555  33.1844449
  10.3375634  32.8970664  33.9237499   9.5095881  32.4101966  32.7539635
  69.0769252  17.8018611   4.9774745  69.7440347  17.3181193   4.4904491
  69.2275772  18.7179988   4.7446072  74.0929470   9.3652480  37.2445583
  74.2680225   8.4273475  37.3216081  73.4263668   9.4290679  36.5605760
  12.4112033  71.6085863  56.0847235  12.3657035  72.2487879  55.3745794
  13.1044005  71.9357014  56.6580486  78.5332832   8.4907191  18.1432021
  77.6616344   8.5549300  18.5335124  78.5867605   7.5901072  17.8234136
  32.5059843  79.8961496  38.8179660  31.6618824  79.4480753  38.7636304
  32.3725724  80.7166767  38.3434391  28.3033293  48.5384007   2.0779362
  27.5881498  49.1291638   2.3140469  29.0121859  49.1190739   1.8012037
  24.9611577  33.7177317   7.9146463  24.5398148  34.4431346   8.3756036
  24.6856507  32.9367011   8.3945596  77.9707632  33.8953345  39.9240661
  77.9031429  32.9429572  39.8559165  77.2317991  34.2251151  39.4127870
  41.0089302  66.2656784  16.5901113  41.4331245  67.1165180  16.7012942
  40.7385397  66.2510014  15.6720114   4.7167071  25.6699508  38.2183313
   5.3520688  25.8839171  38.9015317   4.9367197  24.7753947  37.9583120
   8.0072793  21.4280360  49.4759369   8.3236512  21.0888999  50.3132725
   7.2684439  20.8621352  49.2520905  21.9210347  15.7884448  62.9715633
  22.6934966  15.6566470  62.4218655  22.0964392  16.6049140  63.4393692
  80.1125774  16.9295256  57.7243757  80.8247289  16.2968676  57.6304293
  80.3213081  17.6202529  57.0954466  79.3783435  13.9268534  33.9209533
  79.0493116  13.0335086  34.0204811  79.8825893  13.9071410  33.1075764
  69.4453678  33.1945079   0.6757718  69.0993127  33.5689109  -0.1343527
  69.0311441  32.3338168   0.7379358  73.8205824  24.3608897  48.0039978
  73.4177551  23.9784091  47.2244644  74.6775541  23.9384978  48.0624962
  23.7600811   4.8673003  33.6064744  24.2989071   5.5576175  33.9929557
  24.3353089   4.4424193  32.9702187  77.2831688  40.0179332  53.0660629
  76.9103202  40.8948081  53.1571770  77.0423994  39.7461264  52.1804094
   6.4729937  22.2422641  43.3498955   5.9685191  21.4290755  43.3714437
   7.3841246  21.9571250  43.2808065  48.0257082  57.7017641  64.7395849
  47.7834988  58.4790134  64.2361450  47.1935797  57.3579597  65.0645304
  61.7745876  74.5110655  31.4103127  62.2234964  75.1036739  30.8073759
  62.3279953  74.4995165  32.1912336  16.2564945  77.4278498  29.4006610
  16.7451537  78.2323074  29.5746922  15.4017222  77.5744438  29.8057604
  67.3033461  16.4016669  18.9438331  66.5781531  16.4944690  18.3260012
  67.7697382  15.6191485  18.6499310  26.1085709  20.2084964  31.1391973
  26.4587697  19.7710936  31.9152570  26.7932423  20.8264582  30.8831143
  64.3073511  69.6880531  61.8416166  64.7107124  69.6907997  60.9735632
  63.4051085  69.4090462  61.6855955  76.7847547  45.6740134  49.1400719
  75.9536275  45.2084678  49.2334795  76.7079124  46.1361831  48.3053684
  10.1493557  49.8334830  31.0872340  10.5123909  49.2439311  31.7481899
   9.2694672  50.0365012  31.4047384  35.8060956  57.0913553  48.5116005
  36.6167116  57.4924088  48.8251162  35.1278782  57.7380323  48.7066936
  14.6860798   7.0463221  55.8347368  14.4814309   6.1484473  56.0958195
  13.8832911   7.5363581  56.0126019  52.6464844  57.2475958  60.3814793
  51.9396067  57.2649193  59.7362995  52.8932047  56.3247061  60.4417324
   9.9246605  33.6140673   4.1973442  10.1683243  34.4547408   3.8098827
   9.6173247  33.0896418   3.4579176  46.6843796  70.3739929  44.7721386
  46.6910696  71.3307238  44.7429895  45.8326960  70.1517820  45.1482916
  84.1736135  21.2143367  49.7582006  84.7842989  21.9463771  49.6720934
  84.1049442  20.8544295  48.8739061  60.2882275  28.0867427  35.1193929
  61.0063157  28.1921904  35.7434630  60.5579719  28.5965770  34.3554974
  83.5111627  30.1070731  43.4414196  82.7774868  30.2429431  44.0409994
  83.2243309  29.3952315  42.8693724  79.0835056  40.8445876  39.2935514
  78.4577331  40.6332724  39.9863601  78.6784372  40.5082457  38.4941649
  35.8029547  43.5080836  57.6967785  35.9105053  43.3496306  56.7589316
  35.4806891  42.6766512  58.0447528  69.2882252  78.7626982  22.6432586
  69.7560358  79.2193842  23.3424163  68.8730049  79.4609785  22.1370625
  49.0040812  40.9852259   9.9980509  49.7841105  41.4720862  10.2640402
  49.2012343  40.0758403  10.2224994  66.3937983   9.2621272  23.1996822
  66.9856033   9.0904849  23.9321709  65.5631456   8.8675826  23.4653640
  26.4713868  36.0736506  60.7358789  25.8364781  35.6534236  60.1557636
  25.9403428  36.4607566  61.4318562  55.0934491   1.1442511  52.7043962
  55.0185666   1.9963115  52.2747087  56.0190401   1.0743945  52.9381227
  34.0333605  73.6133480  56.4458179  34.5662594  74.0315819  57.1220779
  34.3153405  72.6986361  56.4503050  83.5995302  12.1348040  34.8083448
  83.4696254  12.7019446  34.0482712  83.0420885  11.3754123  34.6386147
  80.9048519   4.2827838  40.9507799  81.4327964   3.5014289  40.7865000
  81.5444240   4.9889510  41.0429764  40.9971094  69.5045519  60.8223724
  40.5908108  68.6400175  60.8834648  41.5673923  69.5559311  61.5894270
   0.3881033  23.1654780  32.8777575   0.7140501  22.3080581  33.1513023
  -0.3582231  23.3327620  33.4532952  67.1158633   4.9636023  44.6026278
  67.4733958   4.0788310  44.5278931  66.6609463   4.9677508  45.4448080
  25.8545130  27.0449133  14.0646496  25.9113138  27.9954167  13.9669552
  26.0596102  26.8861552  14.9860420  85.2834091  16.2537043  33.4389210
  85.9985265  16.8870108  33.5003281  84.6291837  16.5700381  34.0619421
  79.7424936  74.7678614  32.1361637  79.0269661  74.4373751  32.6793313
  79.8071766  75.6953859  32.3636413  56.4060068  72.7570772  38.1681657
  55.8684635  71.9665146  38.2160068  56.9836283  72.6090097  37.4193954
  45.3406342  17.1813433  29.5878434  45.8013543  17.2171347  28.7495780
  45.8861645  16.6183989  30.1371336  15.8970069  72.6502943  49.9046230
  16.3745498  72.9390144  50.6823349  15.2522372  72.0260382  50.2374935
  31.6184902  76.8797684  49.3584347  31.3691878  77.6689720  49.8393059
  31.9583440  77.2046566  48.5246611  52.0226700  51.2974219  65.0578559
  51.8584163  52.1183078  64.5937446  51.1724717  51.0557382  65.4252574
  29.8103094  24.3987799  32.0426559  29.8626995  25.2196217  31.5530610
  29.2339373  24.5965576  32.7808380   9.3602139  29.3103552  21.7074752
   8.7861890  29.7859931  22.3078871   8.7854934  28.6765504  21.2782645
  28.6961627  25.9417772  61.7868948  28.2222295  25.3483033  61.2043095
  29.6199059  25.7680535  61.6059208  32.4757814  39.3150091  41.0565519
  33.0216026  39.2024302  41.8347788  32.1251750  38.4416962  40.8815289
  85.3315512  70.9957058  23.8406563  86.1642019  71.0974158  24.3017197
  84.7700302  70.5298454  24.4602513   6.9280666  10.5122030  41.4390278
   6.4934832  11.2170577  40.9588766   7.7153546  10.3242719  40.9280586
  57.2547276  49.7981031  66.9608641  57.1056014  50.7412774  67.0273161
  56.5676766  49.4879634  66.3709450  31.1911631   2.1483766  35.1812434
  32.1359992   2.1301779  35.3335071  31.0453725   2.9480746  34.6758127
  62.6227997  80.5257393   7.8928709  63.4335319  80.0508366   7.7100796
  62.3433033  80.2017763   8.7491190  35.8947778  10.1942086  18.7667859
  35.6454349  10.9185529  19.3407059  36.6474032  10.5251503  18.2766199
  58.3241155  76.0853515  40.1872635  57.7123725  75.9078018  39.4727874
  57.9293636  75.6641493  40.9508038   8.0170983   3.5458004  47.4552631
   7.6705116   4.0080529  48.2184362   7.2769064   3.4930813  46.8506384
   3.8198182  15.9763777  48.4966516   4.1296917  15.1854634  48.9378595
   4.4937059  16.1661267  47.8438854  26.5239191  11.8441558  54.3732786
  26.8464613  11.0066879  54.7062159  26.6493535  11.7895889  53.4259033
  38.8336319  50.4525916  56.9422052  39.3707985  50.9977202  56.3672957
  39.4441599  50.1290153  57.6046142  22.1343398  29.8810863  52.8421688
  23.0154800  29.5253158  52.9572773  21.6422415  29.1725254  52.4274254
  16.9650006   9.1087210  48.7372923  17.3649156   8.9034688  49.5823812
  16.0580540   9.3298525  48.9489031  17.7517164  27.2725081  25.6686878
  17.2552419  26.5680218  26.0851526  17.8524005  26.9896770  24.7597861
  20.3802276   4.6447831   3.0916324  21.0592628   4.8078674   3.7462676
  20.2922344   3.6918798   3.0700842  57.8517780  73.2241323   0.0977411
  56.9917903  72.9498985  -0.2207670  57.7640423  74.1661122   0.2433815
  24.8389784  72.8123845  33.3189249  24.5702521  72.0669265  33.8558698
  25.7810775  72.6934642  33.1983447  24.3979144  30.3001785  25.2855015
  24.2580605  31.0545206  24.7131014  25.3401828  30.2987409  25.4539084
  18.8160253  31.2465787  31.7782640  18.8140059  30.2925324  31.7006302
  17.8945315  31.4796400  31.8912411  84.1521207  73.0081178  26.7428827
  84.5779792  73.3509845  27.5285792  83.5106174  72.3791815  27.0732498
  47.9772043  18.3593333  54.7871828  47.0678520  18.0628669  54.8247433
  48.2321548  18.4667301  55.7035351  25.4053926  31.6823173  21.6702151
  25.1875424  30.8900928  21.1791420  26.0565400  31.3957000  22.3105955
  30.5950665  15.8760548  11.4753306  30.4419017  15.5193305  10.6003892
  30.0465965  16.6595876  11.5139174   6.9999772  54.8009197  68.4106122
   6.6671067  54.8652165  67.5154600   6.5290576  54.0581696  68.7884887
   8.4789771  17.6711857  49.4575071   9.3738186  17.9604602  49.6358633
   8.5111952  16.7194188  49.5541191  28.7329555  30.1469493  15.1166689
  28.7405086  29.5268774  15.8458364  29.1349959  30.9395695  15.4721224
  31.3727164  12.2859812  43.5340548  32.0751882  12.1080124  44.1594315
  31.1060286  13.1856418  43.7230492  75.3866984  24.2353368  17.9902852
  75.9575213  23.4924078  17.7941930  74.6463336  23.8511372  18.4598410
  73.9977134  24.7249627  27.5893307  73.3622743  24.0295815  27.4193430
  73.5090948  25.5357790  27.4476886  15.3574068  49.1337155  66.3873700
  14.7035582  49.5294981  65.8111158  16.1831779  49.5435385  66.1297262
  83.1718438  49.3718767  35.1868272  83.6131857  49.5796394  36.0104084
  83.0097551  50.2232790  34.7805381  33.6760306   3.5427412  37.5921297
  33.6356878   3.1341481  38.4568000  32.7921414   3.8792795  37.4447751
  19.9083936  26.2411284   6.4163524  20.2012968  26.8381000   7.1048772
  20.2699876  25.3909445   6.6666871  43.8875818  33.1529379   2.9698753
  44.0499544  32.2510099   3.2462719  44.3024492  33.2182193   2.1097270
  19.6289194  29.4612527  42.0747614  20.3707194  29.2077684  42.6240444
  19.4690001  28.6972213  41.5207624  24.7591615  21.7886329  27.1621895
  25.0467014  22.4640632  26.5479064  25.4925132  21.1748791  27.2038341
  66.2873725  63.7083764  54.8246670  65.4227785  63.4986455  55.1778269
  66.7692039  64.0687473  55.5691147  17.7724767  26.6653895  37.3460865
  17.8954649  25.7292867  37.5036335  18.6606288  27.0197392  37.3030210
  73.0776814  65.8702202  31.2422752  72.4838690  66.6103775  31.1166382
  73.6140327  66.1185784  31.9951892  60.9273291  13.0760396   9.9503928
  60.2797222  13.6176586  10.4014838  61.3924217  13.6858690   9.3776536
  14.4934499  28.4095812   0.7918745  13.5465384  28.5157847   0.8830462
  14.6286333  27.4620008   0.7850938   0.6079768   6.5146434   6.9177616
   0.4112177   5.8822662   7.6088601   1.1729175   6.0373265   6.3101083
  56.5209538   9.9224732  67.9143066  56.4432763  10.7730839  68.3463417
  55.7708687   9.4216321  68.2348738  73.5093204  76.7963404   5.5196398
  72.7855519  76.8760205   6.1409634  73.3560173  75.9603913   5.0792772
  78.2303874  70.4761274  24.0285707  78.3642975  71.1066962  23.3209825
  79.1132347  70.1956505  24.2697048  43.7405197  74.2495722  27.5541472
  44.2047886  73.4315140  27.7315378  42.8708760  74.1181887  27.9318929
  55.8457953  31.1734192  68.9445193  55.4251058  32.0237188  69.0719656
  55.2817280  30.7184516  68.3191669  82.2475130  15.5479173  63.7652859
  81.6191894  15.5540209  64.4873670  81.8284208  15.0175171  63.0875919
  48.1813526  20.0191045  27.9528260  48.7906885  20.6989312  28.2405376
  47.3528719  20.4801273  27.8212643   4.2677727  49.7503376  29.7675776
   3.4414738  49.4528675  30.1483321   4.2047825  50.7054329  29.7749329
  49.0020561  22.1061277  42.0454502  49.8273087  21.7445779  41.7222309
  49.0048265  23.0150008  41.7451620   5.0584066  17.8602648  22.6857114
   5.1183343  16.9712973  22.3358870   5.3877312  17.7878344  23.5815501
  67.3375455  62.5057311  65.5579376  67.4113945  62.9946334  64.7383356
  66.4443473  62.6744945  65.8578491  34.2485404  23.1258464  49.9987411
  35.0854468  23.4930539  49.7141790  34.0409422  23.5990500  50.8044767
  77.5612203  71.1459483  39.4294715  77.3334471  71.6642524  38.6576486
  78.4110467  70.7602549  39.2167115  26.9570923  31.2815499  40.3980780
  27.6747465  31.9138098  40.4361773  27.2997713  30.5619240  39.8680377
  68.6968268   9.0438402  30.9544230  68.4288455   8.1323397  30.8378720
  69.5054747   8.9924574  31.4640117  43.5426480  56.6760056  69.1017050
  44.1276390  56.6615979  69.8592078  42.9478449  55.9397428  69.2443908
  40.8791876  32.3859334  30.8515620  40.0660610  32.0007420  30.5249405
  41.5715408  31.8715930  30.4364324  40.3021240  14.9823880  37.8546023
  39.7724509  15.2096581  37.0903850  40.3172159  14.0253198  37.8595138
  13.6075687  42.7463722  16.7324257  14.0275741  43.2510042  16.0358834
  12.9442859  43.3369589  17.0894885  22.1346807  16.3040245  24.0960789
  22.0246053  16.5225232  25.0214839  23.0770183  16.3748205  23.9437127
   2.9511538  58.7591083  56.4841557   3.1733027  58.2949073  55.6770658
   2.3800197  58.1549318  56.9585037  11.2119329  25.0523925  10.1973951
  11.5624082  24.4329214  10.8374381  11.8858838  25.1034689   9.5195937
  78.4384150  15.0541878  23.4543324  78.1872059  15.3913283  22.5944138
  79.2905320  15.4538429  23.6286998  10.8011666  75.0984938  19.9787378
  10.8047214  74.1442824  19.9032378   9.9589935  75.3034831  20.3848839
  11.4209270   6.0253495  40.9053516  11.5632641   5.0840557  41.0050392
  11.2903559   6.3437575  41.7985487  38.1164360   8.2886183  37.4262476
  39.0014935   8.1096798  37.1086192  37.5420713   7.8977269  36.7678070
  49.3410015  12.0042801  27.9816866  50.0092983  12.0078743  28.6669612
  48.5357332  12.2607863  28.4311080  29.8423983  76.3647869  10.7138386
  30.6232074  76.5942290  10.2099266  30.1641853  76.2272098  11.6047707
  31.0485587  32.5024687  67.5606344  30.2937925  32.0827042  67.1478907
  30.6918520  32.9181741  68.3456065   6.6953268  70.8887113  27.8220630
   6.4422431  70.2286095  28.4673882   7.0115986  71.6256625  28.3446598
  11.9690490  33.0278850  15.1113021  11.3329887  33.1778002  14.4118857
  11.4381921  32.7843118  15.8696520  59.6958971  50.1035690   2.2162223
  60.0454235  49.9433231   1.3396467  60.4454088  50.4239082   2.7180645
  38.7522120  57.6965849  69.7060254  38.3194048  57.1581523  69.0434549
  39.1719229  57.0655291  70.2906989  51.6042719  42.3077471  25.6453013
  51.6776017  42.6078589  26.5512729  52.4467001  41.8919713  25.4617882
   4.8253503  63.4869773  50.5806780   4.2480650  63.3958382  51.3387442
   4.2555585  63.8114841  49.8833561   5.4196316  21.3192225  33.2264495
   4.8509824  20.6169081  33.5420847   6.3073826  20.9897923  33.3664680
  19.8936009  32.6970887  18.6787379  20.3557611  31.9276047  19.0112054
  18.9933825  32.5865459  18.9847064  57.8730982  80.8950111  51.2579775
  57.2911451  80.5383515  51.9290638  58.4520286  80.1671368  51.0315466
  67.1503544   2.6533785  32.3189807  67.4256802   2.3657009  33.1894207
  66.5048027   2.0020887  32.0445395  35.1745391   8.1747663  46.8125343
  35.5295396   8.2856572  45.9305429  35.8621430   8.5050625  47.3907518
   3.7309787  37.3779106  42.2739077   3.9782795  37.5837421  43.1754112
   2.9259676  37.8745198  42.1270418  28.1214404   1.6153719  18.6977136
  28.8352728   2.0059207  18.1935811  28.5550570   1.1927902  19.4390869
  30.2475500  13.1340659  27.9641438  29.9727058  14.0309262  28.1547594
  29.4510603  12.6128840  28.0651712   6.7038834  47.1503210  32.0026946
   5.8075821  47.3721457  32.2550249   7.1414858  47.9960203  31.9050741
  62.1954012  16.2857699  38.6282182  62.5396872  15.5260992  39.0979004
  61.2496233  16.1411524  38.5994625  50.1697091  69.0454645  29.7664523
  50.3671280  69.9641854  29.9486852  50.5033109  68.5729558  30.5291319
   8.7731683  15.5295348  27.4224949   7.8536034  15.3606343  27.2173023
   9.2092109  14.6899784  27.2767425  16.8648493  37.9010129  40.9422064
  16.1069620  38.1941938  41.4480591  16.5905929  37.9856181  40.0290489
   2.9535651  28.0244756  33.7433863   2.0558825  28.3133292  33.5791874
   2.8805900  27.4271345  34.4877577  49.0615273  13.5424328  55.8276176
  48.6345720  12.9289317  56.4255762  49.4787169  12.9853141  55.1704979
  65.6549124  62.3703952  43.6441946  66.3772360  62.0606382  43.0978155
  64.8776654  62.2662265  43.0953169  81.4777316  12.4029922  16.7530382
  80.7244052  12.7895498  16.3066030  81.3870115  11.4617276  16.6046381
   0.6006112  69.5084924  17.0308673  -0.1012311  69.9783725  17.4812698
   1.2288776  69.2970974  17.7213919  11.9873703  29.5220089  24.1558409
  11.5783584  28.8053441  24.6409535  12.0919788  29.1809559  23.2676005
  72.5875429  52.7021415  44.5689440  72.3623542  52.2164137  43.7754774
  73.5249976  52.8764541  44.4851208  62.4321324  53.7942128  57.4446687
  61.5308124  54.0549509  57.2552726  62.5378115  53.9606385  58.3813474
   2.3908892  61.2086851  23.1275868   2.9113021  61.5928418  23.8331532
   3.0380979  60.8461697  22.5226617  33.2453084  33.7852144  41.5810204
  32.7566075  32.9819298  41.4017630  32.6888800  34.2737794  42.1875906
  85.0116936  75.8216918  47.2704887  84.9236146  75.9496520  46.3259745
  84.2460934  76.2584300  47.6437807  53.6366463   8.2746285  43.6490059
  53.6906385   8.6921018  44.5086765  53.0903864   8.8649160  43.1299734
  44.8893309  21.2148237  33.1261420  44.5274353  21.7535448  32.4225497
  44.3754292  20.4077530  33.0983615  77.7274282  24.4394255  46.1423111
  78.1334407  24.4120932  47.0087051  78.4650732  24.4636774  45.5327845
  12.0433605   9.0317780  31.0120893  12.9137933   9.2659682  31.3341665
  11.7594910   8.3196461  31.5852547  56.5795834  53.1742150  56.0130024
  56.3165312  53.5342390  56.8600082  56.3073061  52.2572071  56.0475492
  36.9399205  68.2084341  46.0070992  36.0163632  68.0024082  46.1514330
  37.3278942  68.1949897  46.8820429  63.3716917  14.7114229  11.7327142
  63.2076979  14.4596851  10.8238876  64.1795826  14.2540646  11.9658792
  81.7293448  16.7514014  54.8956490  81.2603409  16.3135719  55.6059790
  82.0365493  17.5717986  55.2814007  10.2870584  72.8914928   6.0769910
  10.6046939  73.5917854   6.6470146  11.0788417  72.5267982   5.6816274
   9.6631265  31.6993213  49.9935007  10.0580657  32.0427990  50.7949209
  10.3543770  31.7724752  49.3354321  39.7028017  13.6691487  31.1814642
  40.3623438  13.0739224  30.8251786  39.7947502  13.5879683  32.1307731
  18.8592497  60.9894533  61.9658756  19.6659605  60.5759008  62.2731638
  18.2273428  60.8325166  62.6675129  17.6773834   8.5186553   0.3789806
  17.3746026   9.1175550  -0.3035698  18.2715464   7.9201841  -0.0738277
  44.0978483  54.6032102  52.3943949  44.2006306  54.9199040  53.2918215
  43.6550168  55.3182084  51.9373322  47.8334997  78.2352752  10.0897479
  48.4897105  77.8893579   9.4848007  46.9950668  78.0363915   9.6729660
  71.4992870  22.1028638  43.2498789  72.1970655  22.6243210  42.8531170
  71.1413873  21.5904975  42.5248814   3.5485497  19.9440527  39.9091220
   3.0401731  20.1859736  40.6832409   3.9682183  20.7591200  39.6338511
  23.0749559  30.6180954  49.1089010  23.2099152  29.7935486  48.6418438
  23.9029145  30.7743859  49.5630932  15.2745891  14.9741173  16.1963630
  15.9278631  14.3745482  16.5568936  15.2977681  14.8144102  15.2528656
  11.2648141  26.2542510  45.1094341  11.6853452  26.4275336  45.9516716
  10.5908501  25.6040454  45.3075171   9.2976862  21.8044686  27.7079082
   8.6868972  22.5297332  27.5769019  10.0766706  22.2126508  28.0858016
  80.2972920  40.4510403  12.2435737  80.4315795  41.1988020  12.8258586
  79.5530130  40.7035637  11.6972101  20.2360129   6.5964520  54.1778612
  20.2189875   6.9225997  55.0776196  19.7879446   7.2725123  53.6695194
  10.8125317   6.9141310  10.0820065  11.0361588   7.8334004  10.2274930
  11.5705109   6.5531063   9.6222657  85.2450816  73.8740129  33.0091643
  85.9371130  73.2222910  33.1213450  85.0996748  74.2227728  33.8886261
  32.4684453   4.2462248  44.1507626  32.0261836   4.0010208  44.9634838
  31.7991567   4.1451332  43.4739590  43.2858849  23.0784917  18.6641932
  42.7199173  23.1506157  17.8956139  43.3558846  23.9739895  18.9949715
  29.6216488  17.2374856  36.9714069  30.1980877  17.1664381  37.7322626
  29.9640131  17.9844725  36.4804602  48.8857698  10.5181265  58.4164333
  48.0046558  10.4710948  58.7874556  49.4535732  10.1671040  59.1024446
  28.6522317  35.1212478  34.3834424  28.5895658  34.3976665  33.7599564
  29.0685439  34.7371578  35.1550579  13.3108234  30.2705288  14.9937510
  13.5134232  30.9250832  14.3253601  13.0617678  30.7828593  15.7629848
  65.0301409  44.4011974  16.3400424  65.3776121  43.6179781  15.9133554
  64.1061640  44.4198179  16.0907388  65.2158658  80.4062881  52.5380039
  65.2273140  80.4019424  53.4951210  65.9731452  79.8773614  52.2870111
  16.1038089  39.6963716  29.1559458  16.2014520  40.2616644  28.3896971
  15.1820457  39.4384694  29.1474175  57.0220490  68.7043101  56.4583111
  56.0870994  68.5519237  56.5957117  57.3846880  67.8341586  56.2922955
   1.6146794   2.1657298  64.3471042   0.7542577   2.5311158  64.1411963
   2.1497622   2.3654339  63.5789660  22.1872940  55.2868778  22.6686120
  21.6868773  54.5227296  22.3824406  22.2277966  55.2035887  23.6213207
  54.4114208  20.4864383  40.7241869  53.4924889  20.5624199  40.9811306
  54.6414042  21.3561773  40.3972340  76.1348335  62.0780856  37.9916453
  76.0895709  63.0265457  38.1125116  76.4077214  61.9654233  37.0811105
  42.5836611  41.0101843  27.0931530  42.2882223  40.2770424  27.6330185
  43.4032011  40.7056808  26.7034554  55.9099469  71.4257910   2.8103628
  55.3507170  70.7519104   2.4238672  55.4039607  71.7615273   3.5502854
  21.8882647  60.5041439  43.6404181  21.0719099  60.0171430  43.5280514
  22.5742140  59.8792774  43.4053850  22.6353684  65.1683683  22.9985023
  21.6898051  65.3170008  23.0054307  23.0076638  66.0070677  22.7260876
  11.1907783  76.5902368  47.3186588  11.9549885  76.0441864  47.1341515
  10.6641617  76.0684712  47.9241848  64.1379667   8.5838604  37.8277397
  64.2656160   7.9104841  38.4959483  63.3108593   9.0031070  38.0651355
  50.5629721  61.9674749  37.5548196  49.8482457  61.9884581  38.1911826
  50.6701746  62.8795464  37.2848845  28.3587337  16.6367781  17.3614120
  28.8696170  16.0487473  16.8051302  28.6619377  16.4496338  18.2498252
  27.4857235  53.6080027   0.9159421  28.3589458  53.9916945   0.8353584
  27.5422311  53.0438614   1.6871664  17.7257740  26.5850496   8.9170408
  18.1164360  25.8904457   9.4472671  16.7833614  26.4264560   8.9712542
  85.3803070   8.4759134  41.0418415  84.5073441   8.7467253  41.3261414
  85.8253168   9.2944211  40.8221960  52.7912664  12.8824615  34.4128871
  52.3832607  13.7074113  34.6759844  52.6776171  12.3070836  35.1693630
   2.2153868  22.4039626  38.4472275   3.0762270  22.3790455  38.8650393
   1.6568834  22.8604531  39.0764523  19.9096620  22.0092392  37.6462674
  20.5631757  21.3578653  37.3915863  20.3071117  22.4713993  38.3842874
  50.8953667   4.2345288  26.6857982  50.7613373   3.6153626  25.9682322
  51.4256287   4.9335280  26.3031030  62.7503443  10.6132960  13.7537897
  62.2420359  10.9363496  14.4977582  62.4785519   9.7006959  13.6562097
  57.9312229  15.3897202  21.3904762  57.2029066  14.8513961  21.0806465
  58.1173325  15.0582087  22.2689366  69.7296433  79.0645536  66.3216496
  69.8367027  78.1504754  66.0585308  69.6794025  79.0344659  67.2770548
  82.0257799  76.7972607  44.2582893  81.8460647  77.4811537  44.9034452
  81.1607925  76.4829169  43.9951992  55.1523256  14.8015547  34.8861432
  55.3618193  15.6688809  34.5396042  54.6480083  14.3808186  34.1898155
   5.6330645  39.1318464  13.3310115   5.1584315  39.9262881  13.0864358
   5.2812815  38.4550571  12.7527046  45.1866817  26.8760085  34.1595960
  44.5891047  27.4618363  34.6242929  44.7488070  26.0249925  34.1760039
  10.7562294  80.2117106  62.7362728  10.7076612  80.2707138  61.7821312
  11.6650620  79.9705027  62.9153728  84.3600956  69.5920629  11.6083682
  83.5790864  69.9503596  11.1866081  84.0197960  69.0010149  12.2799993
  30.6057498  62.1126225   8.4689703  30.0757408  61.4933588   8.9708033
  30.4165982  61.9034698   7.5542536  50.8166218  35.2320957  26.6855288
  51.3752031  35.9968710  26.8245864  51.1069775  34.8726749  25.8472300
  70.7782633  38.9874887  67.4831851  70.8528120  39.8730807  67.8387148
  70.0964004  39.0543636  66.8147377  47.0621300  27.9370856  30.2784920
  47.7711058  28.5194349  30.0056338  47.4682856  27.0716882  30.3270531
  82.7126847  35.3886747  68.0599642  82.8592099  34.4650221  68.2639933
  83.0577622  35.4958272  67.1735811  20.7518616  76.4570374  34.5271516
  21.4271059  76.9671083  34.0798259  20.7367125  75.6202424  34.0626335
  40.5722284  35.9497356  43.0501747  40.8720160  35.9403968  42.1411753
  40.4539585  36.8775058  43.2538509  27.2507111  48.4548239  66.0370502
  27.3284357  48.3083551  65.0943214  27.9736926  47.9559295  66.4173577
  75.6579251  32.7771640  12.5428498  75.1956273  32.0141172  12.8896558
  75.2103032  33.5269713  12.9348350   8.6903185  29.1829991   1.4025962
   7.9710960  29.6906757   1.7783804   8.3290321  28.8172317   0.5951817
  41.8401432  51.9922733  56.5574217  41.9091749  52.3538113  55.6738138
  41.5235567  52.7215147  57.0905304  41.7347193  14.1280079  28.3611846
  42.2151995  14.2522609  29.1796780  42.2862101  14.5383167  27.6950502
  75.8213199  30.2731729  27.1410179  75.8135195  29.4102454  27.5551796
  76.5748317  30.2489638  26.5512180  48.4041024  34.1840267  27.7082682
  48.9085246  34.7449946  27.1191120  47.8826214  33.6321306  27.1254325
  45.4323053  48.5997772  24.0757489  46.1356258  48.1079817  24.4996738
  45.6516838  49.5176506  24.2358017   4.0911355  68.2957203  38.4274149
   3.6202565  67.6812501  37.8644490   4.9617949  67.9106052  38.5267615
  77.0433427   1.6533506  38.2495070  77.7546121   1.7610878  38.8809490
  77.2310711   2.2959232  37.5653338  24.5351672  15.9064853  11.3488722
  25.0575757  15.4681540  12.0205772  25.0714922  15.8562064  10.5576324
  41.7368984  24.6521473  41.6582298  41.3596582  23.8115764  41.3986826
  42.0613050  24.5049691  42.5466728  31.7868257  29.2201424  37.1352506
  32.6187611  29.4388676  36.7154002  31.2310839  29.9834061  36.9777298
  43.7131977  24.6365285  36.9199538  44.6469021  24.5644522  37.1180320
  43.4163761  23.7307644  36.8320966   1.2512018  15.7362533  52.3779202
   1.6704172  16.4148080  51.8487215   0.5898898  15.3560150  51.7997169
  19.9561226  15.6618106  51.0031271  19.4742858  16.3794231  51.4143419
  20.5472779  16.0929239  50.3859520   1.9304457  25.8869529  14.9256396
   2.4413322  25.7554984  15.7243550   2.3239005  25.2904534  14.2887616
  51.4211360   8.6818669  66.1067221  51.8573169   8.8181803  66.9477910
  52.0923696   8.8804553  65.4538510  55.3049278  46.2503767   4.0380111
  55.8039761  46.2765741   4.8544034  54.4122982  46.0367775   4.3096966
  54.7639255  80.2253770   9.7503120  54.6035660  79.4316709  10.2607501
  54.6193279  79.9594483   8.8422340  36.5018249   3.8695872   7.7967030
  35.9545422   3.8529116   7.0115697  36.0584188   4.4809473   8.3848017
  62.4002958  40.6250048  16.6221321  62.0065738  40.0903034  17.3115575
  61.9532157  41.4687634  16.6886687  29.3119063  79.6722774  65.1654545
  30.0492913  79.7531681  65.7703939  29.1614885  80.5636244  64.8506385
  12.3144817  19.5236301  16.6578984  11.5205574  19.6892464  17.1663141
  12.0259130  19.5559907  15.7458055  79.3034269  12.0813537  12.4667180
  79.7860087  12.1070957  11.6404712  78.5747076  12.6883948  12.3374832
  65.0365400   9.4796664  32.6036239  64.3197012   9.4765919  31.9693017
  64.6097755   9.6330118  33.4465861  55.2346849  22.9842305  29.0085387
  54.9916506  23.3256769  28.1479692  56.1439228  23.2589149  29.1271496
  58.9455748   4.1001332  44.7631502  58.0346632   4.3863973  44.6959209
  58.9170122   3.1630361  44.5701075  52.6470900  11.9892478  25.4100776
  52.3870373  11.9943464  24.4888949  52.7835894  11.0643244  25.6153011
  48.6131001   9.0998894  13.9614105  49.3209314   8.4625357  13.8666308
  48.8152742   9.5632607  14.7742105  16.2162724  68.9552755  26.2751126
  16.6718998  68.2818086  26.7801642  15.4927864  68.4907276  25.8544087
   9.7066027   3.6009958  26.7681146  10.5541229   3.1590676  26.7167306
   9.1587323   3.0091336  27.2836423  17.1168005  46.7406893  67.0147800
  16.7748344  47.6205730  67.1731997  16.4954233  46.3491535  66.4009237
  73.7565116  79.0340331  32.4806738  74.2896847  79.5306971  33.1013870
  73.3614592  78.3388684  33.0068994  80.6929801  52.9072618  26.0206652
  81.1378501  52.4913168  25.2822137  81.3856531  53.0569124  26.6641259
  84.4170252  74.3001754  58.7691736  85.2602402  73.9873196  59.0968084
  83.9966766  73.5203696  58.4066296  68.2534170  42.0773983  12.3482716
  68.2648611  41.5231514  13.1286013  67.9403925  41.5019512  11.6503406
  84.0134923  78.3053246  53.6090565  84.6882621  78.5220540  52.9656696
  83.2188622  78.1809262  53.0900955  78.4837389   5.3086954  42.8719997
  78.5914993   6.2398189  43.0659819  79.2067575   4.8828503  43.3325768
  24.5270276  32.4514008  29.0066195  24.9050045  33.2510018  29.3726850
  23.9142156  32.7599311  28.3391595   3.5531345  79.3628910  22.7982974
   3.3922592  80.0179695  22.1191645   3.6919990  79.8737690  23.5957646
  36.6159344  12.9298389  53.8221025  36.0761166  12.2812343  53.3702850
  36.7661572  12.5540268  54.6895313  46.1832432  69.2145724  42.2347832
  46.9665543  69.7262354  42.0326519  45.9140674  69.5207185  43.1008387
  51.6302967   3.7044266  48.1034660  51.8984079   2.8595769  48.4648228
  50.6767178   3.7087089  48.1865406  39.5918235  18.5447528   7.7873411
  39.4180271  19.4783618   7.6673403  40.0078520  18.2715418   6.9697180
  11.3662386  20.0418472  49.2980957  10.4441917  20.1031041  49.5477152
  11.6672337  19.2232025  49.6923733  38.3014345   6.9546902  50.4406261
  38.3039188   6.0006362  50.3631210  38.9637327   7.1426922  51.1056423
  55.9549332  15.1151395  62.9475355  56.5375328  14.5442641  62.4466276
  56.4683104  15.3671563  63.7151051  37.8587484  14.9786317  45.4996490
  37.3388886  14.5995092  44.7909594  37.8024125  15.9237456  45.3588772
   3.8169861  49.9823141  17.2957563   4.6159032  49.9980021  16.7687678
   4.0984291  49.6483707  18.1475222  48.0616713  58.1982660  19.2364323
  47.5499821  58.0431795  18.4424841  48.0527687  59.1492271  19.3451703
  67.1124066  63.1008768  32.6795459  67.5753118  63.6434698  32.0411539
  67.1570982  62.2154856  32.3185492  49.3911982  35.3231645  35.4065275
  50.1035166  34.7112060  35.5918431  48.8093996  35.2496791  36.1630607
   9.4298738  23.1917238  15.2856290   9.0331191  24.0161490  15.5669475
   9.3543375  22.6172900  16.0475683  65.5947781  18.0613089  38.6294794
  64.8709726  18.5450721  38.2315946  65.6154680  18.3648133  39.5370531
  50.4918480  15.4058063  24.2856503  50.1849556  14.5998955  24.7010469
  50.6133461  15.1699674  23.3659506  32.6338816  33.8010502  38.0229187
  32.4862242  32.9354024  38.4038210  33.1786966  34.2556524  38.6653709
  70.1069690  50.0074291  47.3439121  70.9573938  50.3408813  47.0578766
  69.4792570  50.6664371  47.0474052  70.3590886  76.3181285  58.7149906
  69.7435955  76.6415040  58.0570936  70.1846460  75.3782720  58.7647009
  84.2778263  24.1822841   8.7200060  84.1312990  24.4750669   7.8205385
  83.3990392  24.0904572   9.0881577  27.3745108   9.0931231  33.1853914
  26.4270043   9.1742969  33.0764365  27.7090454   9.9780357  33.0396271
   7.2030205  32.0091438   8.3655804   6.6764867  31.2582755   8.6397892
   7.3196930  31.8885136   7.4232072  23.7855935   8.6207622  15.7514119
  24.3140864   8.8799959  14.9966109  23.8169956   7.6640815  15.7485664
  48.7155524  72.0141763   5.7680213  48.4124794  71.1245240   5.9493965
  48.8391533  72.4060191   6.6325521  23.5582352  34.9959493  48.4658241
  23.0596375  35.6419945  48.9660788  24.4728136  35.1831365  48.6773396
  70.8964528  36.2920308  51.6615152  70.0936319  35.7815886  51.5558863
  71.1926235  36.4604616  50.7670069  28.1342793  33.5178065  25.1666760
  28.1876850  32.5658464  25.0821233  27.5442338  33.6597896  25.9068918
  14.9133527  10.9406281  10.8753467  14.5741749  10.5389428  10.0754476
  14.1696107  11.4246166  11.2342811  29.0192819  37.2293591  36.7559719
  29.6005630  36.9054723  36.0679007  28.1375360  37.0708609  36.4188766
  10.3153670  19.1743064  46.7726326  10.7859218  19.7295308  47.3943520
  10.4979300  19.5640492  45.9176445  32.6790443  63.9658573   6.1595907
  32.0214525  63.6754110   5.5275717  32.3519555  64.8081067   6.4756003
  29.0187883  33.8391638  22.6824713  28.5071778  33.7539935  23.4869814
  29.7319388  34.4341755  22.9140067  37.3011279  25.0121689  65.7660580
  36.8719482  25.8136964  66.0653734  36.5813208  24.4056344  65.5922079
  10.9089935   0.9901686  55.7556629  11.4038885   1.4994919  55.1138687
  11.5184438   0.8643176  56.4829636  50.4866934  26.7543745  40.5157566
  51.2897491  26.7875266  41.0355949  50.7656765  26.9831705  39.6291590
  22.2107577  63.5935163   9.7389996  23.1125784  63.9135742   9.7616953
  22.2745776  62.7256536   9.3402869  32.9659057   8.3433747  52.9260635
  33.1526303   8.6389971  52.0350122  32.1050191   8.7114787  53.1250763
  34.1469359  14.1629541  29.3576670  33.9260721  14.1960025  28.4268832
  33.4560966  14.6685505  29.7858572  47.1323416  55.3480806   7.3256054
  46.6094432  56.0892704   7.0199146  47.8559479  55.2918723   6.7015305
  51.5369160  48.0023222  67.3900554  51.1066205  48.8033544  67.0910123
  51.6281039  47.4700551  66.5997339  51.3991789  75.5564917  17.3776066
  50.6744156  75.4973645  18.0000651  51.8184153  74.6968318  17.4157739
  60.3799200  10.3214169  35.1104856  59.9599743   9.7406250  35.7449603
  61.3173151  10.1691198  35.2301788  40.6665039   8.8437569  55.4485750
  40.1158094   8.6487585  54.6903229  41.4072990   8.2430357  55.3673983
  75.7575265  59.3545110  31.9990993  75.2959684  59.2666466  32.8330517
  75.5608098  60.2452810  31.7091680   8.5569531   9.5312494  39.5546532
   8.9418972   8.7454563  39.1666079   8.8033772  10.2382362  38.9582682
  15.7847416  74.8933125  10.9846318  14.9112344  74.5154333  11.0867345
  15.8656311  75.0592518  10.0454021  50.5910904  55.8756511  58.3256802
  50.0999839  56.6125707  58.6889944  49.9426324  55.1775484  58.2340905
   5.4401645  59.5964267   3.8369789   4.6640596  59.8059347   3.3173647
   5.2881751  60.0263860   4.6785631  80.9986870   3.9204168  37.0373225
  80.3958685   4.5615584  37.4138594  80.4330189   3.3044696  36.5716410
  23.6312554  73.9826753   5.8720436  23.9456871  73.9899423   6.7760983
  23.5282222  73.0545619   5.6617489  76.4542429  76.7472080  12.7505636
  76.0460071  76.7018033  11.8859756  76.7474953  77.6549462  12.8295946
   6.4463916  40.0151117  37.6188374   5.9811726  39.2859657  38.0289030
   6.4158526  40.7155306  38.2705355  38.0382085  27.7411008  37.5565290
  37.9429650  27.0156455  38.1736779  37.2254586  28.2389665  37.6448584
  56.3762426  26.3704276   9.7185892  56.3330030  27.2688031  10.0461328
  55.8122444  25.8723664  10.3102565  28.6738706  11.9086182  33.1590319
  28.5382390  11.7230654  34.0882277  28.5511041  12.8548908  33.0833435
  13.7208548  77.4926854  30.5125713  12.8166190  77.6612083  30.2476382
  13.7079659  76.5981234  30.8528996  50.5710459  14.2459762  52.3650789
  50.1530552  14.0093076  51.5371275  50.4504108  13.4773123  52.9226017
  33.7477303  22.0150399  23.0442810  34.1131067  21.8633413  23.9158988
  33.4062362  21.1620378  22.7759457   4.7426367  12.7673876  32.1605444
   5.6646407  12.6182401  31.9510317   4.5082632  13.5519862  31.6648579
  16.2880003  45.5924320  17.6771855  16.5692973  46.0106468  16.8634284
  16.4645469  46.2446737  18.3551538  44.3006754  23.6550689  47.3951197
  45.1407051  23.5787416  46.9426155  44.2952585  22.9255247  48.0147696
   6.3992721  32.7796936  29.2044902   6.3865405  32.3560286  30.0627327
   5.5472678  33.2107806  29.1375256  30.3944755   8.0127978  38.0583620
  30.2725816   8.8188332  37.5566816  31.2972474   7.7517104  37.8765178
  28.7118173  26.6053677  47.7784348  29.0561128  27.3229814  48.3101511
  29.4888496  26.1255407  47.4917030  10.8798790  36.5244937  34.0187216
  10.5761111  36.4670682  33.1128192  10.1133478  36.2936163  34.5434666
  18.9643884  24.9352551  32.6659393  19.8039925  25.2631140  32.9881263
  19.1263354  24.0120459  32.4717975   7.1142331  63.0115707  42.7365351
   6.3203111  63.5196359  42.9032469   7.8292218  63.6338873  42.8697443
   6.9712692  55.6821251  46.2721014   7.2027516  55.8874798  45.3663015
   6.1965024  55.1245546  46.2007999  52.3314571  33.0774164  28.3807015
  52.1360779  33.3113122  27.4733162  51.4949036  32.7772760  28.7361240
  25.3534746  23.6957359  68.1594276  25.8398890  22.9651856  68.5414362
  24.4599080  23.3656025  68.0657244  48.1708956  10.8624005  30.3330684
  47.6145411  10.2129030  29.9031210  47.5879145  11.6023517  30.5028772
  78.2558353   2.1790943  30.5836797  77.8987951   1.2978646  30.4732800
  79.0895475   2.1603353  30.1137805  38.9187527  12.1995842  24.8535991
  39.7550440  12.1864522  24.3881106  39.1395545  11.9465089  25.7499409
  35.0181341   3.3869115  28.0131388  34.2022824   3.3638513  27.5130534
  34.7811294   3.8092986  28.8387609  63.1997148  73.7395377  33.7281346
  62.5737325  73.4122861  34.3741107  64.0482275  73.6848033  34.1677523
  81.0546319  69.1175599  30.6788421  80.6976668  69.7448129  30.0500655
  81.1430995  68.3042605  30.1819038   8.3152616  15.5027950   9.0619415
   8.8526660  15.7030964   9.8283017   7.4176008  15.6717563   9.3481040
  51.3650894  35.1210618  17.4923539  50.8886051  35.0631475  18.3205080
  51.4407015  34.2141700  17.1956027   9.6827704  24.1557479  54.2509174
   9.0617687  24.7267890  54.7031355   9.1332394  23.5591841  53.7426281
  77.0769167   7.8624922  21.1855221  77.4616146   6.9969678  21.0472918
  76.5144539   7.7548808  21.9525218  19.3248367  34.0559459  25.3367949
  19.2712593  34.2302394  24.3971229  19.5829201  34.8936105  25.7214332
   9.0396777  49.0384681  62.4726009   8.8192311  49.1927869  61.5540075
   8.2075539  48.8015420  62.8820753  34.0872145  38.1232834  15.4396331
  33.4299088  38.8137817  15.3536487  34.2155313  37.8022599  14.5470464
  24.4723725   2.5039983  45.5392694  24.4272518   2.9061693  46.4067125
  24.2320228   1.5892500  45.6865740  37.0824519   3.8830111  66.6059530
  36.1667576   3.6163256  66.6872752  37.0426407   4.7713349  66.2516588
  14.4525015   9.6438426   5.5197853  15.0113249  10.1546073   4.9340653
  14.6423328   8.7323713   5.2974880  47.2210428  57.4328091   2.8315392
  46.3852427  57.4097838   3.2975235  47.7799365  57.9934003   3.3696928
   4.1331193   0.6440249  40.4799652   4.4567159   1.3335355  39.9002314
   4.0195224  -0.1155250  39.9086428  15.9122300  23.8225102  38.9827013
  16.4518261  23.4247136  38.2994556  16.2463546  23.4503078  39.7988248
  21.5420103   3.2182956  34.9094725  22.2135711   3.8979489  34.8519492
  21.3559818   2.9877508  33.9992666  20.3343239  73.1847073  18.2383454
  19.7906437  73.9183415  17.9512513  19.9207440  72.4137450  17.8500140
  63.3548714  14.3060935  28.8317180  62.5376154  13.8081872  28.8520050
  63.0863978  15.2131677  28.9779043  26.3390708  14.9356425  13.1823194
  26.4729691  14.5556271  14.0505886  26.9262624  15.6911981  13.1584084
  22.3264623  36.9132566  28.5396099  23.2612610  37.0583868  28.6856222
  22.1682858  36.0265207  28.8635135  83.7239128  21.5522814  43.1097555
  83.1366489  21.6143203  42.3564291  84.4941308  22.0605707  42.8555155
  26.9015718  10.3809917  41.7878294  26.2103415  10.3717530  41.1257553
  27.4982166   9.6816927  41.5209436  13.7445772   4.3612635   6.0307062
  13.4121811   5.2543730   6.1207056  14.5917869   4.4635710   5.5971146
   6.2433523  17.4768317  40.9783888   6.2808233  17.0549440  40.1199961
   5.3210533  17.4271297  41.2296391   9.6894303  79.3292110  56.2327051
  10.4208532  79.7515466  56.6831303   9.5825091  78.4913228  56.6829729
  32.6333618  53.2800674   3.3700427  32.4269724  54.0568924   2.8502539
  32.5139093  53.5603714   4.2774522  38.9617729   4.1197431  50.3722048
  38.6617112   3.5221133  51.0570669  38.2572889   4.1144860  49.7242069
  17.2167730  45.4270554  44.3112707  17.2412431  44.5576143  44.7109032
  18.0142927  45.8558464  44.6216440  29.1836744  47.1572195  60.3648767
  29.3115392  46.2377279  60.1316002  28.7578577  47.5417267  59.5986733
  55.2882290  34.4534874   2.2535183  55.9808826  33.8013530   2.3592953
  55.2268314  34.8785830   3.1089458  40.9725285  35.8517408  23.2603574
  40.8501482  34.9092007  23.1469131  41.8126011  35.9315228  23.7121844
   9.3006456  13.5964179   0.9001160   8.6940277  14.3245757   0.7658313
   9.2977566  13.4537113   1.8466140  35.8188367  37.8898811  60.6353807
  36.6503263  37.9585171  60.1661825  35.5009961  37.0101833  60.4320526
  79.0790446  45.5336428  21.4315796  79.1312553  46.4720392  21.6130161
  79.1875691  45.4667139  20.4829073  18.7453592  44.0500689  16.1662853
  18.0027449  44.5018291  16.5671206  19.3840730  43.9645243  16.8740690
  43.4008686  57.8706224  11.9196892  43.2729081  58.7105925  12.3604929
  43.9384822  57.3613150  12.5261629  36.7384458  37.8988576  31.2462878
  35.8834410  38.1012630  31.6260672  36.9050932  38.6165833  30.6352782
  74.4267739  38.2062149  66.4661932  74.3491615  37.6975465  65.6590557
  74.3499352  37.5578976  67.1661997  17.4320185   9.6457469  55.7725191
  17.5166881  10.2266419  56.5285778  16.7900896  10.0779068  55.2091408
  44.4858694  14.5204401  20.5051613  44.9910259  13.7421107  20.7402158
  43.8616419  14.2115545  19.8485315  19.0638888  13.5630703  22.9599595
  19.8083162  13.7507951  22.3882794  18.9604676  14.3556631  23.4865832
  49.2974043  28.4025192  28.4862161  49.6088266  27.9141521  27.7241492
  48.8219881  29.1463184  28.1161189  36.0088992  13.6538720  18.3448601
  35.1237941  13.3697844  18.1165671  36.4758086  13.6773908  17.5095928
  83.6206187   0.6177185  32.8376412  83.9515195   1.0865632  32.0715332
  83.4860798   1.2994257  33.4959769  32.7428007  15.3126645  38.9196825
  32.4012518  15.3457749  39.8132586  33.6302376  14.9668634  39.0151334
  33.6408472  25.4621530  21.1381602  33.4136796  26.3812661  21.2790775
  32.8826380  25.0949955  20.6836891  62.8057575  45.9943151  34.9112439
  61.8967485  46.1245537  34.6411204  63.3156967  46.1406946  34.1145205
  38.8226104  60.0241232  19.8598742  38.8548851  60.9631348  20.0427794
  38.0342627  59.7195339  20.3092766   9.9361864   8.1323979  65.1482195
   9.0349903   7.8757784  64.9527145   9.8517576   8.9550183  65.6302947
  43.4248209  14.7881913  37.5189781  42.4691486  14.7477627  37.5548720
  43.6117697  15.5367208  36.9524240  56.5801668  39.6334815   8.3504391
  56.3613272  40.0654411   7.5247556  56.4606905  40.3121328   9.0148073
  37.3372626  14.0051699  32.1213722  38.0207396  14.0744591  31.4548206
  37.3618031  14.8461270  32.5779033  23.3661318  56.3190889   4.0612912
  23.4105515  56.6044283   3.1486911  22.8646588  57.0047331   4.5024794
  64.2264700  28.3609962  44.5681524  63.3843708  28.2269287  44.1332626
  64.0051699  28.4559655  45.4945612  17.3810625  53.0445814  51.5179110
  16.5465176  52.9432011  51.9756126  17.1375263  53.1700373  50.6007528
  13.7873733  40.0699902  35.7744598  13.3408880  40.9074545  35.6497955
  14.6283317  40.1784706  35.3303266  36.7706800  25.6056881  39.6530890
  37.1690130  25.8890009  40.4760695  35.8525586  25.8653951  39.7294927
  52.6940203  30.0923729  29.1307926  52.1853542  30.6076336  28.5046959
  52.6204443  30.5751467  29.9540496  80.0049538  21.0510798   9.7287407
  79.3216080  20.3818293   9.7658291  79.7110004  21.7275973  10.3387776
  28.5116744  36.3106203  41.0706282  27.7003646  35.9016728  41.3719034
  28.5365891  37.1543431  41.5220070  35.8276391  34.5145917  40.9064484
  34.9248075  34.2374182  41.0623407  36.3335228  33.7021255  40.9210205
  28.6291432  30.9612632  43.3496809  29.4325733  30.4716229  43.5257101
  28.9210463  31.7353892  42.8682756  10.4143238  17.3750293  66.0050488
   9.4832838  17.2286963  66.1723280  10.6287074  18.1578207  66.5124989
  51.3632631   2.9841834  38.4757924  50.7361650   3.6349455  38.7912154
  50.8393574   2.3844777  37.9446530  67.4965817  72.0633368  67.2587631
  67.1209580  72.3331623  68.0968158  66.7381746  71.8789177  66.7046509
  59.4955015  22.1721363  24.5219803  59.5923138  21.2280250  24.3974233
  59.2300797  22.2670674  25.4367328  59.0773344  15.3107667  38.9626932
  59.4693804  14.6676791  39.5534277  58.3959103  14.8249996  38.4980178
   9.8996296   3.0242369  69.5652324  10.8308926   3.1884358  69.7136212
   9.5417347   3.8779471  69.3216618  72.0399666  63.6892033  52.5472212
  71.9021845  64.5531368  52.1588087  71.3131952  63.5839605  53.1611919
  62.7350408  42.8944425  69.1359448  63.6464698  42.9153995  68.8442435
  62.2647578  43.4219901  68.4903761  45.1890135  13.5099077  43.0133915
  44.9158812  14.2959952  42.5404263  45.8894253  13.8101339  43.5926294
  43.4493780  22.8532791  31.2158513  44.2384624  23.1624842  30.7709169
  42.7335262  23.3232594  30.7881761  24.8164368   6.0399377  16.2513077
  24.2743611   5.4354143  16.7581975  25.0198078   6.7486471  16.8617201
  22.9659167  67.6398952  28.9637756  23.1992426  68.5680301  28.9826441
  23.8053313  67.1811635  28.9981484  56.3943434  40.7077551  26.8796825
  55.7973909  40.8924580  27.6047802  57.1259737  41.3105536  27.0122838
  74.5964813   7.5571054   8.7935698  75.2111244   7.8250724   9.4766784
  74.7416544   8.1812340   8.0825007  57.8676271   4.3274832  25.8031964
  57.3743677   5.0789267  25.4741740  57.1982813   3.6803302  26.0254526
  42.6414824  17.8549111  28.6640310  43.2964611  17.8737378  29.3617964
  42.8705788  18.5939324  28.1004763  39.8787022  35.6734061  18.9869678
  40.6338406  36.0549259  19.4346726  39.1709566  35.7189584  19.6298170
  40.8452320  29.0015149  25.9386230  41.5235662  29.4434381  26.4493084
  41.2457800  28.8589549  25.0810266  43.8199377  29.6288228  15.5984700
  43.6424255  30.4716969  15.1810002  44.4555044  29.2050052  15.0216961
  14.3868905  64.9632458  63.8104514  14.0596324  64.6359138  62.9726050
  14.5896750  65.8840017  63.6451546  55.7876015  22.8142262  32.2703457
  56.2029648  23.3175230  31.5700603  55.6705618  23.4444356  32.9812384
  21.2093592  24.2959833  30.1444721  21.4100099  24.5816851  31.0357332
  21.8257689  24.7786498  29.5937419  19.5993817   5.8464366  43.9711332
  19.2628670   6.7405993  43.9122820  20.4186058   5.8657920  43.4764290
  63.1498463  38.2005061  62.6163873  62.2039611  38.2479690  62.7552364
  63.4734733  39.0634459  62.8749082  67.0755133  53.6065545   8.3545199
  67.0203600  53.2792189   9.2523184  67.1085271  52.8175845   7.8135338
  20.6716385  71.2046630  52.4876976  20.8083144  70.4068930  51.9767046
  20.4666653  70.8924157  53.3690166   6.9774109  46.0774851  11.3311505
   7.3435467  45.8517361  12.1862602   7.7041054  46.4842987  10.8592904
  43.0667591  27.1884108  16.7578924  42.3100662  27.1577668  16.1724806
  43.4382820  28.0602956  16.6236520  54.6299791  41.4531851  24.7893405
  55.1821375  41.7283583  25.5212116  54.7138119  42.1584845  24.1476583
  16.7483750  62.5623507  58.3906889  17.0624915  61.6582126  58.3809376
  16.7408553  62.8033120  59.3170357  17.2691000  67.9551697  60.1063871
  17.4566150  68.3426046  60.9613514  17.6758981  67.0894194  60.1413345
  66.4139795  30.0961113  44.8099518  66.0487747  30.9186482  45.1359749
  65.6957436  29.4680452  44.8867655  29.9588060  13.4430945   6.1657143
  30.0358176  14.0502238   5.4297137  29.0170932  13.3005965   6.2611276
  27.3657393  33.1112552  58.7734842  26.5237117  32.9509854  58.3474112
  27.6073909  33.9964676  58.5010195  52.3748922  23.4739995  29.6210122
  53.3304405  23.4236503  29.6458459  52.1186972  22.8365040  28.9545321
  40.6655312  31.6920090  41.8650961  40.1965666  30.8589339  41.9129658
  40.8567381  31.8060756  40.9341478  45.9365463  31.0896349  34.9002814
  46.6006708  30.4921794  34.5564556  45.1919365  30.9867024  34.3076658
  40.0673580  24.3486667   9.1449040  40.5172062  24.9874139   9.6979600
  39.1382003  24.5534348   9.2496365  49.1522694  25.6436968   6.3831705
  48.2068062  25.5240774   6.2936234  49.3508101  26.4021301   5.8339971
  13.1242263  23.5665059  38.4711456  12.9283214  24.4320154  38.1123352
  14.0766799  23.5564542  38.5658193  79.5642663  28.9335585   8.3662426
  80.3521092  29.2994881   7.9642093  79.0642698  28.5769033   7.6320541
  31.8178320  36.6592455  41.2318468  30.8704686  36.5228629  41.2203407
  32.0784688  36.4540410  42.1297264  39.8739982  14.7090435  42.4825811
  39.1022897  14.9264359  41.9596672  40.5180073  15.3773713  42.2484398
  51.1133814  52.1432924  20.8989215  51.3925076  51.4700603  21.5194678
  51.7985773  52.8101063  20.9446907  53.5187674  37.7770090   7.4302375
  53.8760948  37.7566528   6.5424699  54.2829084  37.6789188   7.9983026
  67.1708488  29.4628859  25.1388836  67.2641993  28.6822677  24.5928502
  67.5150776  30.1749158  24.5996690  32.8137684  12.7706802  51.1935472
  32.4227357  11.9558895  51.5088892  32.0771337  13.3776236  51.1213112
  31.4731741  21.7193961  46.5373325  31.9133472  22.3752546  45.9966564
  31.4645600  22.0997167  47.4156904  46.3469791   6.5558827  42.8132820
  46.5469503   5.6883305  43.1648445  45.7123184   6.3912523  42.1159029
  55.2819586  27.9740334  42.8946400  55.8063889  27.2456360  43.2272625
  55.9025431  28.6981940  42.8127575   8.0033873  54.3045187   7.4669731
   8.4873198  54.7965479   6.8036836   7.3616790  53.7982273   6.9688660
   2.6422158  22.2904921  58.4106922   2.5522935  22.8691220  57.6535034
   2.6141044  21.4075589  58.0420876  54.6612597   0.3802763  69.4137621
  55.0229073  -0.3487442  68.9098024  53.7986231   0.0736641  69.6931839
  64.2730951   5.2496248  43.1452513  63.9997578   4.7229531  43.8963413
  64.6337271   4.6148759  42.5261641  76.3674498  11.2635183  51.0008955
  75.4459620  11.0655463  51.1679125  76.8349934  10.8642328  51.7345238
  63.1972027  38.6832690   3.1581870  63.5688114  37.9805565   3.6914200
  63.7905502  39.4228387   3.2893744  52.5073242  36.8820095  39.1184163
  53.4455299  36.9718885  38.9513159  52.4560165  36.3872290  39.9362135
  73.3619539  12.5120995  69.3920681  74.0662114  12.8934071  68.8678022
  73.8120405  11.9675324  70.0379030  37.7324343  30.7522202   3.9684799
  37.3341060  31.1259031   4.7545639  37.8210759  29.8196292   4.1650748
  25.0563374  79.8825761  34.4163275  24.2479983  80.1608575  34.8468852
  25.7506028  80.3368687  34.8936605  65.8457071  76.7990856  62.4631748
  66.3915188  76.4409880  63.1632391  65.0909573  76.2116985  62.4236760
  25.1621079  13.4452009  50.0250435  24.7480011  13.4835720  49.1629076
  24.7379899  14.1421223  50.5256987  67.0948458  28.3012056  28.6904573
  67.5064373  27.9574370  27.8975844  66.1556196  28.2570195  28.5112000
  48.5783768  14.2835438  32.8519678  48.7809038  13.3654785  32.6720524
  47.6242065  14.3086886  32.9238391  67.1898556  41.9167280   6.3966286
  66.4326334  41.8068838   6.9717675  66.8414831  41.7869616   5.5145681
  29.3586187  59.4691792   8.6839667  29.1407123  58.5498681   8.5302916
  30.1283279  59.6274796   8.1374159  70.2339363  11.9053578  31.8862844
  69.7744179  12.5908720  31.4013648  69.5561790  11.4983451  32.4259353
  65.6718493  18.3646619  29.7009444  65.7235861  17.4343753  29.9203086
  64.8908091  18.6756027  30.1586843  72.9071648  77.1416907  60.1752147
  72.2158892  76.7962770  59.6103594  72.5421554  77.9510765  60.5328396
  40.5755234  11.9059670  41.9591618  41.5031767  12.1358442  42.0124674
  40.1156473  12.7040970  42.2194290   6.2868261  22.7897596  10.9890604
   5.5357146  22.2900605  11.3090050   5.9445071  23.6723423  10.8473015
  53.3074903  26.9508958  41.0709143  53.8797235  27.3837686  41.7044830
  53.8793707  26.7492962  40.3302813  31.8727112  27.7795815  19.0609860
  32.1963477  28.4571099  18.4673142  32.2384429  28.0139041  19.9139595
  55.1897001  16.4103878  22.6765013  55.2551794  17.0978761  22.0137000
  54.3807554  16.6087270  23.1482053  48.4355831  34.1906261  38.1404614
  48.1100798  33.3906364  37.7277923  48.8531399  33.8907909  38.9479136
  59.5576525  46.2800837  20.4681683  58.7676907  45.8292341  20.1699662
  60.2775145  45.7223940  20.1731777  14.9696708   4.2381507  28.9557481
  14.4468212   4.7015709  28.3014512  15.8628058   4.5523530  28.8149738
  48.4360027   9.1181147  24.3072486  48.9319563   8.3452022  24.0373135
  47.9478502   8.8318795  25.0792646   5.9528041  40.0148773  31.9477153
   6.6906327  40.3471899  32.4589944   6.1615562  39.0929055  31.7973089
  64.4662714  50.9305954  52.9770136  65.0746870  51.6279125  52.7324533
  64.7090054  50.1935053  52.4166536  42.9312992  31.0061622  12.0886374
  43.0216789  31.6594100  11.3948572  43.3126831  31.4230371  12.8612924
  55.0065327  67.3183393   5.9526151  54.5309019  68.0341196   5.5311173
  55.0457096  67.5677729   6.8759125  80.6948280  62.2690058  65.7782125
  80.2758789  61.4470673  65.5230188  80.1735210  62.9470825  65.3484726
  41.2687635  55.1896429   8.8597941  41.6831684  54.4000196   8.5119462
  40.7203293  55.5080175   8.1427920  63.8650370  79.4078922  35.3061032
  64.3341923  78.5740280  35.2777576  64.3211126  79.9166393  35.9764791
  52.1870947  51.3585377  56.2302923  52.5187397  50.9486151  55.4314137
  51.9054222  50.6248856  56.7767811  79.8066521  36.2528443  30.7378554
  79.2447233  35.5047059  30.9397316  80.0019169  36.1609793  29.8052979
  50.1056767  39.1559172  25.9815192  50.3106403  39.3599939  26.8939757
  50.7504463  39.6497893  25.4749703  59.8829222  47.2511196  34.3029141
  59.0102911  47.0992041  34.6657705  59.7368526  47.3528719  33.3624125
  55.0722018   9.5278714  26.3590202  55.6615439  10.2270625  26.0760889
  54.7083273   9.1776488  25.5458984  69.8227787  59.0834141  38.6557555
  69.5316887  59.9848890  38.5185242  70.2283669  58.8336706  37.8254795
  47.1793890  52.9060555  35.2129483  46.6543198  52.2499657  35.6712937
  47.3601055  53.5733604  35.8749747  63.3189249  52.4195766  35.1267409
  62.7190065  51.6828632  35.0102067  62.9139423  52.9522943  35.8111668
  62.0057201  64.8787069   7.5146353  62.2319269  65.7802534   7.2860038
  62.7658558  64.5565224   7.9990149  64.7225332  71.5149069  51.4575672
  65.4967403  71.5834236  52.0162630  64.7963142  72.2544003  50.8542919
  46.6410685  65.6656837  60.8507156  46.7659569  65.5104685  59.9144745
  45.9436512  65.0604916  61.1028862  58.5412247  71.5097909  57.4943254
  58.4260995  70.8452539  56.8150840  58.9528019  72.2460298  57.0417902
  69.7658977   2.8119605  30.7295704  70.7001981   2.6977580  30.9035635
  69.4215021   3.2156699  31.5262127  73.0052090  69.1798544  15.2968335
  73.1021976  68.2663488  15.0278950  73.4785843  69.6773863  14.6300447
  54.5666027  34.6197319  22.1983814  53.8284588  35.1235509  21.8555331
  55.2809238  35.2538157  22.2609520  60.4771233  63.9748478  29.9523139
  60.1666117  63.1446743  30.3137374  59.6787262  64.4450998  29.7122002
  59.5384979  51.4216948  29.5426869  59.3148756  50.4961014  29.4452167
  59.9398518  51.6604090  28.7071252  37.3406267  62.9063034  40.6397295
  37.3139501  63.4823751  39.8757482  37.2802043  62.0230150  40.2758884
  17.7764034  65.6862545  10.6095695  18.1492531  66.5131855  10.9151947
  16.8872249  65.9111547  10.3356826  82.5751305  40.3402424  18.4150112
  82.7707005  40.5486393  17.5014710  82.4876785  41.1926079  18.8416922
  65.1636791  18.3451164  19.8493636  66.0145855  17.9067242  19.8495579
  65.3600550  19.2493415  20.0944090  59.6920538  54.3564606  35.5286264
  60.2467108  54.2092514  34.7625208  59.7398663  53.5364437  36.0200691
  74.0564919  63.8645983  29.7114849  73.7463427  64.5905685  30.2527833
  74.7165108  64.2569447  29.1399288  69.9343586  70.0538492  42.0435047
  69.1512012  69.5476437  41.8275213  70.2552938  70.3705072  41.1991358
  48.3898440   5.0057814  63.1865749  48.6857977   5.8382819  62.8183559
  47.6160040   4.7776482  62.6714448  68.1003046  57.6327848  10.0773966
  68.1781816  57.2654629   9.1969192  68.9008999  57.3569059  10.5236840
  39.2058539   9.2562920   8.2393110  38.9853144   9.7842568   9.0066743
  38.3867836   9.1941690   7.7478886  38.7518120  50.3835249   8.3212715
  38.7515283  49.5741606   7.8102291  39.4924259  50.2883816   8.9201605
  78.9038944  53.2370138  38.3047843  79.3729639  52.6795721  38.9256382
  79.5943451  53.6846542  37.8157783  49.5205498  57.9464674  28.4881067
  48.8626194  57.5282955  27.9326844  49.0395498  58.2091284  29.2728877
  66.7282200  63.8883305  62.9195118  66.8953514  64.6894836  63.4159565
  66.5812302  64.1886187  62.0226002  76.0590209  56.6256857  29.8383355
  75.3231336  56.3693619  29.2824578  75.7469119  57.3997355  30.3070188
  34.1772890  51.4513779  55.3933859  34.6226716  50.6984234  55.7818747
  34.5077276  52.2042227  55.8835554   7.9234131   1.3778441   5.3540832
   7.0846470   1.8255847   5.4647076   8.3813055   1.5188639   6.1827439
   0.6000327  66.6955614  24.4139504   0.9478949  66.0847044  23.7642765
   0.2040957  66.1353874  25.0815392  43.1876755  31.6988111   9.2516720
  43.6386967  32.1245337   8.5225827  43.7343740  30.9418535   9.4623131
  83.5093967  34.9756930  59.7882954  83.2033006  35.5064509  59.0528819
  83.2909576  34.0768216  59.5422325  34.4818344  23.7921927  52.6301572
  35.2265492  23.1908343  52.6318202  34.8299446  24.6055338  52.9955742
  68.6765718  54.6247959  33.9805007  69.2294168  55.3761339  33.7658143
  67.9007483  55.0075722  34.3901491  48.4607983  54.9032927   2.3143950
  48.0653620  55.7686615   2.4192554  48.2972240  54.6744823   1.3994512
  84.6120548  46.2318563  27.4813724  85.1866531  45.4675579  27.5251389
  83.8497257  45.9303999  26.9871855   9.8364552   4.4349520   2.5736317
   9.3538388   5.1138060   3.0453038   9.9659546   4.7980540   1.6974911
  59.7649193  56.8335342  63.6907005  59.9505949  56.3868380  64.5166683
  59.0254831  56.3524532  63.3191824  63.2504034  44.0414619  37.0575428
  63.9111042  44.5016670  37.5751495  63.1609440  44.5663643  36.2621164
  27.6132765  11.0401604  44.4729743  26.9734469  11.2465355  43.7916097
  28.0321494  10.2338574  44.1718898  54.1691923  55.0994921  38.3888674
  54.0872765  54.4037390  37.7366018  53.7170124  55.8476973  37.9990530
   5.2770575   2.4716323  19.7256064   4.3533333   2.5138896  19.4782543
   5.7200106   3.0397742  19.0953398  60.8312368  53.9401293  44.2173433
  60.6957340  54.6942902  43.6436605  61.0411310  54.3221140  45.0695562
  34.3274760  17.3684502  43.4459829  33.9790010  16.8078089  44.1391468
  34.5620966  16.7625213  42.7431059  49.9721813  64.2527199  27.2791147
  49.6893358  63.7536049  28.0453491  49.2585325  64.1499376  26.6495299
  49.2575359  60.3013039   3.9446604  49.3815231  59.7843075   3.1486857
  49.1988850  61.2055492   3.6362302  11.1504507  63.6562490  18.2383704
  11.9973600  64.0070248  18.5139334  11.2465918  63.5098028  17.2973382
  41.5504551  46.7237377  10.1169527  41.9589281  45.9732389  10.5483854
  40.6269264  46.4834929  10.0420260  56.1503458  77.4631310  22.3897290
  56.2091398  78.3486366  22.0310426  56.7861271  77.4518251  23.1051898
  59.6744967  48.8122988  19.1449559  58.7498379  49.0435457  19.0568292
  59.6874475  48.1274986  19.8136246   9.6661773  12.9786990  67.5792234
  10.4579368  12.9722426  68.1170953   9.3401184  12.0797703  67.6221575
  50.4214907  60.3236771  27.5947738  50.0978661  59.4427681  27.7831912
  50.9342527  60.5608273  28.3674741  51.5542364  62.7293062  48.0919075
  52.4737310  62.9893303  48.1480217  51.2038660  63.2435608  47.3645687
  33.9669004   1.5955489  34.6203184  34.0128938   1.1535209  35.4680920
  34.8806998   1.7034476  34.3565726  48.5497808  44.0220261  37.9646826
  49.4213104  44.1691160  38.3321476  48.6869049  43.3716297  37.2759056
  62.8276443  73.2280970  18.0335820  63.7413883  73.1748247  18.3136904
  62.8123093  73.9470768  17.4018645  36.3513064  63.1674957  46.4634037
  36.0997915  63.8412380  45.8316994  36.7833495  62.4948883  45.9369421
  44.0106383  13.9189217  69.0683642  43.9373293  14.8189518  69.3858646
  43.1116190  13.5902998  69.0702678  45.8800268  19.6748602  25.3787279
  45.8966732  19.3482423  24.4791293  46.0344601  20.6157851  25.2948093
  49.0339518  59.2564440  12.4187398  48.3007717  58.7022781  12.6862872
  48.8132286  60.1248026  12.7555895  44.2106709   3.0952781  33.8461637
  44.3380592   3.6671107  33.0891895  44.3134532   3.6727755  34.6025801
   8.4737690   6.2338393  29.0969372   8.8331374   7.0373195  28.7207627
   8.8699397   5.5304854  28.5825634  22.9100227  59.6235132  32.4410915
  23.6142564  59.0424776  32.7286363  22.8903341  60.3193569  33.0980897
  48.9002943  47.2145748  19.7671413  49.0168238  47.0807266  18.8265359
  48.2322216  46.5769577  20.0188446  46.9837189  16.7345011   3.4884414
  46.6471815  17.2049558   4.2511001  47.4182796  17.4074435   2.9644814
  15.4996546   4.0956729  43.4616804  14.7825201   3.5095446  43.7033367
  15.1961668   4.9654048  43.7218571  57.1640062  47.1325874  34.9078250
  56.6141701  46.4272594  34.5666146  57.0174074  47.1144009  35.8535576
  54.9041033  70.6089973  38.0766010  54.3921900  70.0092506  37.5339437
  55.5774498  70.0568771  38.4740925  52.9542971   3.6042270  12.8224325
  53.1015348   2.6695657  12.6776516  53.6625767   3.8702607  13.4087789
  44.4878626  54.0916967  17.3595190  45.0740528  53.4105396  17.0299184
  43.8966036  54.2729712  16.6289163  75.0678873  53.5110903  25.4835129
  75.1617050  52.8616047  24.7866607  74.2829609  54.0049982  25.2464962
  72.1617270  33.0591631   8.3655590  72.6174831  33.4557700   9.1080010
  71.9666529  32.1672201   8.6529851  35.3129435  78.9443350  27.3145533
  34.4997764  79.4470167  27.2665739  35.4778051  78.8444424  28.2521415
  47.7578783  58.6715078   7.2159624  48.6487436  58.3800459   7.0219570
  47.4355555  59.0248156   6.3867986  50.7787752  52.4711609  31.7587972
  50.1779842  51.8926430  32.2284722  51.6076660  52.3896122  32.2305179
  36.7381096  37.6151156  13.1817496  36.9676399  38.0267406  14.0148830
  36.8596172  36.6782665  13.3359623  36.6540051  69.4163704   6.7229342
  37.2666073  68.7097979   6.5187222  36.2184572  69.1310787   7.5261378
  37.7910161  44.8635721  16.7820060  37.5309181  45.7797956  16.8774831
  37.6682472  44.6754551  15.8515358  28.3929968  49.7177935  41.1554432
  27.6385665  49.1507244  41.3151312  28.8993812  49.6768427  41.9666910
  73.3029366  66.9032717  66.5971184  73.2525349  67.8583956  66.5594101
  73.3641195  66.7033434  67.5312042  50.9132957  68.2627153  36.3680816
  51.0642719  67.3206520  36.4452291  49.9671555  68.3630276  36.4728951
  55.2717543  56.6617155  54.8313951  54.3231821  56.5822315  54.9320269
  55.4202271  57.5969124  54.6914101  51.9351435  50.7177973  23.2809329
  51.9002485  50.1862669  24.0762234  52.8207254  51.0810137  23.2742715
  55.7560587  55.1480103  14.9702966  55.6969213  55.5085754  14.0855777
  56.0775995  55.8746052  15.5040622  35.9684038  65.3867245  19.5973134
  36.6407299  65.6230116  18.9582705  36.4415669  65.3112078  20.4259539
  56.4769602  45.9787655  31.5865278  56.0228443  45.7913065  32.4080300
  56.0636234  46.7785931  31.2614751  62.6932430  22.5513315  36.7599535
  62.2823572  22.1324062  36.0037065  63.0410719  23.3748937  36.4179134
  85.2754021  29.3724871  34.4973469  85.3739738  28.8457274  35.2904677
  85.1842308  30.2704668  34.8160172  53.8825893  64.9979258  20.4786348
  54.0327835  65.4377031  21.3154554  54.4214535  65.4824972  19.8532939
  84.0661318  67.8838424  64.1543249  84.8891527  67.4473195  63.9345304
  84.0384466  68.6472563  63.5775516  14.4560089   9.6696160  69.6633455
  14.1384497   9.5333836  68.7706928  15.2938214   9.2076180  69.6926374
  34.5844698  20.1977420  43.4682941  33.6691284  20.4648972  43.5520267
  34.5721436  19.2517471  43.6138058  52.1797752  57.1603203  39.2794657
  51.3243055  56.9134283  38.9281225  52.4489927  56.4073610  39.8055911
  55.6489897  58.8774157  36.0357094  54.7878408  58.7044430  36.4161539
  55.7342291  58.2330179  35.3330564  61.8766594  49.7125149  64.0057278
  62.5668287  49.0881157  63.7820673  61.0891294  49.1762590  64.0976858
  46.2745476  53.9980745  13.9245176  45.6510353  53.3100891  14.1571975
  46.2990189  53.9855385  12.9677129  69.1823530  77.2106266  55.5952835
  68.5394764  77.0273542  56.2803793  69.4528675  76.3470221  55.2834558
  73.1521082  63.8833618  16.3418424  73.3363914  63.0739927  16.8184900
  72.4663830  64.3120623  16.8539238  78.2036114  65.9749556  45.8395481
  77.6727962  65.1879215  45.9622049  77.7566004  66.4595985  45.1456213
  36.8346071  53.0518866  58.7534714  36.6639638  52.2291136  58.2950497
  37.5857949  53.4296179  58.2960176  36.1310595  11.8344374  13.5366574
  36.1333817  12.5411911  12.8911152  36.9532698  11.9437380  14.0144196
  25.3322077  56.7057085  42.1665621  24.7134924  56.2681532  41.5817833
  26.1118793  56.1507034  42.1489716   4.0018557  51.0715008  50.7638836
   4.3331431  50.8742046  51.6399860   4.1546630  52.0102215  50.6558180
  66.1396152  47.1701156  67.5887782  66.8402917  46.9666491  66.9691939
  66.4424354  46.8062805  68.4207370  12.0674687  70.2642183  67.0686275
  12.7082043  69.7418790  67.5511739  11.2314921  69.8268394  67.2301001
  75.1095135  74.8896889  60.2304778  74.1559202  74.8775153  60.3125862
  75.2737028  75.3642158  59.4155559  54.4909239  56.1403084  45.3274822
  54.1378975  56.1198854  44.4379950  54.3691015  55.2488184  45.6540442
  11.3612326   6.1748069  52.8371716  10.6475695   5.5495684  52.7107000
  10.9246548   6.9894164  53.0862427  20.9962487  55.8326483  16.2585998
  20.8080816  56.3363934  17.0504761  20.2723885  55.2097559  16.1933243
  40.1750040  61.6281939  29.0065503  40.3602266  61.5696335  29.9438310
  39.3583798  61.1419296  28.8929462  41.6245604  33.6875463  11.5251887
  42.0606804  34.2989039  12.1187127  40.8119297  34.1300845  11.2801981
  62.9663763  12.2710746  62.2996521  63.7709484  11.7605918  62.3907757
  63.2572898  13.1827109  62.3222303  12.6117038  37.9506254   1.7890720
  12.6301955  36.9943500   1.7512819  11.7845820  38.1571770   2.2243081
  59.7377491  63.0937243   6.9419366  60.5469990  63.4912205   7.2634131
  59.1485119  63.1065798   7.6961690  75.7439470  70.8714581  30.6634903
  75.6144953  70.0739002  30.1502919  76.4910984  70.6741667  31.2283611
  33.5953879  68.3666277  32.1743512  32.7675724  67.8891277  32.1200466
  33.8369083  68.5316944  31.2629509  54.7868299  65.5085421  11.5609980
  55.7406616  65.4749727  11.4880967  54.5973110  65.1092339  12.4100363
  67.9191446  28.6930060  14.1371036  68.4103060  29.4804335  13.9026999
  68.1068945  28.5613918  15.0664365  44.7307062  37.3536801  32.7939057
  44.5381212  36.8245745  33.5679793  44.1873455  38.1349897  32.8965998
  18.5888648  35.5761886  50.9567595  18.2680905  36.4640713  50.7986450
  19.5421219  35.6629252  50.9598684  50.2481174  62.7883816  57.4000263
  50.4894209  61.9451427  57.0166826  49.4155264  62.6212168  57.8417063
  35.5963755  55.2865267   3.1713644  35.2409029  54.5859432   2.6245070
  35.4573679  56.0835695   2.6598591  42.3934841  32.4157810  25.1108956
  42.0049143  32.1712184  24.2709947  42.0727539  31.7549753  25.7246542
  63.9820957  14.2236447  31.9006896  64.9033260  14.4409895  32.0432568
  63.9307737  13.9951563  30.9725761  30.0277233  59.6415997  17.6116836
  30.1479506  60.5739021  17.7922034  29.1226459  59.5711756  17.3081887
  17.0060118   1.6548198  55.9220839  17.7770480   2.0861762  56.2904215
  16.9121989   0.8525031  56.4356232  19.5146799  41.9709444  35.1697707
  19.1647434  41.6147614  35.9864163  18.7413013  42.2479200  34.6784425
  64.8321438  32.3588872  29.5677590  65.5541801  31.7981625  29.8514485
  64.5174503  31.9536853  28.7596679   4.5270666  69.6641350  42.9533625
   4.6225280  70.5280590  42.5524139   3.7266290  69.7289562  43.4742546
  45.1656046  27.0622609  65.3736988  45.4804221  26.1617777  65.2945918
  44.2236033  27.0014641  65.2150637  47.7644730   4.3861356  28.0219245
  48.6812925   4.3419668  28.2934546  47.7915096   4.7815382  27.1506286
  43.5962373  50.1555757  53.7183985  42.6532155  50.0264613  53.6170993
  43.8283997  50.7769959  53.0283460  37.8013587  56.6019487  19.3092954
  38.7265706  56.8431616  19.2642570  37.4991179  56.6413736  18.4019208
  55.2210999  72.6423073  54.6548748  54.5272827  71.9843054  54.6983147
  55.3833389  72.8799295  55.5678034  35.6750011  16.4551544  19.0128410
  35.4944324  15.5180991  19.0873611  36.5633321  16.5558326  19.3548405
  76.1902523  37.4745440  61.2471628  76.2667465  36.7090392  61.8167114
  76.9632959  37.4324751  60.6842613  57.5202370  67.2031832  48.2682943
  58.3900833  67.3123312  47.8839970  57.1473122  66.4517355  47.8073311
  83.3095932  66.1020470   1.2315901  82.5118446  66.2859058   0.7355835
  83.9659405  65.9022713   0.5641127  38.1698823  35.7399631  31.2023711
  37.8550315  36.6219044  31.4005566  37.7708197  35.5271173  30.3587627
  34.5114907   0.6310599  47.4174929  35.3291138   0.7963889  46.9480371
  34.0250023   1.4524691  47.3478413  45.9226990  51.3480186  24.5738626
  46.6908073  51.8693733  24.3405628  45.7449579  51.5782213  25.4858088
  80.2188587  55.4394245  25.4205632  80.2760601  54.4979668  25.5837107
  81.0342884  55.6539726  24.9674988  19.0600356   3.1597655  57.0207167
  18.7019499   3.1818812  57.9081392  19.8164662   3.7454264  57.0530128
  18.3608540   5.1479762   1.0492305  18.8556632   4.8596804   0.2822352
  19.0151127   5.2161639   1.7445903  41.7409134  59.8073053   9.8657829
  41.5194225  60.4529285  10.5368567  41.6422606  58.9623165  10.3045309
  71.4701986  52.0920897  11.6494977  72.0120668  52.6399660  11.0816574
  70.6781054  51.9269800  11.1380696  64.4931048  24.4579573   3.4964981
  64.0360945  25.2883740   3.6298695  64.4533365  24.0231867   4.3483343
  25.1226654  42.0025275  67.5394814  24.1995659  41.7778990  67.4225945
  25.2283421  42.0962451  68.4862030  50.5596003  11.1392634  16.7867136
  49.6648917  10.9407752  16.5104353  50.7021341  12.0430796  16.5056038
  35.0888515  76.8995237  43.7612009  35.7626247  77.5792646  43.7758350
  35.0775743  76.5542078  44.6538734  74.4486904  54.4216633  50.7877827
  74.3917179  55.1139545  51.4463568  75.3370476  54.0770388  50.8787823
  65.9768391  58.5192442  41.9950819  65.9435415  57.5714302  42.1245718
  65.2307749  58.7096548  41.4264393  65.5521870  75.6224632  23.0977392
  64.7647238  75.1974344  23.4375715  65.8518457  76.1804867  23.8154054
  45.6291676  64.9449873  41.3448048  44.9680376  65.1012135  42.0191431
  46.3647509  65.5033064  41.5966463  81.7592335  32.0656466  21.7790461
  81.9252968  31.3705301  21.1422825  81.3264465  32.7543330  21.2744236
  14.2019757   9.9572318  46.3748550  14.4014557  10.8552592  46.6393900
  13.4576138   9.7061770  46.9217825   8.7783724  68.7672281  12.9950047
   8.9713335  68.0708027  12.3673224   8.5471070  68.3058023  13.8011253
  41.4981461  66.6332102  24.5972323  41.9124031  66.9317579  23.7876081
  41.6243649  65.6843710  24.5951009  50.8833504  66.5856934  42.0190048
  51.0487461  66.5031719  41.0798216  50.8545065  65.6834316  42.3373127
  53.6915445  67.2690916  34.4374633  53.2885122  66.7241192  33.7615967
  54.6234226  67.0547819  34.3937826  63.3689690  51.5696859  30.3795242
  63.3587027  50.6475687  30.1229453  62.6954985  51.6374826  31.0563374
  58.9753819  36.7877889  19.4766402  58.5011768  37.1502066  20.2249789
  58.6641598  35.8850336  19.4102669  80.7149601  36.9940519   0.9910320
  81.6200352  37.1252847   1.2735882  80.5629158  36.0556054   1.1025381
  76.6661835   2.7172795  23.8747406  76.2723780   3.2858178  24.5364904
  77.6014948   2.7251470  24.0781331   3.6174392  70.8728218  39.5464921
   4.4720458  71.2396097  39.3198729   3.7017440  69.9373627  39.3619967
  15.6411894  21.1827891  35.5142021  14.8642786  20.7099002  35.2158475
  15.4149922  22.1067088  35.4072213   7.1695708  68.9229345  50.0697041
   6.8313025  69.8174143  50.0283670   6.5787124  68.4173870  49.5115519
  10.9673842   3.0704730  35.4630947  10.4076918   2.3549693  35.7648158
  11.7329558   2.6343100  35.0890708  39.7871447  76.9646454  33.4743619
  39.3006921  77.7872324  33.4200287  39.3503737  76.3863468  32.8490376
  77.7128744  64.9903297  18.2996237  77.2527695  64.2119503  18.6137259
  78.5365582  64.9947453  18.7872267  52.2442245  78.2851791   8.9254749
  52.0151329  78.7578392   9.7256857  52.7286434  77.5181150   9.2307413
  42.9634032   4.6494811  42.7630568  42.9870472   5.5689185  42.4979067
  43.8500723   4.4670337  43.0741310  85.5313835  23.7907069  43.2494116
  85.9366951  23.7342875  44.1147232  84.7240553  24.2839854  43.3947802
  73.5542545   5.9286921  48.4647322  73.8916263   5.4874652  49.2443037
  72.6445779   6.1340087  48.6805201   9.4769000  61.8321276  35.6106186
   9.3324756  61.0852289  36.1915779   9.4222068  61.4637709  34.7288275
  21.8907374  26.4669533   4.0962210  22.6845663  26.2892599   4.6006956
  21.2686699  25.7994433   4.3855181   4.8282796  57.5644732  13.4757662
   4.4247231  57.5846148  12.6080287   4.8551744  56.6357422  13.7059069
  41.9916534  71.8358850  41.4699554  41.4061546  71.1485004  41.7876434
  42.1170378  71.6340685  40.5427122  57.4464426   6.9605201  24.5900893
  56.7334518   7.2034877  23.9994597  58.2270321   6.9608729  24.0360904
   6.9494494  19.2089312  45.3153515   7.5322731  19.9322264  45.0842857
   6.3341721  19.1541522  44.5841408  34.2570615  37.0103836   2.5579268
  33.5282254  37.2930074   2.0055191  35.0138164  37.4887681   2.2192523
  44.9052763  66.1858511  10.7393217  44.6452045  65.9915924  11.6397989
  44.2722034  66.8397760  10.4429507  41.0837364  52.1269035  48.7066507
  41.5359259  52.9416895  48.9254713  41.5641165  51.7809296  47.9544783
  59.9134216  79.1894772   7.3923102  59.3856010  79.9837472   7.3100414
  60.8104477  79.5075157   7.4944248  61.1175823  62.0469713  34.6978068
  61.7123747  61.3827562  35.0460577  61.5603924  62.8782177  34.8686266
  13.5216530  57.3391860  55.7670927  14.3712576  57.6760810  56.0515356
  13.6629065  57.0683902  54.8599291  58.8509607  55.8788538  37.6777363
  58.8952112  55.3322601  36.8931913  58.3051157  55.3807783  38.2861805
  40.8677586   4.7281878  61.3352966  41.2878140   5.5190223  60.9971237
  40.2508744   5.0475638  61.9938469  54.9107838  48.3167601  32.9564548
  54.5274782  48.0162573  32.1324372  54.4855309  47.7825689  33.6273003
  63.9095926   7.6182193  23.8653708  63.9494181   6.6629159  23.9105535
  63.5861683   7.8854162  24.7257400   6.5334883  79.8313735  60.0116435
   6.1163822  79.1676924  60.5609939   6.7028895  80.5623171  60.6059966
  23.9470553  75.9510565  57.6651859  24.7906423  75.9202719  57.2139168
  23.4098840  76.5345383  57.1292496   9.7030743  15.8322757   3.7229845
  10.2827366  15.6548732   2.9822090   9.3559321  14.9740832   3.9663541
  43.6093044  53.4339762   7.6590329  43.9369965  53.6723661   6.7918432
  44.3893003  53.1646156   8.1440985  59.7605467  76.5839338  51.7136192
  59.4688940  75.6761503  51.7978716  58.9913130  77.1049929  51.9438648
  48.2360411  63.5111523  54.4762039  47.4585724  63.9274693  54.8482943
  47.9008150  62.7339602  54.0291834  56.6308689  55.8228159   9.3696260
  57.1035433  55.1677179   8.8561499  55.7760000  55.8894253   8.9441919
  69.1521978  37.6081610  28.6686230  69.6300554  37.7238512  27.8473425
  69.8301268  37.4078608  29.3140078   6.1311825   5.3808539  30.1971054
   7.0677813   5.3722518  29.9997520   6.0856875   5.2758735  31.1474419
  59.1982269  79.3014145  27.6880407  58.6660767  78.8573456  27.0278549
  58.5616636  79.6690989  28.3010936   2.4773597  74.9975014  19.2319524
   2.5916766  74.2018318  18.7122667   3.1566714  74.9441624  19.9042022
  50.5047178  58.4135771  54.3044281  51.0545063  58.5134172  53.5272551
  50.1679468  59.2933464  54.4742060  60.4920435  22.6416111  21.2778878
  60.5059290  23.0069852  22.1625018  61.0463047  23.2311392  20.7665324
  79.8813009  79.7008657  18.9019310  79.7605038  79.4152880  17.9963458
  80.4216862  79.0175295  19.2985046  37.3517585  62.8519487  25.6791043
  37.7999759  62.6296473  24.8630691  36.9915080  62.0208740  25.9885740
   7.1602916  54.9045753  22.8770709   7.3635005  55.8122158  22.6509762
   6.7673682  54.5421600  22.0830297  64.6119032   3.9540046  25.1706600
  63.7682972   4.4055884  25.1958084  64.6094355   3.3983176  25.9500432
  73.2979250  17.8357899   6.7411000  73.1210947  16.9225955   6.9670165
  74.0944481  17.8015530   6.2113720  17.6999607  44.5163653  68.6333999
  18.4962359  44.3879054  68.1179636  17.3464051  45.3503916  68.3241353
  47.5361300  70.5067825  30.3116846  47.5798893  70.0294876  29.4831276
  48.4354496  70.7933998  30.4707766  62.5708771  66.3346577   1.2886068
  63.4701824  66.2425184   0.9739786  62.6600552  66.4738035   2.2314313
  44.3017673  69.1060925  28.0580068  45.1604939  69.3668604  28.3908987
  44.4639111  68.2842731  27.5948095  73.0308819  49.8232412  14.3004167
  72.0749807  49.8324299  14.3494225  73.2280493  50.1209116  13.4123003
  66.6967869  60.3905821  28.4797430  66.4028263  59.7072029  29.0820837
  67.6039934  60.1597214  28.2799530  66.0617122   6.5734332  18.2182026
  65.7658014   5.6694358  18.1111777  66.1122737   6.6982978  19.1658759
  74.3025646   4.8672049  50.8585882  74.5360479   4.8120539  51.7852354
  74.1615114   3.9585727  50.5926418  19.4231471   4.8589843  37.3168850
  18.6171206   4.8102801  37.8308702  19.4009694   4.0792315  36.7621636
  43.5006618  76.1144543  25.1033211  44.4503069  76.1127901  25.2233434
  43.2849455  75.2072096  24.8874378  63.3569717  73.3373070  23.2427669
  63.4765339  73.1959867  22.3036361  63.5941744  72.5007629  23.6429691
  53.3118057  60.2827883  55.9551001  52.4138451  60.5590534  56.1383486
  53.8373375  60.7141829  56.6288567  28.4011483  32.2862148   9.4055307
  27.9119873  31.7087507   9.9916077  28.2363153  33.1662989   9.7439289
  51.6539431  56.5949917  29.9734664  50.8855820  56.1676931  30.3519702
  51.3992643  56.7907619  29.0717769  71.0639620  80.4709244  40.6893444
  70.7371092  79.9864674  41.4474344  71.7556000  81.0304165  41.0426760
  51.6841879  35.1587365  67.4516243  51.7808237  35.8485148  66.7950461
  50.7482663  35.1482842  67.6520647  71.0588598  37.4544191   9.9350703
  71.1641979  37.2279572   9.0110296  71.9242525  37.7600789  10.2069187
  61.3584471  50.6164217  39.6814585  60.7831335  51.2293434  40.1392508
  62.2430801  50.9079409  39.9020839  63.4949350  50.5861902  66.1732006
  62.9416943  50.3894281  65.4172611  63.6666822  49.7334862  66.5727329
  50.4070633  28.0737515   7.7103987  50.7845896  28.0932732   6.8310061
  51.0177534  27.5426359   8.2214823  72.8423738  43.8027906  41.2403154
  73.7517262  43.5417175  41.3857603  72.8948259  44.7261381  40.9935141
  69.3198776  63.0248880  34.3099213  69.3605089  63.4877539  35.1467800
  68.4137917  63.1322336  34.0205860  51.2985373  75.8134794  32.9474425
  50.6349897  75.3949308  33.4958529  50.7969570  76.3306713  32.3172331
  37.5939822  74.1905785  29.9285793  37.7186060  73.6249924  29.1664696
  37.6326847  75.0796127  29.5759487  68.6209783  15.6419223  36.9913006
  68.8150415  15.9675067  37.8702569  68.5025224  14.6990149  37.1058917
  54.1394234  53.1450701  25.5196619  54.7564936  52.9155588  24.8248410
  54.6813917  53.5486031  26.1976480  75.0920677  66.8417501   8.3543032
  74.5737743  67.4652958   7.8455842  74.9318790  67.0848608   9.2661524
  64.9245691  66.6743517  27.0357275  64.4779301  66.1247778  26.3917422
  65.6590748  66.1402273  27.3381305  57.3517561  62.4340725  56.1044931
  56.9209480  63.0804491  56.6638088  57.5366116  61.6979265  56.6877127
  46.9222546  67.6252222  45.2439547  46.8790531  68.5049820  44.8692703
  47.2790098  67.7563000  46.1224651  61.1974955  57.4981403  66.9060707
  61.8358231  58.1849527  67.0985699  61.6549969  56.6822290  67.1090841
  65.0391817  40.9679127   7.6673585  64.9467230  40.5011606   8.4979165
  64.1550159  40.9821796   7.3009181  77.3116589  35.8649421  43.4811783
  78.2686758  35.8463478  43.4797239  77.0771646  36.1933827  42.6132107
   1.0211247  10.8343621   9.3791332   0.4444497  11.5938015   9.2958966
   0.6584280  10.1903982   8.7708655  58.1290197  62.6043606  12.4423087
  58.8348198  62.4481249  11.8148804  57.5321579  63.1991386  11.9881868
  45.7771111  62.8428316  16.5227997  45.0327969  63.2286644  16.0608935
  46.2569761  63.5934401  16.8728662  67.6582336  73.0634260  20.8756757
  67.8624105  73.9277363  21.2327600  68.4051228  72.8533316  20.3150988
  46.7880106  42.1162891  12.9195797  46.8606472  43.0581522  13.0739999
  47.1612787  41.7153931  13.7045550  21.0869828  23.5175440  44.7480449
  20.9122696  23.6483834  45.6800256  20.6227103  22.7098057  44.5284138
  72.1218014  79.1618109  61.4344788  73.0321932  79.2988110  61.6964960
  71.7068815  80.0160122  61.5545273  40.6122208  65.1394367  30.3033471
  40.1272631  64.5750809  29.7012258  41.4225674  65.3461504  29.8376894
  83.6797428  67.8626728  51.7196941  83.2355595  68.6561537  51.4208317
  82.9709816  67.2458601  51.9025421  84.0989017  38.0202866  39.9812245
  84.7920704  38.4503484  39.4804215  83.3739471  38.6452508  39.9722719
  25.2300947  28.7288590   3.6581555  24.7904413  28.7921114   2.8102532
  25.9166687  29.3948622   3.6222162   6.8278988  23.7204306  32.6838756
   6.3979825  24.0378325  31.8897319   6.3918074  22.8905051  32.8769398
  75.7723245   5.0103133  43.7872219  75.2386293   5.7284777  43.4471655
  76.4863023   4.9226516  43.1557322  76.3694009   9.9023288  48.3385611
  77.0855341   9.2756980  48.2350063  76.4942131  10.2659743  49.2151546
  19.5154893  78.7749243  25.5730987  20.0906944  79.2795706  26.1481643
  18.7685704  78.5430670  26.1249924  60.4257202  68.7022686  12.8999555
  61.2028742  68.2165766  12.6236141  60.5873394  69.5992708  12.6075506
  84.3913269  72.6156807  38.0477381  83.8070488  73.1437349  38.5918021
  85.2321815  72.6414156  38.5043907  48.0008459  41.8827677  27.1984339
  48.9526892  41.8939877  27.0979476  47.7316809  42.7859879  27.0311737
  26.6580558  56.7096138  23.8369513  26.3653421  57.6157570  23.9341593
  26.0663056  56.3354778  23.1841969  34.9804783  66.9859600  51.6223049
  34.4008827  66.7539120  52.3478746  35.2867866  67.8679895  51.8331051
  67.8990793  60.8061504  48.2032824  68.5424614  60.3619576  48.7555361
  67.9626083  60.3626490  47.3574114  60.5303621  16.6722834  10.5756652
  60.7568789  17.1038604  11.3994765  60.6918812  17.3360860   9.9052101
  16.1713231  78.5212946  26.0023618  16.0230422  77.6096296  26.2535930
  15.5934429  78.6599779  25.2519917  25.9786614   0.4213660  68.8644505
  25.1911171  -0.1166684  68.9452410  25.6701001   1.3183635  68.9925766
  38.3041549  31.0713911  18.7842822  38.9393353  30.3940606  19.0166605
  37.4770713  30.6000090  18.6844683  29.6959313  27.5328105  39.6891522
  30.5112084  27.3454421  39.2239189  29.3772801  26.6747229  39.9691153
  72.5687209  57.3948119  65.1235253  72.1114531  56.8152163  65.7327971
  72.9165450  56.8090746  64.4510946  51.1349678  68.1027365  44.1212320
  51.3904905  67.4938631  44.8142052  50.9689522  67.5447941  43.3613825
  21.6996582   8.9698928  39.2908430  21.2704476   8.6303561  40.0761604
  21.1905297   8.6094706  38.5648155  31.8220997  32.9409528  20.3279066
  30.9243798  32.7407146  20.5929279  31.7271495  33.5944295  19.6349525
   5.4847239  53.4024334  45.3938007   5.0738143  52.5379562  45.4016113
   6.3542937  53.2509613  45.0234985   3.9303222  15.4759953  65.6276682
   4.3612686  16.2407229  65.2459559   3.0296889  15.5236838  65.3070221
  76.3466120  78.0992842  39.7604704  75.4665804  77.7231598  39.7427487
  76.4441967  78.5207272  38.9066029  74.3969259   2.8886836  45.0643015
  73.9725456   2.4183791  44.3466997  75.1480445   3.3200400  44.6568823
  40.5227375  55.4963923  17.2229707  40.6811905  56.0216379  16.4385986
  40.3752327  56.1397028  17.9162443  84.6640682  28.2231212  37.0434451
  83.7825012  28.5925102  37.0948219  85.1681995  28.7155247  37.6912212
  80.8989343   7.5822013  40.5097723  80.3658590   7.0133441  39.9543810
  80.4099617   8.4041064  40.5500603  72.1216297  71.9387722  37.6488781
  71.8083096  72.8197622  37.4441195  72.8119040  71.7747021  37.0063567
  28.7492695  16.4851830  63.8928637  28.5477724  16.7547534  62.9967818
  29.1261998  17.2658083  64.2987910  45.9676266  64.5550489  66.6323328
  45.0257921  64.5192766  66.4653111  46.1903811  65.4823446  66.5502787
  33.7725869  33.6935637  61.6534576  33.6705962  34.0473053  60.7698867
  33.0298272  33.0994103  61.7607978  66.2331104  64.8693323  16.1281872
  65.4109716  65.2284956  16.4618337  66.2729216  63.9846516  16.4914918
  54.7762346  67.9289484  48.4179354  55.7084703  67.8456926  48.6185217
  54.6681595  67.4680853  47.5859737  53.8248062  74.0352106  16.8846560
  54.1795206  73.6011171  17.6605237  54.5283604  74.6142483  16.5914786
   2.4942492  34.9022365  44.3850851   3.2336902  35.4635596  44.6182585
   1.9326972  35.4580164  43.8447142   1.7713507  13.7025016  46.4170647
   2.2121438  13.6580603  45.5685616   0.8516367  13.5264247  46.2187004
  80.6744576  60.4262066  23.1068969  80.6338310  59.4974089  23.3347535
  81.3268185  60.4730511  22.4079967  30.7776650   7.4198668  49.0973902
  31.0891350   6.5340083  49.2830658  30.1989277   7.3168414  48.3419514
  10.4957407  54.2661686   6.1596527   9.9381869  54.9653263   5.8182802
  10.9820359  53.9535637   5.3967514  66.1307630  14.6540015  46.7489147
  66.0527262  14.5694487  47.6991701  65.2922830  14.3395655  46.4108133
  76.1014700  72.9595947  16.0471916  76.2171936  72.0171118  16.1678863
  76.4160204  73.3461237  16.8644333  35.2403840   4.3893378  45.7303667
  35.9360226   4.0418284  45.1721907  34.4480427   4.3179362  45.1980782
  45.1234722  58.7981176  24.9167228  45.4040527  59.3176413  24.1633296
  45.0697136  57.9024506  24.5833755  10.0467485  11.5534754  14.7387066
   9.4224184  12.0162173  15.2975502  10.8640640  12.0418759  14.8371449
  85.0652122  42.3084974   9.3169886  85.3823090  42.0693493   8.4460741
  85.2067471  43.2535648   9.3722486   0.7635020  65.9900284  33.2108283
   1.3294982  66.2426424  32.4813962  -0.0826265  66.3881922  33.0064750
  22.3864403  23.9829276  50.3140065  23.3176413  23.8964484  50.5180034
  22.3075524  23.6638711  49.4150004  38.9127088  46.6717720   9.4866711
  38.5490608  47.1610880   8.7487274  38.4223604  45.8497429   9.4939089
  44.9958372  66.1248589  37.7158475  44.8218918  67.0629978  37.7924514
  45.7220507  65.9658957  38.3188200  39.0991982  38.4400027  27.1166921
  39.3109139  37.6591437  26.6051483  39.0545853  39.1447966  26.4705491
  57.6295853  44.1357088  41.9894886  56.8170881  44.5948696  41.7767668
  58.3005285  44.8183012  41.9779062  31.2336388  40.5381701  69.9284478
  31.5664616  39.9583075  69.2434513  31.3602295  41.4199469  69.5782031
  26.8405557  74.0678740  25.4726291  27.7370000  73.9802408  25.1486826
  26.6481781  73.2218170  25.8768606   1.0671893  62.9671282  14.6162069
   1.5909734  63.5650665  14.0829611   0.1882162  63.0188448  14.2407560
  31.8740606  61.3471889  25.9168601  32.0832968  60.5741024  25.3926563
  32.6629090  61.8875170  25.8722138  80.2992439  26.9107389  40.4143238
  80.8449936  26.5461087  41.1110544  80.8154392  27.6346803  40.0598049
  37.5589561  72.4994040  32.1773362  37.3582959  73.3276272  31.7414308
  36.7297959  72.0211554  32.1762872  70.6611300  29.6589184  19.8928082
  69.7216797  29.6524596  20.0761652  70.9948874  28.8726592  20.3248215
  44.6962738  38.9523435  24.9248719  45.5349302  38.4921861  24.8910594
  44.1168404  38.4356737  24.3649220  72.5291547  13.8786071  63.1069040
  72.8428516  13.8156359  64.0090466  71.7769632  14.4685881  63.1555128
  84.5687675  68.6720371  14.7187984  85.2819157  68.8610172  15.3286612
  83.8607121  69.2563820  14.9897802  51.2642336  39.3262076  13.5257649
  51.9053507  38.9425826  14.1241229  51.7876816  39.6681023  12.8009605
  77.1530277  76.7880754  52.5094971  76.7488939  77.5080185  52.0251522
  76.4979107  76.5409879  53.1621859  48.9413166  67.9237556  39.2835331
  48.8322306  68.1961203  38.3724093  49.7359276  67.3900747  39.2804837
  71.1387825  66.3413906  51.9947767  70.2117300  66.4235687  51.7710638
  71.6009140  66.5676498  51.1876392  83.6338052   4.7053473  57.6287746
  83.6991748   3.9443724  58.2057190  84.2866668   4.5459311  56.9471645
  68.6471701  34.9654913  20.2690601  69.4495106  34.7969127  20.7630849
  67.9888105  34.4081998  20.6840587  37.3270082  55.5763197  51.8697071
  37.5257206  56.4371014  52.2382116  36.4696264  55.6841612  51.4580011
  49.9196434  27.1622467   0.7722373  49.8197460  27.3225927  -0.1661342
  50.0395823  28.0324531   1.1524840  75.4741049  71.9243479  50.4773092
  75.5064774  72.0113611  49.5246220  76.0279608  71.1672115  50.6676245
  81.9313908  73.5206985  23.2133389  81.2554836  72.8533983  23.3320475
  81.7493248  73.8953638  22.3515320  49.8096648   9.9292777  69.7451580
  50.6193867   9.8153565  69.2475570  49.5424929   9.0392945  69.9748994
  53.6139584  41.8994141  15.2445960  54.2982817  42.3507833  15.7387578
  53.7355566  40.9741306  15.4574299  83.3288965   8.2351153  31.3378239
  82.9802761   7.7864497  32.1081471  83.2007990   7.6142638  30.6206298
   8.4617966  76.3007593  14.5448446   8.7346256  76.0199451  15.4183090
   9.1191530  75.9281397  13.9572489  44.4818752  37.2668953  18.3414688
  45.1609676  37.8515358  18.6780110  44.1767281  36.7862625  19.1109600
  46.6111517  78.8367891  55.3066683  47.1134090  78.2397985  54.7520828
  46.0270500  79.2924833  54.7005367  76.5389452  -0.1862580  36.4054108
  76.7895422   0.4841273  37.0410299  75.7415924   0.1543277  35.9998703
  56.0295725  61.8546438  53.7305546  56.0570145  62.6968431  53.2764864
  56.3996315  62.0361471  54.5944691  50.0012970  69.8851442  54.9251795
  49.4028187  70.5350208  54.5567799  49.8940086  69.9705839  55.8725023
  18.2741612  11.2161608  21.5595665  18.3685797  11.9668885  22.1458473
  18.3637159  11.5855713  20.6810799  26.9465836  23.3280223  40.5471230
  26.1695679  23.8676398  40.6930542  26.7005738  22.4614184  40.8707142
   0.9173678  68.6165428  60.4660702   0.9539889  67.6924610  60.7129812
   0.0407790  68.8994598  60.7264185  19.9191340   4.9206107  49.5143223
  19.2927464   4.9334090  48.7906456  19.3910845   5.1036876  50.2914190
   1.3905524  60.8774567  41.9454145   1.2623214  61.7666054  41.6149569
   1.9851207  60.9814644  42.6883221  49.0011215  78.0458689  19.9565411
  49.8054457  78.5647583  19.9497235  48.5231256  78.3550882  20.7260489
   4.6655368  54.0774393  37.1761680   4.0181350  54.0799952  37.8812218
   4.9913119  54.9770212  37.1468759  12.1517466  61.8153572  26.2374187
  11.9476985  61.4471149  27.0970678  11.4610862  61.4826155  25.6642652
  40.8927250  48.4624720  14.4227803  40.6465578  47.6683521  13.9484382
  41.2333965  48.1458473  15.2593923  84.0172005  34.8021865  29.2829990
  83.1520462  34.5935559  29.6354342  84.6265984  34.3241906  29.8454785
  36.9683027  73.1375933  60.4276991  37.3613715  73.1373692  59.5549297
  36.0252142  73.1610727  60.2656364  46.7332315  78.3139658  58.0259800
  46.4763355  77.3943377  57.9587650  46.7867374  78.6146212  57.1188021
  68.2207966  43.9014578  16.7772043  67.5125504  43.2741404  16.9224286
  67.9146624  44.4443750  16.0507393  71.9544840  74.5837784  34.4366813
  72.0611858  74.5140076  33.4880066  71.2692308  73.9497089  34.6479058
  71.7201814   2.5569003  56.0988188  71.5643367   3.4393637  55.7623434
  72.4194202   2.6663249  56.7432785  28.7225541   6.0957854  29.5700002
  29.0495690   6.8098872  30.1171327  29.2123230   5.3268855  29.8617935
  79.5138416   9.0544551  51.7341995  78.8046274   9.1390269  52.3714590
  79.1000995   8.6602824  50.9662914  51.0290098  70.8705425  46.6054964
  51.7018700  71.2695360  46.0538673  50.3022480  71.4931393  46.5849495
  67.4046659  68.6113596  41.5807056  67.1357918  67.7229404  41.8144751
  67.5455236  68.5778189  40.6345224  48.2428980  44.6402121  27.7894020
  47.4895668  45.0090027  28.2506180  48.6766815  45.3971577  27.3955846
  33.5183247  20.5650657  64.3162346  34.3274220  20.3301184  64.7705507
  33.4646996  19.9468653  63.5874081  51.2225628  53.6914635  63.9317751
  50.3145504  53.7294674  63.6312628  51.2891722  54.3908787  64.5818615
  61.2133703  31.2738746  13.6680472  61.4154062  30.3819888  13.9508080
  61.9118557  31.8087428  14.0452397  71.1066684   6.4960902  18.9305460
  71.4152965   6.7594092  18.0635726  70.1539335   6.5728514  18.8791418
  50.8982849  66.2463713  24.8705649  50.7609367  66.3208342  25.8149290
  50.9213924  65.3037977  24.7054768  37.4852847  76.5282249  13.2169354
  36.5979194  76.3203001  13.5094547  37.4973964  77.4829006  13.1485116
  80.8916530  47.5940936  51.6716623  80.5990944  46.9734137  52.3390484
  81.3139782  47.0498317  51.0070944  55.7921219  76.1818266  15.9058654
  56.5092850  76.7826223  15.7035089  55.0837421  76.7486191  16.2111080
  77.2051907  64.0170765  29.6256447  77.3605442  63.1583023  29.2324471
  77.8907156  64.1048336  30.2879024  76.3331795  63.8460732  45.3573275
  75.6647491  63.4458065  44.8012590  76.7281961  63.1099892  45.8246326
  61.8050814  71.3194036  14.7782481  62.4936438  71.3152599  15.4431522
  62.1928406  70.8670664  14.0290713  71.7453337  59.1217470  47.2081280
  72.5757980  59.1724968  47.6813984  71.9866943  58.8193083  46.3326216
  27.0812710  12.2116225   9.5856315  27.2633561  11.5072196  10.2076375
  27.8383645  12.2156184   8.9999461  68.5838852   1.8112414  43.4844494
  68.4068236   1.9742911  42.5580072  69.5387516   1.7810958  43.5441160
  58.8757753  79.0023041  47.5287390  58.3079863  79.5569801  46.9937801
  58.3235312  78.7307882  48.2619095   5.3299435   2.9506438  39.2855430
   5.8077486   3.7253421  39.5818114   4.4336756   3.0906623  39.5910454
  24.9599846  17.7682536  47.3200083  25.3307827  17.0102160  47.7718067
  24.5789727  17.4072402  46.5195513  82.2462940  59.6488905  60.6476164
  82.6050854  59.1724682  61.3963032  81.2973404  59.5844555  60.7551527
  61.0489878  18.8300746  35.7995629  60.5918989  18.3169883  35.1332021
  61.8376288  18.3232348  35.9929132  85.0299368  11.5873473  23.7778282
  84.6053800  12.4042647  24.0398026  85.9409103  11.6920893  24.0524054
  18.6446189  72.9317284   8.7275732  19.2630481  72.2019434   8.7620664
  18.1774806  72.8894567   9.5619774  11.2790053  79.4008465   8.6503449
  12.1822184  79.4621773   8.3394089  10.8245104  78.9046498   7.9695645
  79.8880482  61.7818975  20.1642585  79.0857172  61.2676239  20.2537775
  80.5411816  61.2964582  20.6682444  51.4995146  67.2438574  54.7795153
  50.8029604  66.6975451  55.1436424  51.1562014  68.1358624  54.8314571
  14.8162659  20.1025718  60.0300026  15.7686909  20.0804084  60.1228571
  14.4979104  19.4719642  60.6759167  60.9562588  75.8758974  27.4363208
  60.0584173  76.1791182  27.3015165  61.0170507  75.0710583  26.9217634
  16.9347611   7.2411225  57.8086207  16.2598267   7.3032973  57.1327278
  17.1772185   6.3152192  57.8205321  81.6309929  70.1590109  50.4577160
  81.8599319  70.7366037  49.7295618  81.0698605  70.6931877  51.0198689
   3.0711364  74.1923857  24.2494416   3.4876536  73.6472368  23.5819411
   2.1325492  74.0660429  24.1104126  47.2014284  64.0794277  44.5347261
  47.6195669  64.6038198  43.8517857  46.4861107  64.6291924  44.8545885
   6.5279540   3.0305140  50.8296919   7.0180853   2.6138537  50.1208878
   5.6131562   2.8166621  50.6462717  41.5187558   5.6280654  31.0842729
  41.3782795   5.2951091  31.9706345  41.8180951   4.8668521  30.5871081
  75.3746519   8.7051909   3.4155667  76.1614093   8.3087580   3.7898406
  74.7040281   8.0267184   3.4940770  84.9155426  31.0386491  51.0805750
  84.5686245  31.8937445  50.8262253  84.9175739  30.5301404  50.2696228
   5.4221686  35.0780814  41.9341803   4.8386963  35.8320372  42.0199251
   5.2326163  34.7262328  41.0644102  58.7909985  71.7153788  62.1750259
  58.2590961  71.8486786  61.3904619  58.9159870  72.5947189  62.5319099
  28.7780484   3.6980193  56.5482092  27.8558835   3.9054721  56.6992474
  28.7690552   2.8064196  56.2000465  70.7516956  71.5678501  12.4333048
  70.0951147  72.2542477  12.3150051  71.5849304  72.0374346  12.4712825
  47.8057623  43.0418921  22.1638680  48.2379961  43.4957600  21.4403963
  48.4955120  42.9197454  22.8162169  57.3359593  10.9614604  44.5626211
  58.0077275  10.2814906  44.5116711  57.6968869  11.6099017  45.1671839
  62.5026178  70.8279228   3.7198141  62.0631456  70.0952816   3.2881522
  63.4347296  70.6700373   3.5699201  66.3514853  80.4703903  29.6959281
  65.7485580  80.5712700  28.9593601  66.1998320  79.5787096  30.0091958
  11.1988696   5.8201258  26.0635042  10.8645972   4.9412196  26.2424731
  10.4766425   6.2654250  25.6204176  34.9732884   2.3027270  23.1974602
  35.4604252   3.0743735  23.4864092  34.1785820   2.6567786  22.7983165
   5.1333331  74.3927670   1.1031533   5.9691714  74.7983980   1.3335364
   5.3746699  73.6224079   0.5888217  69.6580601  53.9987516  48.2563353
  70.2426720  54.4905567  48.8330412  70.0622988  54.0664101  47.3913240
   1.9938858  13.3362716  14.1969872   1.4880331  12.8948729  14.8792720
   1.9355544  12.7529185  13.4403288  71.7929459  71.4334297  19.7807717
  72.1371317  72.1081734  19.1955459  70.8831310  71.6892862  19.9324358
  11.0989760  61.0569906   1.3363104  10.6551837  60.4570580   0.7368425
  10.6827067  61.9044256   1.1788222  26.0120591   1.5535682  43.1921482
  26.5878495   0.8479255  43.4866953  25.8431633   2.0696776  43.9803982
  19.9165877  31.4557498  46.0218811  19.0394696  31.7800181  46.2262011
  20.4463156  31.7042868  46.7794037  42.4972161   4.4004576  48.2977962
  41.7102917   4.5044368  47.7628422  43.1602295   4.9291747  47.8538275
  62.6507386   4.8754733  39.5554161  63.5110005   5.0694220  39.1831708
  62.1962937   4.3890040  38.8676214  34.6247776  20.0866549  53.4722233
  33.7748059  19.6468108  53.4900665  34.4759854  20.8741896  52.9488945
  61.1888742  74.5298862  24.5976734  61.6870165  74.0035248  23.9723468
  60.4323721  73.9867353  24.8188567  58.3974981  55.0066900  16.9411528
  58.3894014  55.9575510  16.8314910  58.4924316  54.6639013  16.0524929
   6.6282137  46.1878627  41.5296221   6.8053683  45.7898276  42.3819256
   6.2468108  45.4805320  41.0095787   8.2677268  65.4834366  40.4383135
   7.8206920  65.9695959  41.1311674   7.6790522  65.5429029  39.6858788
  41.6923817   2.7628272  37.1580243  41.6433438   2.0572322  36.5130711
  42.5588044   3.1478160  37.0264125  15.1804533  25.1833842  53.8554058
  14.8996296  24.2690632  53.8926301  14.3719807  25.6864188  53.9531431
  16.1021718  37.5707381  15.3620279  16.3190278  37.1730082  16.2052429
  15.1928051  37.3169558  15.2043021  73.4714517  10.8856242  59.7760439
  73.3074054  11.8230002  59.6728611  73.3580455  10.7243102  60.7127094
  84.3080148   8.7306350  47.7957153  83.8863001   8.4670394  46.9778490
  84.7745762   7.9475539  48.0878448  36.6455849   9.4475596   7.4029267
  36.0120018   9.3332618   6.6945922  36.7915734  10.3926890   7.4435025
  26.8310269  33.7122195  27.5555706  26.3532074  32.8831332  27.5787210
  26.7812832  34.0424578  28.4526205  76.3284359  19.2242282  31.9947100
  75.3891334  19.3756812  31.8897891  76.5259752  18.5132449  31.3850331
  64.0067587  35.5958503  29.0408874  63.7888107  36.0332530  28.2178354
  63.4760770  34.7992461  29.0366220  37.7203584  78.9698124   6.1702609
  37.3379683  79.1523790   5.3119612  37.6640868  78.0184984   6.2600869
  62.4837255  68.1772804  15.2173471  62.9814720  68.7929440  14.6793532
  61.9760799  67.6652050  14.5878172  81.6458425   8.9365523   1.6589582
  81.7683372   8.9317458   0.7096404  82.5289306   9.0386145   2.0138876
  53.1011343  72.3201466  49.1275454  53.7652874  71.7008448  49.4301987
  53.2756519  72.4201488  48.1917191  74.7973061  54.1483545  33.1004381
  75.1419878  53.5352755  32.4511600  73.9342594  54.3917370  32.7655602
   5.0205763  12.1382468  29.2938042   5.7996949  12.1538298  29.8496461
   5.1748856  11.4156287  28.6853170   8.6824378  42.9140513  29.7767615
   8.6814602  42.6409381  28.8593531   8.7234601  43.8697474  29.7421026
  21.1120375  10.6905024  44.2762041  21.5013941  10.4935401  45.1281643
  21.4911660  10.0412886  43.6837435  16.3244732  18.4081405  35.4483104
  15.9693392  19.2929404  35.3632569  17.1735009  18.5306304  35.8730268
  11.0917767  20.2290862  21.0327172  11.3545998  19.9101584  21.8961048
  11.8242272  20.7743686  20.7456398  56.7533159  71.8031454   9.5901114
  57.0611191  72.6325941   9.2247385  57.5516224  71.2970829   9.7412610
   6.3861178  68.8195372  22.3322415   6.2931441  68.0603981  22.9078221
   7.1774768  69.2597628  22.6423740   2.4096011  72.5770950  35.8989954
   3.1951140  73.0249500  35.5849314   2.4413680  71.7164755  35.4811978
  72.1702242  54.4616508  53.4506607  72.7814198  55.1801682  53.6131668
  71.3374567  54.7701883  53.8077736   9.7105702  19.5223086  18.4357119
   8.8899287  19.0927356  18.6770523  10.1334008  19.7180121  19.2718637
   9.4160756   3.7278693  20.3410411  10.1882037   3.3397715  19.9294353
   8.9450367   2.9837458  20.7160521  30.6594666  10.9993213  41.3308191
  30.7726963  10.1248782  41.7033243  31.0663708  11.5858405  41.9685173
  24.1522225   2.8428691  36.9505620  23.3589467   3.2148497  36.5651059
  24.6044453   3.5923236  37.3379111  36.0116394  23.4175914  26.4282274
  35.2312573  23.7776225  26.0067844  35.6706627  22.8095286  27.0841455
  44.0786656   7.7862113  24.3364358  44.5825013   6.9951194  24.5276141
  44.7211846   8.3986514  23.9782095  71.7548275  62.7013397  37.2765470
  72.5420332  62.1571064  37.2578573  71.9397545  63.4112024  36.6616297
  58.5739803  65.6017065  21.7786336  59.4432068  65.7133865  21.3936567
  58.4521008  64.6533728  21.8238568  58.3930922  42.3689890  27.5893497
  58.2458162  43.2999611  27.4225259  59.0482426  42.3513842  28.2869911
  72.8737602  16.4557975   0.6881789  72.2447786  15.7742636   0.4512694
  72.8154764  17.0933383  -0.0234210  16.8205412  22.6653712  41.1030531
  16.5828951  21.9063132  41.6355848  17.7774342  22.6809542  41.1217880
  59.2694759  39.7304893   7.9233980  59.3181181  38.7876630   7.7654576
  58.3505440  39.9516010   7.7720362  84.4154739  62.0759869  37.2057533
  83.6687279  62.1322727  37.8019333  84.0545082  61.6956091  36.4049768
  82.5264645  76.6136503  49.0501881  83.0347252  77.4238920  49.0878296
  82.9576111  76.0311890  49.6755505   8.9284380   6.2802069  20.1136947
   9.1844233   5.3705066  20.2658653   9.7543868   6.7639678  20.1097083
  18.7964018   0.1258509  43.4542418  19.3132313  -0.5050428  42.9531527
  18.9882668   0.9703200  43.0464458   1.3611945  20.6198924  33.0922079
   2.2518214  20.3826564  33.3505321   1.2995823  20.3554862  32.1743155
  34.9344729  75.6755638  62.7305460  35.7644748  75.3003550  62.4363661
  35.1053046  75.9607267  63.6281681  63.0900812  58.6190033  24.1729450
  62.3427677  59.0809011  24.5529485  63.5846090  59.2990589  23.7155604
  82.1634579  67.4480200  26.4905310  81.4167309  67.1465731  25.9730840
  82.7953529  67.7573586  25.8414912  72.9066181  52.0381880  52.4238110
  73.4355068  52.3621559  51.6947317  72.6414108  52.8271770  52.8964663
  82.8252888  50.3783083  50.6293440  81.9725227  49.9474955  50.5707979
  82.6933956  51.0857534  51.2605000  79.2180023  62.0682090  50.7947111
  79.8665437  62.5580161  50.2890205  79.1475973  62.5463813  51.6209269
   7.6724910  71.1384106  18.1327307   6.7525958  71.2805367  18.3559549
   7.6595210  70.8952999  17.2070074   1.0742005   7.2891372  43.2134342
   0.6141146   7.6285403  42.4457407   0.8794077   7.9190677  43.9073133
  75.7908297  78.0465078  15.9186590  75.0443506  78.2896519  15.3710485
  76.5096664  77.9171228  15.2999783  48.1521273  72.9533720  36.2487793
  47.3554325  73.4620571  36.3996053  48.8290691  73.4166098  36.7421246
  70.9815168  69.8397398  16.7501557  71.6504431  69.5557547  16.1271608
  71.3022661  69.5380592  17.6000643  65.3787374  55.2878141  27.5961494
  64.9456215  55.8766508  26.9781590  64.8485947  54.4910097  27.5794601
  83.3177853  54.5580864  26.8580174  84.1072655  54.9766588  27.2011614
  82.6471233  54.7344112  27.5178266  25.4966362   8.6495345  53.9146948
  24.8586567   8.2597297  54.5124197  26.2795170   8.7777083  54.4503260
   0.5920561   1.4088862  30.5408335   0.3562506   2.2926848  30.2588129
   1.5108546   1.4774363  30.8003378  28.0562639  64.8154163  14.6922171
  28.4197569  65.1929092  13.8912141  28.6061573  65.1656866  15.3930461
  46.6866970  44.0288591  18.8380492  46.9338989  44.6089077  19.5582342
  46.2226677  43.3063173  19.2609406  84.3898582  25.2820992  11.8616080
  83.7083912  24.7796202  11.4151227  84.5833588  24.7752261  12.6501977
  43.9801987  29.8879855  44.2477846  44.3323334  29.4904654  45.0441599
  43.7223919  30.7704203  44.5143795  18.2778748  24.0721553  29.0806985
  18.8994940  23.4122985  29.3879652  18.8106354  24.8541205  28.9360428
  34.0314778   6.2342303  10.1650155  34.0469368   6.4846938   9.2412931
  34.9440392   6.0353415  10.3745508   5.0457667  71.2205791   9.3647248
   4.3555163  70.8904600   8.7895721   5.6475448  70.4829216   9.4645178
  62.2875708  48.0942936   8.2921210  62.4622458  48.9834233   8.6006012
  61.4127081  48.1420346   7.9066839  69.7557440  23.8580201  53.4747598
  68.8460436  23.5761044  53.3788130  69.7004881  24.8043606  53.6074731
   2.9264506   9.8866694  25.9870577   3.8094862  10.0551551  26.3158274
   2.7017411  10.6733077  25.4901314   6.7113026  37.4792998  27.2509241
   7.0357283  38.2865470  27.6500916   5.7622393  37.5182288  27.3692226
  50.4063225  68.5288715  48.1235600  50.5728626  69.3824768  47.7237415
  50.4721880  68.6884356  49.0650702  70.2668524  70.7520628  25.2597570
  70.7636309  71.3181019  25.8505630  69.3856573  71.1258316  25.2545619
  42.6167813  38.3157895  66.8807543  41.8949786  37.6896212  66.8247405
  43.3743801  37.7863524  67.1297035  13.5540970   1.9013541  29.3367672
  14.1643437   2.6298182  29.2219687  13.9614686   1.3507407  30.0054264
   2.4201401  11.8431895  24.1760898   3.0948790  12.5217955  24.1971874
   2.4071463  11.5465586  23.2661033  18.1673201  36.1492579  28.7116122
  18.0297764  36.1400550  29.6588349  17.6140173  35.4409640  28.3823514
  51.5090570   7.1962302   1.7023160  51.7744002   7.3740523   0.7999845
  52.3122630   7.2987502   2.2127894  36.5474215  21.1569665  64.5122525
  36.1624613  22.0183585  64.6736172  36.2770787  20.9370015  63.6207572
  46.2434300   8.8564818  29.6493840  45.9755238   8.7398761  30.5608988
  45.5095490   8.5149710  29.1384816   3.9121064   9.6207946  35.8580947
   3.8693627   9.1688865  35.0153685   4.3960865   9.0219252  36.4267325
  31.2076950   5.4691023   4.4560641  31.7539811   5.6497550   3.6911023
  31.8303251   5.3624606   5.1752245  32.2776953  45.4077362  69.4814783
  31.5748639  46.0424183  69.3420558  33.0238909  45.7674800  69.0018863
  77.7023951  75.5472476  39.1768575  77.3461215  76.4242415  39.0347886
  77.0842234  74.9634785  38.7371850  82.1471674  34.2327057  42.0243225
  81.2123138  34.0342401  42.0781193  82.2379810  34.7417693  41.2188182
   7.9874283  33.8127208  10.1640642   7.3102832  33.9485908  10.8268213
   7.6792914  33.0613756   9.6573478  30.8876974   1.6315155  55.4225585
  31.8193049   1.6751365  55.6380508  30.6726590   2.5104551  55.1103852
  55.2979040  20.3739142  30.9229589  55.6604528  21.1889005  31.2702107
  55.4629803  20.4204202  29.9812484  13.9656484  22.6344728  16.6376746
  13.9746213  23.3294964  15.9795761  13.1920671  22.8189874  17.1703637
  75.0114233  24.8323052  40.8782253  74.8121530  25.7572632  40.7334003
  75.9384233  24.8214655  41.1165175  74.8121387  26.2919478  55.4781160
  74.3829948  25.8879118  54.7239122  75.3499586  26.9890706  55.1026151
  22.2791806  57.0704777  42.7248907  21.7646637  56.4041955  43.1804895
  23.1867781  56.8702371  42.9538059  27.2522953  47.2736369  62.7294526
  27.9610656  47.3354284  62.0890949  27.1485788  46.3343869  62.8820423
  28.5499549  60.1745844  14.0590799  27.9324198  59.4657993  13.8787878
  28.4345722  60.3615904  14.9907184  26.2955275  57.2263105  37.8004074
  26.9069281  57.9585583  37.8793454  25.5521431  57.5860889  37.3164940
  47.4122579  69.7010522  67.8398180  47.8084320  70.2807121  67.1892253
  47.1989543  70.2761202  68.5746859  48.9980895  47.3499326  60.0915113
  48.5729534  47.5020050  59.2474935  48.6359984  48.0237375  60.6669322
  24.5717645   7.9092366  44.0701818  25.0967216   8.0279684  44.8617315
  25.1910424   7.5787324  43.4194183  49.6404437  74.4201595  10.1200438
  49.3433402  73.9312936   9.3525988  48.8630382  74.4922245  10.6738305
  62.3992593  60.1866059  67.2578362  62.1024830  60.3929786  68.1441585
  63.3359558  60.3834443  67.2669819  25.5001235  19.6029472  35.4337573
  26.3436556  19.8603916  35.0617266  25.7111430  18.8869941  36.0330176
  61.6701118  73.5410483   3.3923554  60.7265053  73.5169674   3.5512862
  61.9847564  72.6869358   3.6885354  71.9261626  75.7266287  48.5046196
  72.0538441  75.2495540  47.6846647  71.8953613  75.0450505  49.1759872
  12.0726812  34.9246931  27.1045613  12.0973063  34.1336250  26.5661955
  11.3595295  35.4445577  26.7339015  26.9602060   7.3809117   0.0326786
  27.1104097   6.9141400   0.8547462  26.0073996   7.4339396  -0.0420037
  83.5389501  67.8685527  66.6781938  84.2397148  68.3939151  67.0644030
  83.8319618  67.6995997  65.7827440   2.4748613   2.9789531  19.7641993
   1.9088010   3.0031461  20.5357051   2.3768398   3.8447627  19.3679702
  80.8548895  69.2871661  24.1232562  81.7959086  69.4386167  24.0350556
  80.6159917  68.7989206  23.3353615  79.5382730  66.9493563  25.2054214
  78.7979929  66.8170078  24.6132231  79.7775022  67.8687162  25.0880408
  64.7719955   7.5196832  41.3357210  64.7735500   6.9611388  42.1130610
  65.1799583   8.3354431  41.6261292  73.6453156  74.5300371  43.0174780
  73.1396083  74.6197010  43.8252211  72.9853431  74.4264770  42.3319530
  23.2992172  22.3865223   8.6509061  23.9846802  23.0542254   8.6741841
  23.5931277  21.7646456   7.9852349  56.5709486  73.2671190   6.9067532
  57.4781313  73.1342734   7.1817243  56.2649813  74.0024413   7.4377078
  24.7813964   0.9067798  50.2383232  23.9626813   1.1431464  49.8023510
  25.4628587   1.3214532  49.7092772  77.5362269  69.6143384  42.1820068
  78.0178110  70.4263742  42.0241880  78.2150785  68.9433081  42.2535038
  66.0163967  66.5168316  11.8152428  66.8939672  66.3459427  11.4733374
  65.7747892  65.7094855  12.2691691  44.3361807  12.8835416   6.9968092
  45.0431538  13.3717346   6.5748078  43.9536524  13.5041070   7.6171339
  53.4342623  16.0812128  25.7072282  53.0772114  15.2104199  25.8817792
  52.6637411  16.6383648  25.5971789  82.2767670  30.2744913  19.3692553
  82.4409906  31.1460972  19.0092981  81.3959170  30.0527358  19.0673292
  52.2206068   0.6581430  -0.0949577  52.5024605   0.6846478   0.8194208
  51.7607689  -0.1770781  -0.1797328  30.9069276  26.9020152  51.5627193
  31.0823607  26.7933202  52.4974060  31.7218423  26.6404748  51.1340714
  50.6753117  46.6847025  64.7338054  50.7142431  47.5396661  64.3051413
  49.7537858  46.4314894  64.6799091  79.9678815  34.3621707   1.2559357
  79.1245438  34.2141581   1.6838443  80.3868629  33.5015726   1.2482313
  56.1507034  17.9221463  29.3328118  57.0756817  17.7647805  29.1433740
  55.9606552  18.7629223  28.9166307  75.1100714  52.6179747  61.6475216
  75.0157673  52.0768337  60.8636180  75.4772217  53.4418409  61.3270864
  49.3686390  38.1999898  10.8523452  49.8579216  38.2099485  11.6749859
  50.0023985  37.9008675  10.2003396  68.2801372  75.7298736  67.5214306
  69.0189583  75.3502397  67.0457739  67.5805599  75.0825052  67.4334662
  21.4335585  32.2321892  16.0567677  21.8244433  32.8302622  15.4197812
  21.9176197  32.3947811  16.8663859  11.0913360   9.4917297  10.3404987
  10.6412947  10.2832067  10.6358945  11.5956485   9.7736543   9.5773339
  14.7859430  19.3052232  29.3552923  15.3208029  18.5371327  29.1548109
  14.9342263  19.8990524  28.6193490  20.5403090  13.9776921  13.0984330
  20.6893182  13.5689068  13.9510298  21.3558364  13.8342786  12.6182449
  49.1589355  33.1940413  21.5959477  48.5150766  33.8392854  21.3038158
  48.7487602  32.3480630  21.4162040  49.8563280  78.0208335  31.6617560
  49.3724146  77.6801659  32.4140906  50.5269995  78.5864481  32.0445275
  19.9277735  40.1472855  24.6795511  20.1162720  40.1243925  23.7413740
  20.6316066  40.6781769  25.0523806  34.8088455  41.0680199  13.7576544
  34.4321895  40.4887533  14.4200861  34.8800683  40.5220652  12.9746521
   7.4786216  26.3495398  25.7605481   6.6258323  26.2554812  25.3361249
   7.3073345  26.9035411  26.5221095  58.6735201  22.1712804  15.2534759
  59.4963121  22.0461321  15.7263279  58.3873796  21.2851119  15.0319850
  64.7814608  15.6490993  54.0205622  64.3937111  14.8276746  54.3224621
  65.3597021  15.9176528  54.7345304  38.7578702  18.1004965  57.2777843
  38.3710384  17.2533715  57.4990749  39.0094233  18.4766090  58.1212807
  66.8193538  66.4958505  60.6102047  66.0534150  66.5697221  61.1795149
  66.7662246  65.6102209  60.2509424  29.2938757   6.8390793  16.1890948
  28.6650944   6.2183321  15.8209395  29.7338486   7.2149569  15.4266179
  66.0304529  52.0687251  67.3221825  65.4567177  51.6507916  66.6800058
  66.9081528  51.9849651  66.9495437  61.1259508  20.0956106  19.7862577
  60.3073883  19.7577643  20.1496434  61.1651993  21.0032749  20.0876451
  20.1896515  74.3344463  42.6824331  20.8182850  74.0102870  43.3273935
  20.6613627  75.0224502  42.2129965  20.5694938  26.5470695  38.2027936
  20.9102964  26.6549778  37.3148513  21.0619974  27.1788144  38.7267876
  20.2209520   1.1681400  36.3919878  19.3577695   1.5816718  36.3802099
  20.7628822   1.7291339  35.8371615  53.3582497  35.8596039  33.0457735
  52.6364422  36.3588142  33.4278917  53.0494595  35.6234169  32.1710753
  59.2317349  24.2087035  66.2135530  58.3389289  24.5011668  66.0302642
  59.3327147  24.3251292  67.1582643  65.8571959   2.5833860   3.7605336
  66.4297342   2.2147544   4.4332451  65.2375984   1.8812238   3.5622987
  36.2000265  62.6667089   7.9033488  36.4166727  62.6764769   8.8356578
  35.3442183  62.2400779   7.8607833  50.9260462  72.6382161   1.6933736
  51.2254695  72.0566727   0.9945282  51.2536780  72.2350270   2.4973187
  17.8179181  20.1658893  42.2158670  17.2376084  20.0612879  41.4618540
  18.5616028  19.5936358  42.0269442  23.2557511  32.1573949  23.7070227
  23.7712312  32.0862389  22.9036236  22.3477674  32.1953773  23.4064364
  74.7281686  76.3839806  54.7360754  75.2209250  75.9081061  55.4046345
  74.4195477  75.7043342  54.1368580  29.9981442  74.4386477   5.6150126
  30.2946034  73.9934839   6.4088476  29.2454234  74.9576432   5.8983558
  76.4516211  19.1210365   8.5067725  75.8976841  19.9016190   8.5155654
  76.1097479  18.5928512   7.7854025   7.9312992  12.7684677  12.7789378
   7.0829952  13.0401516  13.1293643   8.5656154  13.0611765  13.4333038
  58.5321903  21.6971445   5.4520643  57.8514528  22.2696424   5.0984037
  58.9937830  22.2402382   6.0909772  57.4689007  27.2923708  31.3018823
  57.0652866  27.2052574  30.4383183  58.2694006  26.7705560  31.2458658
  32.7202597  76.8691559  42.1434164  33.5155335  76.6211686  42.6148796
  32.0074549  76.5028621  42.6668358  13.1052446  10.9141207  26.3960028
  13.0721629  11.1855614  27.3133111  12.3145497  10.3888571  26.2729883
  61.3389301  24.1366816  23.5459495  62.1054459  23.9467859  24.0869021
  60.6437731  23.5927248  23.9162135  46.9361401  37.1320581   6.1869842
  46.0707521  37.4113011   5.8880568  46.9284248  37.2965360   7.1299154
  44.4686365   6.7862856  28.3914161  43.5877895   6.7872798  28.7660432
  44.6458960   5.8656001  28.1986737  37.7439952  19.2058253  32.3497391
  38.1093931  19.4623590  33.1964421  38.1195235  19.8292649  31.7280197
  82.0780055  63.3355148  14.0084612  82.4894039  63.3483345  14.8726475
  81.1605064  63.5502226  14.1767633  31.5134358   5.5083835  11.5186310
  32.2465920   5.8260226  10.9915447  30.9160042   5.1126003  10.8840740
  62.3130178  24.5657706   8.1998545  62.1082926  23.6988068   8.5501319
  62.9836464  24.9101520   8.7896782   6.7238932  68.4452705  57.5244353
   6.7986756  68.0666904  58.4004006   5.8893281  68.9138751  57.5364849
  81.4995766  23.0801749  13.0963516  81.3866234  22.1312261  13.0418742
  82.1631241  23.2038236  13.7750661  10.1034346  62.4869425   5.5658972
   9.3366661  61.9151289   5.6023127  10.7467499  61.9928653   5.0576985
  42.9861689  36.6343665  38.8660097  42.7109861  36.7849135  37.9616642
  43.9187336  36.4284825  38.8014770  78.0956597  15.9094715  51.2427139
  78.5695071  16.3973320  51.9162846  78.6262454  16.0145378  50.4529858
  79.4655124  60.8925326  33.1571889  79.5081250  61.0933978  32.2222733
  78.9173619  60.1095516  33.2092023  20.8826518  16.8851554  47.3946714
  21.2822509  16.7140853  48.2474804  21.2045836  17.7524638  47.1489716
  14.2222538  54.6041305   5.6103086  14.5551529  55.1378329   4.8888031
  14.8677197  54.7155530   6.3082987   0.8739796  67.0755405  13.2954776
   0.3187719  66.9880552  12.5206733   0.4814401  67.7939136  13.7915456
  44.1178799  34.0556598  27.3612070  44.6451473  34.8528528  27.4131942
  44.1676521  33.7951350  26.4414883   6.3103932  34.2621064  17.3214507
   6.1315626  35.0054312  16.7454982   7.2591323  34.2794061  17.4472547
  47.1270227  26.8654180  15.3224158  46.4605236  26.5485573  14.7128177
  47.5455761  26.0709357  15.6538379  67.7353668  31.0531235   0.4894936
  67.8282452  30.6421447  -0.3699833  67.3270798  30.3800178   1.0339776
  50.3722906  10.4617310  22.5064635  50.0779724  10.0518668  21.6930628
  49.6117783  10.4170895  23.0859971  38.1381583  10.4780138  42.1206808
  37.4643016  10.6352007  42.7820730  38.9407492  10.8262753  42.5089979
  43.5174561  48.2400465   3.7337622  43.2971716  47.3953152   4.1263571
  43.2554865  48.8850737   4.3906865  51.3318014  38.6132669  22.8199053
  51.1234808  37.6812768  22.7548623  50.4945564  39.0325332  23.0185747
  32.7368832  24.1187572  35.6258988  32.9547834  25.0306797  35.8186340
  32.4009585  24.1370201  34.7297645  13.5559874  51.9414286  38.3223328
  14.3370991  51.4086919  38.4716162  13.5938626  52.6170222  38.9993653
  32.6947045  24.5313144  32.8563976  32.4790382  25.4572487  32.9675841
  31.9274950  24.1570187  32.4233556  33.5380220  24.8246384  28.7206173
  34.1237807  24.5271921  29.4167829  33.7762117  25.7413983  28.5825849
  48.6387444  22.6053333  12.5224686  49.4438457  22.6036048  13.0401897
  48.2072258  21.7812037  12.7479351  17.9246366  31.9725418  23.8183236
  18.3708203  32.5317669  24.4542623  18.5952735  31.3520288  23.5329461
  23.7542152   1.3211095  30.7217741  23.7024951   0.9006662  31.5801334
  24.0190172   0.6194649  30.1269579  48.4637374  75.4712252  63.1293711
  48.4599156  74.5235781  62.9945347  48.4748918  75.5777673  64.0805576
  13.0678311  68.9528484  24.9205041  12.5035992  68.7938447  25.6772017
  13.1852141  69.9026913  24.9046421  34.8534608  16.5603828  57.9896402
  35.5900431  16.9485509  57.5174093  35.1877141  15.7214105  58.3068657
  81.9184399  10.3815925  23.8192201  81.1899185  10.9895921  23.6934280
  82.6861191  10.8594024  23.5052061  36.9959855  15.6779063  29.6309590
  36.2043762  15.8071232  30.1533484  36.6997647  15.1865792  28.8647461
  72.9830209  68.8117821  37.1580887  73.2694975  67.9555649  37.4759793
  73.4375958  69.4399936  37.7192855  11.5435534  39.6759177  66.5234423
  11.0093957  40.3856756  66.8800202  11.7216330  39.9403589  65.6208951
   5.6088081  80.0617049  27.0400023   5.6918755  80.8202293  27.6179051
   4.7475520  79.6976958  27.2448659  18.1846419  76.6746319  51.9009066
  17.2397366  76.5218777  51.9084597  18.2748928  77.6221908  52.0019960
  49.8955011  42.8031635  23.8355112  50.0818968  43.7324953  23.7019730
  50.3852272  42.5716400  24.6246839  20.7752743  59.2951638  46.3852072
  20.8855572  60.2330239  46.5416956  20.4844036  59.2367680  45.4751444
   6.1985201  32.1951389   1.8546452   5.4589903  32.7408648   1.5872282
   5.9525508  31.3099957   1.5858442  83.9109117  36.6137378  64.7459653
  84.0683491  36.7071827  63.8064370  83.1289226  36.0648157  64.8043484
  49.9247033  50.2518164  66.2252349  49.6491486  50.8054821  66.9558201
  49.1099173  50.0209503  65.7790766  43.9123917  36.8657207  36.0487270
  43.1989908  36.2962532  35.7606387  44.3631458  36.3611078  36.7257929
  36.3601160  26.0641026  28.0304670  35.9043503  25.3183413  27.6401448
  36.9427156  25.6743145  28.6822915  23.4407687  33.3773828  26.7209601
  22.5748205  32.9904199  26.8498993  23.6140895  33.2703471  25.7856894
  44.2798931  73.5721116  46.0921440  45.2105266  73.4910636  46.3009152
  44.1624004  74.4973783  45.8769498  15.3431454  78.0745133  21.2831235
  14.8758450  78.3853311  20.5077195  16.1860171  77.7685435  20.9481835
  15.4149795  27.6805997  41.8763781  15.4360771  26.8008280  42.2529268
  15.1740623  27.5432920  40.9602261  28.3670798  80.6027373  44.9663734
  28.9230576  80.3482070  44.2299414  28.5890236  79.9815177  45.6599569
   6.1651793  55.1086218   3.2165810   6.1442914  55.8779080   2.6473781
   6.0320273  55.4587466   4.0974414  69.3490696  11.4153743  39.1475272
  68.7654543  11.0825026  39.8293090  70.1979494  11.5035295  39.5809555
  51.1475992  26.1257339  37.7987742  52.0286942  25.7751441  37.6684189
  50.9927940  26.6760635  37.0310473  30.4899573   0.4339729  13.7395406
  30.5069351  -0.0183273  12.8961134  31.1247611  -0.0389040  14.2777264
  58.7668991   9.7298986  32.4023318  59.1241741  10.3225279  33.0636764
  59.5272493   9.4585508  31.8880630  10.7122579  70.1660533  17.0216322
   9.9142518  70.4978461  16.6101325  11.3277927  70.8976049  16.9749343
  23.3261323  33.1440568  17.7560687  23.1966376  34.0282631  18.0990589
  24.0960789  32.8170490  18.2213426  22.9567146  36.0981131   2.9757318
  23.3555508  36.9135356   3.2794538  22.9440546  35.5349064   3.7495989
  50.7062626   3.8466641   3.5774466  50.3420925   4.1597611   2.7494490
  50.1330280   3.1240115   3.8331926   5.9774143  31.9799948  11.3100624
   6.1294371  32.3834133  12.1646821   5.9173042  31.0427403  11.4949214
  79.5890028  55.0839011  67.6763337  80.0422604  55.8372144  67.2977776
  78.6598522  55.2722971  67.5443435  23.7252831  50.1127386  23.8289332
  23.6027503  49.8633385  24.7449112  24.6731472  50.0862169  23.6982203
  38.8390255  20.6479478  56.2976456  38.9604616  19.8474169  56.8081665
  38.9299059  20.3673816  55.3870106  42.3904133   9.5035011  19.3561625
  42.1557236   8.7130183  18.8700664  42.4691582   9.2116553  20.2643776
  45.7113520  79.5612394  30.3589463  44.8057679  79.8041514  30.1662207
  45.6620113  79.0960690  31.1940598  44.1535711  14.9273169  17.3427403
  44.6244669  14.2286682  17.7970314  44.8254538  15.5798125  17.1451128
  10.3295770  77.5924931  -0.0802942  10.4615345  78.4335368  -0.5178608
  10.6402960  77.7362100   0.8135914  80.3212039  61.6043598   7.7477741
  79.5987479  61.8860371   7.1865726  81.0793749  62.0911486   7.4245965
  64.3932629   7.7800465  55.1427937  64.7229195   7.1035302  55.7343054
  64.8855495   8.5660052  55.3797579  17.9807463  65.5901820  25.1455164
  17.6685706  65.8923347  25.9984422  17.1954432  65.5630989  24.5988917
  54.3600559  24.1105819  26.7384028  53.5202503  24.4971991  26.4904475
  54.5804071  23.5293794  26.0104728  55.9783792   1.0540576  22.2360659
  55.0615501   0.9710903  21.9738078  56.1823130   1.9799662  22.1043968
  15.0989142  76.9974701  38.7362790  14.6508065  76.6895259  39.5240617
  15.4874840  77.8336836  38.9931631  43.3656549  45.2656937   0.6649143
  43.0160952  46.1272287   0.8924879  43.4019709  45.2669764  -0.2915960
  83.3819310  67.7022476   8.7991971  83.6640755  67.0280380   8.1810826
  82.8107111  68.2737262   8.2860184  29.8178958   3.8604701  30.6698990
  30.2588748   3.7530866  31.5126538  30.1587485   3.1482804  30.1287580
  52.7271605  15.2187788  45.5790710  52.8271103  14.5671570  46.2730646
  52.4496794  14.7139132  44.8146439  41.6907072  28.7688637  23.3270931
  40.8603573  29.1792274  23.0855322  41.6021156  27.8606987  23.0379200
  51.4036179  29.8074389   1.0405171  51.0743523  30.5778384   0.5775927
  52.2496605  30.0833273   1.3931271  78.0088774  61.4839811  23.2925248
  78.6343519  60.9683687  22.7834463  78.4581462  61.6567225  24.1199017
  22.2852221  41.4936478  11.0421598  21.3796225  41.4840371  11.3520455
  22.2350827  41.8798978  10.1677871  41.8454123  29.0371990   2.9541826
  41.5441847  28.8874555   3.8503253  41.0444117  29.2015648   2.4565738
  36.8697405  18.7748241   9.7521615  37.4195981  19.5506930   9.6430099
  36.8813920  18.6035562  10.6938422   2.8590613  48.3866440  62.4777350
   1.9686299  48.7371193  62.4547097   3.0816394  48.2376133  61.5587780
  34.1919065  27.5581169  26.4702129  33.5225105  28.2063913  26.6890359
  34.6773481  27.4306083  27.2852707  81.6051165  68.0519015  32.9557800
  82.2970525  68.4899492  33.4513307  81.3775674  68.6718399  32.2628641
   9.2064482  30.7076025  40.8631277   8.4852201  31.0082960  41.4159822
   9.8668516  31.3967419  40.9351587  80.9026462  66.0943036  46.4761171
  81.4205725  65.9560518  45.6831012  79.9938089  66.0264616  46.1834750
  40.3260946  32.9081559  15.4355896  40.4410791  32.2191691  14.7811389
  40.7810020  33.6659288  15.0680649  62.2907416  49.1112120  42.8757858
  62.0479868  49.7856552  43.5101604  63.2426558  49.0438325  42.9502916
  39.4058347  28.0472851  30.4011297  39.4084954  27.7781153  29.4825578
  40.2314758  27.7125978  30.7511783  81.5234391  67.1915490  29.0558577
  81.5834252  66.2364156  29.0746665  81.6809312  67.4234469  28.1406236
  73.4107138   0.7507206  18.1104243  73.6668564  -0.1104603  18.4405601
  72.4539567   0.7262893  18.0945706  28.7559509  26.1019373  18.0992472
  28.8293076  25.1970959  17.7957451  28.5636234  26.0262275  19.0338647
  62.9266262  11.2894440  32.1434689  62.5943279  11.0171556  31.2880898
  63.7920332  11.6545451  31.9590783  32.6036787  39.3651056  34.0206409
  32.0667362  38.8415480  34.6154618  32.1087694  40.1758003  33.9020276
  30.2404809  28.0511475  13.6655366  29.5925331  27.3783064  13.8745344
  30.0113964  28.7883019  14.2315364  40.2326775  33.8495731  46.4240885
  40.0375128  33.1637764  47.0627022  40.8441830  33.4399724  45.8121109
  11.3176980  74.5466931  28.0626988  10.6839958  75.2636690  28.0871320
  10.8286872  73.8070006  27.7022076  79.6644179  66.8805940  15.7434881
  80.5298797  67.0874746  15.3907776  79.0766446  66.9484968  14.9910629
  75.1189358  64.3837218  65.7897333  74.8331530  65.2509050  66.0770572
  74.3976337  63.8020854  66.0298452  43.1563902  46.0881710  58.3872223
  43.5777092  46.7710590  58.9091301  42.2199440  46.2702227  58.4657001
  26.9571328   3.0930901   8.4415686  27.3548579   2.5031868   9.0819287
  26.1739731   3.4278849   8.8783813  25.9973240  10.7064116   5.7541251
  26.1230540  11.4679146   6.3202846  26.8346453  10.6033087   5.3019130
  46.9605965  70.9105687  54.3835578  46.3027830  70.4783492  53.8388572
  46.4683039  71.2460260  55.1327905  36.0317540   6.0341823  30.5171728
  36.1266971   6.4146596  29.6439862  36.6933417   5.3432298  30.5505919
  71.5973949  46.9708824  15.7329416  71.4658070  46.2348032  16.3305247
  71.4096880  47.7458334  16.2625158  53.8735342  22.6276994   6.1435086
  54.2479086  22.0690632   6.8246859  53.2661915  23.2011223   6.6110045
  61.1940384  36.7452407  15.4747081  61.2667942  37.3859310  16.1821365
  60.4273605  37.0260787  14.9751377  41.9697991  35.6501300   2.5740141
  42.0435229  34.6987445   2.6492339  41.2836161  35.7862765   1.9206756
  35.4058957  28.6400747  37.5564194  35.1480436  29.4922662  37.2049737
  35.5591679  28.8013625  38.4873986  39.3221921  61.0245161  64.8447788
  39.6393866  61.9023661  64.6326438  39.8775477  60.4384451  64.3306461
  47.9754639   1.7228368  49.2519522  47.7016973   1.4703292  48.3701754
  47.8445721   0.9342130  49.7784233  76.1128027  33.1185256  69.6827309
  76.8783123  32.6823013  69.3086540  75.3946096  32.8896759  69.0927649
  41.9454670  19.6980357  10.3119218  42.5756502  18.9777350  10.3282022
  41.2522125  19.4233632  10.9120798   6.8729892  73.2040120   8.8100779
   6.1234346  72.6158471   8.9020693   6.9139424  73.3950538   7.8730303
  59.1123000  69.4917113  44.2509031  58.7347689  68.6194069  44.3639898
  59.9954596  69.3293268  43.9194107  42.1842749  57.8217284  53.4117732
  41.9060463  57.1751861  52.7630791  42.6206846  57.3072355  54.0908000
  12.1888840  16.1326551  37.0592380  12.0913815  15.1816499  37.1073294
  13.0435061  16.2653649  36.6490650  15.1254344  24.9255633  41.5623045
  14.9085510  25.3198910  40.7174969  15.4790866  24.0641141  41.3407946
  41.5282440  11.7071950  14.4120741  41.8836498  11.4729190  13.5547328
  41.9733953  11.1211646  15.0241542  20.4214215  30.4970980  21.1374092
  20.8168173  30.6117368  22.0015574  19.6837842  29.9059701  21.2880349
  19.1738596  75.6720967   1.4095348  19.9314347  75.2766854   1.8407662
  18.7167063  74.9348224   1.0049729  32.1858454   1.1464514  59.5660830
  31.5530443   1.5491208  60.1607656  32.1101189   0.2074637  59.7357845
  32.0260048  31.7030740  26.8641376  31.9863200  30.8324313  26.4683628
  31.1127329  31.9853401  26.9140410  59.1748953  28.5872102   3.7996364
  58.2192707  28.5412884   3.8297358  59.4271708  27.9149342   3.1666809
  18.3438540  16.4883149  21.4726067  18.1057155  17.3485088  21.1267900
  19.2947268  16.4445221  21.3718367  69.0078337  38.9089699  42.0051250
  68.9355547  39.8540175  42.1388874  68.3846838  38.5308972  42.6255903
  36.9555655  67.0930798   9.7082794  36.6740694  66.4066035   9.1035146
  36.2317362  67.7193994   9.7133458  32.2082448  32.7079773  34.1121554
  32.7067375  33.2924461  34.6832371  32.5431919  32.8882909  33.2337880
  19.9065816  13.3984733  33.3416080  20.1754165  12.9262626  32.5535870
  19.2370224  14.0109944  33.0370736  39.2849684  30.2262139  22.9339027
  38.5679603  29.7952032  22.4687552  39.0285182  31.1477852  22.9681540
   0.8362412   9.8127025  44.6609879   1.7216972  10.0046289  44.9697971
   0.2666701  10.0935030  45.3772068  10.6840077  53.9871819  14.1592646
   9.8537078  54.4548447  14.2493951  10.4866901  53.2605345  13.5682631
  20.6770301  35.0075531  20.2352619  20.2446437  35.8514810  20.1046443
  20.3535533  34.4594955  19.5202589  55.5094624   6.1168432  37.4093938
  55.7506657   6.4154315  36.5325260  54.9966526   6.8375659  37.7752042
  55.2772236  12.8247046  29.8513222  55.6750870  12.2441602  30.5000925
  54.4187689  13.0392468  30.2163792  50.8155394  26.8067646  30.3395557
  50.3410244  27.5811195  30.0371671  50.7249928  26.1762142  29.6251035
  21.8773317  37.0738292  17.1767724  21.1701393  36.5075183  16.8678987
  21.4536834  37.9152799  17.3462188  41.5069199   4.2113277   2.0900451
  41.2908888   4.0235600   1.1766411  41.5060329   5.1669598   2.1448019
  52.1942091  24.9854803  24.9026418  52.5337172  24.8662281  24.0156555
  51.5446424  24.2900562  25.0059795  31.1964059  51.6723061   7.1426821
  31.8595195  52.3396873   6.9662988  31.6440940  51.0292768   7.6925230
  13.9979210  80.1354376  41.1302042  14.0949240  81.0498566  40.8643866
  13.0646267  79.9523258  41.0221958  27.5006938  19.1565001  17.0424259
  27.8816295  18.3416224  17.3696804  27.4968839  19.7406006  17.8007424
  38.4074688  21.3055205  23.9620924  38.8930035  20.5974770  23.5388207
  38.3126569  21.0209084  24.8710704  51.2937117  31.0030341  10.9877980
  51.9889021  31.5003467  11.4186347  50.4841566  31.3452935  11.3668931
  13.0730736  47.3981524  23.4294248  12.2911298  47.9257965  23.5918689
  12.7374935  46.5771723  23.0694175  57.5024033  54.7533274  27.1809173
  57.2148418  53.9866447  27.6766372  57.0858240  54.6550179  26.3247442
  34.7575545  21.9843340  33.3423877  35.0871158  22.4741125  34.0958714
  34.1346836  21.3608074  33.7158537  45.9489098  60.6591041  32.1251535
  45.4403773  59.9372203  32.4946213  45.3139487  61.1639089  31.6169906
  44.5458031   3.3496264  36.7893863  44.6732044   3.6150908  37.7001691
  44.8713064   2.4501547  36.7543030  51.7362768  64.9102931  66.6663528
  51.8540413  64.0674810  67.1045652  52.6180465  65.1635103  66.3932291
  11.1072348   8.4139049  19.8177671  11.0847186   8.0328888  18.9399564
  12.0389842   8.5247546  20.0069261  24.2484260  38.9754653  17.6029861
  23.7846088  38.2569170  17.1731102  23.5943365  39.6699262  17.6812351
  27.9737329  64.6480989  18.5094786  27.1299958  64.4511509  18.1026006
  28.5391903  64.8988438  17.7789879  49.4817877  10.1975870  19.8148441
  48.5382938  10.2354681  19.6579552  49.8641920  10.0726819  18.9462841
   3.8734626  14.6875811   8.3170360   4.0032958  15.5270743   7.8758723
   3.0765818  14.3313134   7.9242331  49.5175314   0.9798544   0.7569376
  49.6416664   0.0424206   0.6084771  50.1033211   1.1866564   1.4851671
  69.1968441  28.6516857  23.0264735  70.0170135  29.1448712  23.0085039
  69.0459585  28.4045148  22.1141291  40.8201742  22.4628925  21.8298268
  40.8042002  21.5918303  21.4333057  40.0115681  22.8777146  21.5293193
  45.4378366   7.1520424   2.8228998  45.1865816   8.0533999   2.6212624
  45.1094437   6.6407126   2.0833504  74.1854364  33.2572721  60.6650988
  75.0852663  33.5812192  60.6251356  74.2742664  32.3300014  60.8853516
  23.0403256  40.8940458  44.0332651  22.5142646  40.5832577  43.2964468
  23.5967445  40.1493073  44.2612839  54.4810894  69.7527630  44.6848965
  54.6557956  70.0826652  43.8034916  54.5041721  68.8002581  44.5930672
  41.4808702  20.6932306  30.8623838  41.3156939  19.7703671  31.0554409
  42.4334431  20.7566285  30.7929254  36.0820866  42.0557499   6.0814416
  35.8484006  42.1088457   5.1547253  36.8025184  42.6777887   6.1828023
  60.8181238  31.0827327  35.2592206  61.4162683  31.8300033  35.2656507
  61.2581587  30.4191470  35.7905006  76.6058636   7.1820700  11.8922770
  76.4960861   8.0244428  11.4511549  75.7277822   6.8011683  11.9031441
  71.1909866  45.7987261  20.6646633  71.6715574  46.6106939  20.8258963
  71.6093540  45.1551962  21.2365651  57.7088022  33.3063030  22.9829788
  57.1210909  32.6283121  23.3163834  57.6976824  33.9856482  23.6572170
  70.1049406  37.6260601  54.5798764  69.7772343  38.1130238  53.8237629
  70.2442724  36.7380695  54.2508015  79.0888721  54.5474593  56.5842602
  79.5733387  54.0588383  55.9188471  78.8022978  55.3431182  56.1358902
  10.4461288  32.0299935  17.1738195   9.9216038  31.3895059  16.6933203
  10.5840039  31.6306591  18.0327439  55.6390619  31.1049891  20.3054690
  56.2965155  31.7119193  19.9654341  56.1146593  30.2843952  20.4345655
   3.3111587  76.0607413  13.0131507   4.1834655  76.4539505  13.0396259
   3.1125441  75.9811229  12.0801747  31.3721365  47.1247290  53.5132417
  31.8711094  46.4090751  53.1194184  30.5296264  47.1074931  53.0592475
  56.5066099  19.9947655  25.5096388  55.8567810  19.3763769  25.8436298
  57.3326969  19.5119822  25.5366135  50.0579405  25.4661894   9.0097934
  49.2890787  25.4711652   9.5799333  49.6986437  25.4911518   8.1229359
  37.3020077  28.6986709  28.0919766  37.1605158  27.8156352  27.7507186
  36.7236400  28.7570810  28.8524437  38.5097599  17.9194844  37.1055460
  38.0352259  17.1251059  37.3505211  38.0610943  18.6214590  37.5768876
  82.1860201  66.1626773  62.4719146  81.7712051  66.6648106  61.7704705
  82.6501781  66.8177132  62.9931775  45.9072256  27.9692173  18.5620964
  45.9586000  27.9180622  19.5165467  44.9713087  27.9134178  18.3692813
  29.3783426   5.4244202  45.1042128  30.0570512   4.9995533  45.6286860
  29.1969800   4.8034248  44.3987322  25.0077844  27.4812460  51.5738726
  24.8173690  28.3471036  51.9347954  24.7830677  27.5537133  50.6462526
  25.5395594  11.2947438  37.3454628  24.8425188  11.4419291  36.7061648
  25.5535450  10.3458283  37.4703560  48.8619852  19.4072449  13.4798586
  47.9393148  19.1703224  13.5735345  49.0742397  19.8690236  14.2909944
   4.6063149  37.0582867  66.3770342   4.7671315  37.0167613  65.4343557
   4.6223778  36.1450052  66.6632032  41.7517281  22.5478077  10.9550309
  42.4791384  22.1250463  10.4985428  41.1082077  21.8499756  11.0780871
  46.5149355  48.2647848   3.8415512  45.8904266  48.2926130   4.5664278
  46.9369411  49.1238213   3.8558725  29.3944874  19.2693541  64.6381429
  29.6979180  19.5912287  65.4870016  30.1973000  19.1038630  64.1438410
  49.1320324  56.3831902  31.0316443  48.4032393  56.9161463  30.7137609
  49.3160915  56.7262793  31.9060850  44.4580317  13.0591190  26.4892459
  43.6557245  12.5427198  26.4126444  44.1675329  13.9671326  26.4034915
  42.7559566  21.1077809  15.9994483  42.9677582  21.9339108  15.5648458
  43.3371592  21.0811162  16.7595291  69.6520168  59.0978973  49.6505055
  69.4453604  58.1634788  49.6701536  70.3886492  59.1675644  49.0432558
  60.0910464  74.1121645   6.6462904  60.0013533  74.7278846   5.9189147
  60.5107012  73.3438052   6.2593192  30.5052090   5.1984268  18.5182714
  31.1433625   5.8443582  18.2153428  29.7116423   5.3938133  18.0199659
  20.5578756  13.4487033  15.8683252  19.8970270  14.0005779  16.2865889
  21.3708353  13.9480209  15.9458435  69.2456770  31.3119721  26.6295099
  69.0596485  31.6552949  27.5034404  68.4151697  30.9355855  26.3382602
  55.1963139  40.7271004  29.5866561  55.9042072  41.2685013  29.9359441
  54.8769045  40.2338219  30.3422260   3.3613148  74.5483852   5.0225204
   3.5042110  73.8137926   4.4257069   4.2371550  74.8985619   5.1853496
  83.6400492  44.5664863  59.1333768  83.9557964  45.2898459  58.5918174
  82.8477318  44.9066018  59.5490548  58.0105407  69.0218239  58.9066920
  57.5817139  68.8968067  58.0601046  58.6158521  69.7493629  58.7634477
  47.4307537  15.7353425  30.5948067  47.3312044  14.9633431  30.0377250
  47.5087833  15.3826094  31.4812160  29.8250961  21.8175745   0.5487894
  29.4523239  22.2826123   1.2977961  29.3863845  22.1982861  -0.2120139
  45.7267570  32.5421691  21.7769814  46.3568401  33.0895853  21.3084006
  46.1139441  31.6668653  21.7643142  67.1054704  63.0143409  69.6960936
  67.0516474  62.3199920  69.0394248  66.5848786  62.6899271  70.4309205
  23.3312112  77.3469667  61.4544145  24.2184430  77.4482469  61.7990944
  22.7670890  77.3994760  62.2259322  32.1451759  11.2413490  12.6646876
  32.7359438  11.2754178  11.9123149  31.2939787  11.5019274  12.3128402
  84.1645908  32.8553820  43.2265568  83.5228539  33.3483171  42.7152634
  83.9634323  31.9377804  43.0427694  23.3065343  39.1249490  12.3638725
  23.0638266  39.7565246  11.6867912  23.1083345  39.5694256  13.1881237
  63.9560175  57.1145535  58.2915211  64.2354393  56.6652107  57.4938726
  63.5281277  57.9120350  57.9797983  44.2370653  42.8253222  32.7462626
  44.5480776  42.1666813  32.1252203  45.0139046  43.3446884  32.9536510
  51.0221815  32.6058698  16.4999330  50.2499485  32.0577502  16.3604641
  51.7054510  32.1965766  15.9690344  50.5596018   1.4881179  34.7298956
  51.1239576   1.7667317  34.0087104  49.8773432   2.1581358  34.7727442
  83.6667530  59.2480428   4.8750496  82.9201452  59.7755129   5.1589161
  83.2930461  58.3881314   4.6823618  14.8467922  26.1743927   9.4749480
  14.2271137  25.8150911   8.8400209  14.4844806  27.0298386   9.7055501
  44.7991514  34.3118596  17.8485906  45.0878477  35.0753736  18.3485222
  44.0393019  33.9839649  18.3295739  23.8539720  30.9736586   4.9242577
  24.5583749  30.6718159   4.3507266  24.3014812  31.4541817   5.6207240
  20.3024387  40.4470158  21.8751502  20.3985214  39.5109248  21.6998458
  19.7374916  40.7657623  21.1712551  43.4393311  39.7247529  15.3105295
  43.9515877  40.4852390  15.5852616  44.0734196  39.0085173  15.2763474
  74.6688032  52.6210356   3.3317441  75.5250740  52.2116899   3.4561250
  74.2295504  52.0663834   2.6870397  16.1621654  25.5398655  34.5632553
  16.0778189  26.3022351  35.1358891  16.9645107  25.7008743  34.0667176
  46.7362118  45.6753540  21.1530828  45.8679056  45.6783867  21.5559077
  47.3359346  45.4991341  21.8780065  22.1066275   4.1085217  64.4868866
  22.1213093   3.7887070  65.3889594  21.2273970   3.8980410  64.1724262
  45.8820629  55.4107952  11.3522375  45.2392673  55.6854200  10.6983078
  46.4935207  54.8554516  10.8685589  53.7022972  34.0021682  14.8691404
  54.4451332  34.5684671  15.0782573  52.9407787  34.5805454  14.9116397
  50.9201479   8.1192899  52.9287720  51.4345503   8.8976502  52.7148151
  50.0374269   8.4524679  53.0901051  62.9813480  19.4325089  16.0532105
  62.8633356  18.5032201  16.2500048  63.8264751  19.6546292  16.4439261
   3.0439948   7.6796490  19.3571603   3.3157920   8.1180966  18.5508573
   3.5305880   6.8553513  19.3572843  79.2653036  34.0246773  22.3597693
  79.5819378  34.8346925  21.9599557  79.6667004  34.0136194  23.2286716
  62.3809385  15.6983459  26.0920477  62.5501347  15.6628323  25.1505899
  63.1281137  15.2487540  26.4868021  42.3501396  73.1660557   2.4305870
  41.7525053  72.5514317   2.0047879  41.9420719  74.0227747   2.3051243
  18.2590055  35.6176925  40.6043434  18.0640531  36.5548205  40.6003189
  18.3281243  35.3914118  41.5318441  68.6673546  38.3118677  10.5315650
  68.0626965  37.7770996  10.0171340  69.5214891  38.1660748  10.1248324
  73.8364280  31.2251496  13.7011230  72.9044677  31.2183571  13.4828663
  73.9116801  30.6320691  14.4486678  49.4330025  40.5524349  18.8155913
  49.3786335  39.9509096  18.0729961  49.7896147  41.3594818  18.4444761
  66.4899063  31.3463926   8.9120054  67.2911692  30.9437561   9.2468119
  66.7302084  31.6730022   8.0449349  55.9175444  39.8324513   3.3228856
  56.2162066  38.9757848   3.0176726  56.2507963  40.4486513   2.6706040
  29.3929768   7.3333514  11.7362976  30.1474142   6.8022621  11.9912505
  28.7018275   6.6963363  11.5553129  30.1673651  50.0442457  39.3836379
  30.0230861  49.3760920  38.7135720  29.5087290  49.8584223  40.0528908
  36.4386582  26.3082862  22.0640707  35.6073380  25.9675312  21.7338800
  36.5833712  25.8344364  22.8830695  15.9986150  23.2145238   5.1140863
  16.6702509  23.3662319   5.7790077  15.9029663  24.0587831   4.6732804
  31.9509125   2.9228559  17.9920590  31.2991476   2.4894871  17.4410355
  31.6361880   3.8232750  18.0722249  21.1895514  22.1725225  14.2881775
  20.7091022  21.3520098  14.1779089  20.5348754  22.7919531  14.6105671
  15.0863695  15.1474905  30.9506559  15.5531752  15.6168115  30.2592349
  14.2050958  15.5209744  30.9407640  23.3721900  36.3577771  52.9485512
  22.7501273  35.7232761  52.5926304  22.8380156  37.1226239  53.1627941
  38.3375525  33.0164385  40.6701660  39.2203593  32.8468728  40.9990025
  38.2255793  33.9626670  40.7615089  69.4175053  40.2816534  16.7238641
  70.0158215  40.3293800  17.4695015  68.5560989  40.1404572  17.1166408
  77.9110128  52.5812773  64.5574460  78.3664925  52.8406577  63.7565139
  78.2296068  51.6969995  64.7384993  74.9423853  18.5529301  61.9055137
  75.0980846  18.0922244  62.7299771  75.0300256  17.8771708  61.2332794
  83.8008816  55.1253431  49.1095052  82.9267485  55.5054502  49.1969356
  83.6421759  54.1991977  48.9270267   4.8977175  71.2557293  18.9044738
   4.3611994  70.6532652  19.4196594   4.3844118  71.4162810  18.1126571
  37.5826436  40.7428267  60.3884462  37.7814751  40.0105101  59.8049984
  37.5078851  40.3446516  61.2556830   6.0549544   7.7632910  40.6177759
   5.7123565   8.4160709  41.2282991   6.7465972   8.2215315  40.1404190
  75.9076452  17.1615851  47.3356724  76.2234259  17.3799562  48.2124996
  75.1862383  16.5507162  47.4861479   6.3469487  72.0041423  38.4120664
   6.5699225  72.3969059  39.2560158   6.3700276  72.7348881  37.7942381
  61.4381647  32.9004860   8.7874383  60.9015799  33.3829474   9.4163555
  61.5303707  32.0282269   9.1707081  68.9774942   5.8018261  41.7984962
  68.3182192   5.1078606  41.7989254  68.6059141   6.4855367  42.3559046
  43.1910610  19.2938042  43.9821863  42.9936504  18.3589363  43.9248800
  43.6341238  19.4959915  43.1581450  45.8673573  21.4800930  28.2317400
  45.6662321  21.8439054  29.0939593  45.1923513  20.8167505  28.0882859
  35.5941939  13.6463737  50.5758858  35.5037904  13.2424521  49.7128057
  34.7707367  13.4467435  51.0211945  75.9253246  47.6263879  56.3723156
  76.0789425  46.8349730  56.8883536  76.8011934  47.9334252  56.1381945
  29.4502354  26.0406828  43.9683199  30.1344991  26.5116620  44.4439125
  29.9124074  25.3279591  43.5271215  25.2259350  41.1720610  36.8569207
  24.5720696  41.1966324  37.5555563  26.0207319  40.8523083  37.2838736
  40.0749588  22.8043056   5.1820982  40.4495096  23.6032510   4.8111132
  39.1354847  22.9808140   5.2317005  26.2444353  32.1572042  43.2036543
  25.5439162  31.5083003  43.1370878  26.9627666  31.6911507  43.6314726
  77.1731710  38.5079527  13.8892663  77.6182652  37.6672649  13.9958644
  77.0508337  38.8291669  14.7826242  34.2468548  73.0300073  60.2459029
  34.4024528  72.2120003  60.7180074  33.2983649  73.1526451  60.2853886
  73.2413721  46.2276840  40.1430750  73.0469131  47.1485138  39.9684596
  74.0986490  46.0837603  39.7423387  15.6836167  48.2983620  23.5079122
  14.7928038  48.2903320  23.1577420  15.6103220  47.8664810  24.3589926
  66.4685297  41.8198776  17.4392307  65.8765936  42.0876837  18.1421697
  66.8180513  40.9770393  17.7285230  32.7833343  15.4871869  13.5760152
  32.2523808  15.6342483  12.7932680  32.2717834  14.8708487  14.1001081
  52.2159195   1.5278988   8.4744275  52.4833584   2.4375889   8.3433813
  52.9295015   1.0120205   8.0990595  31.0642362  34.4583488  55.4427099
  31.9258976  34.0570784  55.3297853  31.1103630  34.8884416  56.2965965
  34.8739505   8.1037796  23.3963823  34.1567230   8.5416502  23.8547301
  34.7975302   8.4033000  22.4904680  35.6781697  20.9113288  27.9729414
  34.9562788  20.4918838  27.5047851  35.3708744  20.9776807  28.8770437
  75.6754971  47.4783993  39.0553594  75.9918451  48.3631563  39.2380238
  75.8476496  47.3503160  38.1225204  28.9561358  77.3780585  42.3889017
  29.1045132  77.2461442  43.3252859  28.0644503  77.0630220  42.2409821
  26.7801738  19.8026848  62.2322416  27.0839524  19.7948420  61.3245583
  27.0553327  20.6551814  62.5695419  42.3115253  11.3002229  26.7838573
  42.3383045  10.4734480  27.2654748  41.4617300  11.6800284  27.0070791
  80.8568794  66.4479546  36.4762006  80.4609663  66.0020451  37.2249660
  81.6737778  66.8111496  36.8182478  46.2758446  51.2089252   2.2591171
  46.6516829  51.4647627   1.4167853  45.4895973  50.7134056   2.0299728
   8.0339628  24.0063405  27.2172451   7.0993030  24.0194511  27.4233294
   8.1678957  24.7753811  26.6632867  69.0173847  59.2393248  62.3684177
  69.6077091  59.8881833  61.9853679  68.2652146  59.7485547  62.6703468
  20.7495284  50.4025269  41.8249607  20.8788514  49.4922686  41.5586185
  21.1721015  50.4637575  42.6816463  64.5954037  44.6977091  29.8563504
  64.6720171  43.7468481  29.9352479  64.8109770  44.8803043  28.9417911
  44.7897530  22.6381993  22.5465131  45.0331116  23.3927345  22.0101523
  45.3219891  22.7248693  23.3373642  60.6003761   9.2319953  30.3684759
  61.3149691   9.7015899  29.9382854  60.7372189   8.3155656  30.1283479
  49.5062017  44.3358183  20.3051257  50.0276279  43.5610247  20.5149984
  50.0902081  45.0729990  20.4832530  55.2753687  15.8539701   8.9827538
  54.4076920  15.5699837   8.6951458  55.5704403  16.4536750   8.2975399
  80.5542786  50.0892685  45.8421025  81.2296802  49.4653104  46.1080751
  80.1211149  49.6707152  45.0981841  27.1593037   1.5346119  55.3192827
  26.3864317   1.1849186  55.7627032  26.8976107   1.6044447  54.4012031
  65.8588696  16.8275118  13.9666772  66.5479469  16.4825201  13.3988893
  65.2563334  17.2711015  13.3696783  50.9395409  22.9564190   4.0747467
  50.0244808  22.7586126   3.8753217  51.0564232  22.6635671   4.9785212
  57.1778440  19.9580884  22.0548153  56.2844467  20.2936053  21.9806194
  57.2531366  19.6769154  22.9666853  63.0868275  69.9970441  64.7581444
  62.7596147  69.3325333  64.1518537  62.3591382  70.6111626  64.8559213
  46.4650965  17.5956786  34.1903424  46.9635248  18.2384062  33.6856627
  45.5991268  17.9905665  34.2922688  31.5060353  44.6117687  13.5774624
  32.2821307  44.7234011  14.1265011  30.8329034  45.1424456  14.0034997
  54.8859787   3.0899003  25.5492949  54.6043968   3.9906695  25.7091641
  54.3270540   2.7877247  24.8333859  55.4708195   3.2516807   1.6435494
  54.7237110   3.2078367   1.0467769  55.6368923   2.3409015   1.8867210
  11.1602485  14.2159188  59.2808819  11.7937279  14.6316350  58.6959743
  10.7382429  14.9456120  59.7344160  81.8865315  79.3362448   9.8851413
  82.1096221  78.4249000  10.0746489  82.3576013  79.5348451   9.0758926
  47.9191828  38.8694882   1.7850408  47.7417421  38.7048888   0.8589441
  47.8905535  39.8225951   1.8686832  23.3824061  11.8085146  35.6276059
  22.4668883  11.5294659  35.6141806  23.3428573  12.7524555  35.7813692
  30.0705361  40.8198500  40.5013657  30.9791923  40.5669689  40.6645346
  29.8685861  40.4470539  39.6431851  43.0090189  37.8505230   3.6845729
  42.8092289  37.0695066   3.1685019  42.3250771  37.8768706   4.3537235
  15.8275538  71.0203676  67.9117436  16.7298632  71.1089592  68.2186947
  15.7239896  71.7204456  67.2672311   2.6274043  51.9740169  58.3069107
   2.0015126  51.3946633  57.8723511   2.9403144  52.5530224  57.6118765
   6.4740180  50.9607840   2.5412676   6.8306922  51.8336964   2.3768231
   6.4365577  50.5506706   1.6771865  30.7011023  64.4137807  20.1440692
  29.8335400  64.8134250  20.2061391  31.2950077  65.0738628  20.5015612
  47.6987791  64.8304987  36.5064740  47.6281834  65.0776291  37.4285221
  47.7817535  63.8769913  36.5197444   6.1989870  64.8558612  45.6495953
   6.4225378  65.7864744  45.6348848   7.0046940  64.4203586  45.9278107
  55.4884815  56.9429493   4.8531300  56.4022732  57.2043133   4.9667516
  55.4793358  56.4559746   4.0291107  22.3170939  19.3197510  47.1385751
  22.1581879  18.8635609  46.3122139  23.2431355  19.1638730  47.3239860
  73.3162434  51.4039950  59.8472742  73.1492741  52.2823159  59.5053599
  73.1254990  50.8207397  59.1126582  84.9792988  62.3867254  58.9889262
  84.3831808  62.2549729  59.7261629  84.6565897  63.1784515  58.5585055
  59.8442793   0.7289894  24.9675798  58.9631462   0.7327417  24.5936465
  59.9164629   1.5699488  25.4190326  37.1972722  67.3125605  58.1850002
  37.2153330  66.5072732  58.7021241  36.4091874  67.2343402  57.6473794
  77.8130150  44.6170187   2.7997270  77.5842142  43.8156939   3.2706374
  78.2228994  44.3106985   1.9907796  30.6050482   2.9497931  61.1703244
  30.9459677   3.5172389  61.8617091  30.2687159   3.5541174  60.5085805
  56.3515759  20.3209805  13.3474278  55.8398247  20.4845166  14.1396356
  57.2347021  20.1356626  13.6667740  58.8511283  12.0309374  69.3107419
  59.1587634  12.9308627  69.4190226  58.8509695  11.8901560  68.3639512
   8.7727457  21.4282751   6.9634879   8.8484210  21.7969275   6.0833734
   7.8621030  21.1398411   7.0248622  58.0287743  51.2358665  12.5300944
  58.3547926  51.7203665  11.7716742  57.1069670  51.4853191  12.5954843
  61.6077089  10.3659952   5.5909789  62.4017572  10.2446830   5.0703984
  61.5236282   9.5548320   6.0921538  52.8854465   4.1972393   7.6799405
  52.9656935   5.1509964   7.6680833  53.1937838   3.9201948   6.8171495
  47.7463245   7.1917033  17.3790359  47.6843643   6.6920513  16.5649474
  46.9158316   7.0263720  17.8253341  75.2514107  68.9091496  63.8943538
  75.3012115  67.9842596  63.6528370  74.4539577  68.9769726  64.4194302
  52.6280744  65.2297215  62.8485516  52.1786625  65.8061270  62.2304747
  53.5269744  65.5578451  62.8718743  44.9312249   4.9526618  67.2914844
  44.3036166   5.3314612  67.9069889  45.7452383   5.4285882  67.4561291
  70.1651747  73.1616311  48.7290535  69.9088413  72.2551875  48.5590849
  71.0690767  73.1009893  49.0381059  29.4669342   8.5954517  34.8064423
  29.2854571   9.2671102  35.4638410  28.6735153   8.5628587  34.2719769
  75.4860765  61.0198884  69.8338895  75.7971174  60.7043414  68.9854123
  74.7675306  60.4294018  70.0602820  74.8139793  68.5247092  69.3430252
  74.6099884  68.1866460  68.4710554  74.2470724  69.2895918  69.4420287
  64.0562344  31.1852360  15.0929785  64.8544884  30.7537389  14.7882986
  64.3546915  32.0289850  15.4324496  42.8256178  22.8380680  26.5563679
  42.6581669  22.7350545  25.6195760  42.0100451  23.1954527  26.9075823
  75.8316261  54.2398922  64.9333072  75.6457598  54.1126625  65.8636281
  76.5075666  53.5923128  64.7333584  71.6435099  12.9379988  10.4781806
  71.1447859  12.2917557  10.9780550  72.4207067  13.1053329  11.0112846
  37.0620251  26.8485332   0.5544768  37.9014063  26.3909268   0.6020840
  36.4068007  26.1519790   0.5959900  72.2841263  21.4958143  21.1567640
  71.8008995  21.2359047  21.9410944  73.2043600  21.3778830  21.3923359
  51.7647839  14.0024805  48.1284571  50.9678030  14.5326269  48.1280661
  51.4550066  13.1044304  48.2458305  12.3970300  59.1188209  42.2205958
  12.0040494  59.1100244  41.3478312  12.7535039  60.0022571  42.3138652
  64.2099983  63.3357339  61.3070086  64.0774710  63.2052355  62.2459641
  63.4481699  62.9249482  60.8982239  60.5413055  27.6496816   9.4002545
  60.1045752  27.1993947  10.1232624  59.9156141  27.6047897   8.6772567
   6.3562694  76.6373468   4.5005491   5.8023539  76.6476268   3.7199700
   7.2495904  76.6916622   4.1610506  59.2477018  46.1994539  64.9400542
  58.9463527  47.0531909  64.6293238  60.0699407  46.3860713  65.3931860
   0.6705203   8.7125704  68.0158009  -0.1337251   8.4175751  67.5887230
   1.0822049   7.9086182  68.3326690  26.8976402  15.9257305  21.6027737
  27.4075413  16.5176165  21.0496879  27.5234962  15.6068861  22.2530627
  30.3348589  34.5293260   5.7014549  31.1914992  34.2790699   5.3553724
  30.2183533  35.4365945   5.4194593  34.2953634  33.3748794  25.9494448
  34.9573255  33.5804057  26.6095948  33.6248493  32.8861189  26.4266825
  18.0525768  29.1747785  20.7481170  17.6395118  28.3907557  20.3862929
  17.3447549  29.6293330  21.2048435  42.8353262   4.9373591  38.7313414
  42.4347305   5.5626076  38.1273389  42.2939205   4.1515374  38.6565256
  11.0374640  28.3532000  40.7737017  10.1686858  28.7236118  40.9294462
  11.4562510  28.3546114  41.6344309  55.7523870  24.4288349  34.5774961
  55.6208038  23.6424184  35.1070857  56.7000771  24.5634294  34.5799232
  75.0238687  67.7122884  59.8678443  74.3159658  67.3055844  59.3681440
  74.5947105  68.4036426  60.3719125  58.9562035  31.0073924  21.5804172
  58.7255001  31.1005521  20.6561184  58.8851976  31.8934608  21.9354844
  67.5324440  61.5494585  21.9650841  67.1860981  60.8480120  22.5166726
  67.4252367  61.2258768  21.0706377   5.6311589  50.7257414  14.6659708
   4.9943537  50.0989962  14.3226063   5.6700277  51.4151955  14.0031135
  16.8745699   1.1683676  61.1479637  17.5024119   0.5123255  60.8452091
  16.6397944   0.8853123  62.0317015  40.3792706  34.2474530  68.8313937
  40.2674475  34.1045640  67.8915477  40.3822937  33.3677647  69.2087118
  66.9968271  59.7303009  11.7185795  67.3412752  59.2647123  10.9564650
  66.0465240  59.7013235  11.6076064  64.8361492  58.5364628  30.7639432
  64.2588234  58.3633089  30.0203443  64.6773863  57.8086185  31.3650036
  68.5150194  32.7900386  13.9193225  68.2428360  33.7017465  14.0238953
  68.9271212  32.7606440  13.0558765  50.5275488  53.1397724  16.0741901
  49.6187401  53.4310770  16.1479759  50.4928303  52.3971796  15.4712152
   0.8571225  36.3419962   1.4382900   0.1566336  36.0815191   0.8402113
   1.4756353  35.6118321   1.4152007  69.4337797  24.1197228  42.4280691
  69.4764185  23.3013368  41.9334412  70.3470230  24.3905926  42.5221300
  38.3685899  50.5895233  17.9172552  37.8785229  49.8503304  18.2773376
  38.5356665  50.3454447  17.0069015  65.9601116  22.2107935  14.5778263
  65.3334808  22.6742172  15.1335275  66.6868401  21.9970655  15.1629901
  74.5543623  17.8768492  21.4883065  75.1171017  18.5450912  21.0971355
  73.7503815  17.9072571  20.9697318  15.4195386  10.8975868  54.1183994
  15.7900458  11.3366585  53.3527813  14.6607142  11.4303879  54.3561754
  81.8034744  40.3729725  47.4919176  81.2013245  39.6581411  47.2853565
  81.9385529  40.8211756  46.6569948  60.0472641  41.2168360  13.9753580
  59.7991610  42.0783854  13.6400735  60.5919170  40.8388805  13.2849026
  76.1218691  60.2836561  64.1716433  75.4548454  60.7128000  64.7075081
  75.9844589  60.6345654  63.2917500  69.4429016  40.6065416  25.1724911
  68.7787390  40.6170654  24.4832802  69.9983835  41.3622808  24.9813747
  12.9553723  40.0497818  20.0675559  13.6328542  39.7614765  19.4558918
  12.2282004  40.3228998  19.5082176   9.1937857  71.1769728  43.5514746
   9.5611220  72.0147733  43.2697162   8.4278136  71.0508327  42.9914675
  31.3002086  31.6385674  29.5666313  31.7328620  31.3561964  28.7608337
  32.0185494  31.8597341  30.1593399  50.2630091  20.2831745   8.2396448
  50.0751448  21.1083794   7.7924573  50.6740475  19.7361827   7.5702596
  43.4107256  17.3608863   9.5100009  42.6232052  17.0052016   9.0982568
  44.0349197  17.4561954   8.7906069  68.7327957  52.5810814  14.0451193
  69.4830799  52.0450926  14.3020725  69.0515423  53.1014633  13.3076656
  53.6716080  76.4635277  39.1508579  53.7097883  76.0139656  39.9950552
  52.8832436  77.0039177  39.2027187  30.8887005  51.3728523  19.3666530
  30.2188087  50.8678102  19.8275340  30.7191038  51.2057066  18.4395432
  83.7535148  64.5409966  10.1121283  82.8420545  64.8073339  10.2326941
  83.7426973  63.5908604  10.2277124  55.1115942  63.8678551  61.7709923
  54.8048925  63.5261011  62.6108551  55.7015371  64.5843983  62.0050240
   6.5425490  29.4148612  62.6332617   6.4790439  29.2482686  61.6928101
   6.8070124  30.3326178  62.6966095  57.3411942  65.4810429   6.3709223
  56.7903328  65.8502293   5.6806397  57.9767227  66.1701632   6.5644443
   2.5080298  61.2285757  38.2261777   1.7562293  61.4672661  37.6839113
   3.2654857  61.3563538  37.6550674  40.1451054  41.8594954  65.6119052
  40.9406081  42.2756503  65.2799014  40.4563322  41.2408183  66.2726635
  64.1634369  45.7738018  24.1083694  64.2616177  45.9226274  25.0488162
  63.2191992  45.8144712  23.9567304  80.8981449  66.9124155  58.3632312
  81.1888868  66.2125449  57.7785227  80.1129848  67.2642688  57.9437623
  29.5227137  17.4741814  60.6704006  30.3143969  17.3481581  60.1473436
  29.7680369  18.1313584  61.3216827  45.0489950  40.5642557  31.0755587
  44.2426634  40.3939199  31.5624285  45.3643227  39.6964097  30.8232784
  79.2586867  11.2799284  60.9495411  78.3525125  11.1065123  61.2045101
  79.2137877  11.4543555  60.0094393  33.6555424  12.0927928  66.1729953
  34.4544163  11.5758393  66.2768895  33.8992968  12.7907822  65.5650247
  37.2639871  34.9844694  28.8983941  36.7009449  34.2139149  28.9722848
  36.8134379  35.5511642  28.2722187  57.6761389  34.4225287   0.0779815
  56.8406057  34.3038630  -0.3737172  57.4822855  34.2285991   0.9950657
  67.8003311  56.9883919  28.2100439  66.9832945  56.6664553  28.5908818
  68.0168295  56.3486671  27.5317311  66.5883255  22.4677444   4.9980482
  66.6036797  23.0593324   4.2457062  65.7853222  22.6963854   5.4661751
  59.8560286  46.3239241  39.0480781  59.8027468  46.0563803  39.9655819
  60.4035044  47.1090269  39.0589333  73.2508230  62.4097490   5.1391053
  73.2929945  61.5321255   4.7593203  73.8555336  62.3792171   5.8804709
  64.2653162  48.9615940  68.0554900  64.9824912  48.4227632  67.7214934
  64.3568260  48.9188580  69.0073467  44.5531321  33.7762594  24.1340780
  43.7694359  33.2599092  24.3223214  44.9690342  33.3219147  23.4013915
  64.5478058  58.7256384  44.7547960  65.3744173  58.4756804  44.3419170
  64.4020891  58.0564165  45.4234791  49.3638468  57.6668835  39.4140315
  48.7105513  58.3179092  39.6701574  49.3547392  57.0259237  40.1248884
  53.9971685  66.7401218  16.1026585  54.0092278  67.6565742  15.8266115
  54.4277334  66.7418051  16.9575548  62.8551340  48.3141756  36.5380073
  63.0663872  47.4841118  36.1106920  63.6261797  48.8620996  36.3913679
  54.6878481  68.9072561  21.4680958  55.4843330  68.4150648  21.2691188
  54.0017939  68.2417917  21.5202069  75.2008104  32.7419019  27.6585460
  74.8571491  33.0252004  26.8112755  75.7182884  31.9618988  27.4584341
  31.2784186  21.6928170  69.4166125  31.9051447  20.9871647  69.5763043
  31.8145075  22.4848053  69.3767254  32.4705496  13.1246016  68.6645783
  33.0092039  13.0938122  67.8739252  32.8830138  12.4987624  69.2599174
  60.4594851  39.5475531  21.3145018  60.8624601  39.2566490  22.1325564
  61.1828709  39.9201393  20.8103991  22.6336470  18.3463309  64.4450292
  22.3889962  18.9877007  65.1121316  23.1258145  18.8505242  63.7971166
  11.8894320  63.7773018  47.5713668  11.3362103  63.2001929  47.0449362
  12.7206832  63.3087568  47.6469669  45.3966561  17.9338906  55.2870176
  45.0951329  18.8284943  55.4451344  45.2950659  17.4941847  56.1311552
  55.8957434  35.9339261  15.6641328  56.3768625  35.1064897  15.6538749
  56.5501833  36.5885067  15.9079874  76.2493896  50.2048969  40.1043034
  76.5033579  50.8006811  40.8091211  75.4434395  50.5815649  39.7510386
  65.3555250  63.8486767  41.1510038  65.9083509  63.8414526  41.9323874
  64.4606686  63.8541079  41.4907598  21.1022830  35.0384808   8.6523789
  20.8605576  34.6099091   9.4734305  21.2344575  34.3181276   8.0360556
  73.0576944  44.8150444  49.1189575  73.4294987  44.2748451  48.4216928
  72.8771114  44.1988564  49.8288441  50.8647156  60.1559830  40.0877094
  50.7002068  59.2699528  39.7650385  50.0054836  60.4728651  40.3661537
  18.7472153  38.7008166   5.8412063  18.5584259  38.4524679   6.7461449
  19.6000206  39.1333485   5.8844787  51.7331028  63.4272385  13.9651251
  51.0992002  63.7603331  13.3299458  51.5927410  62.4803972  13.9696109
  32.3193779  19.4675992  51.8163881  32.8759232  18.6888239  51.8144486
  32.5715342  19.9441550  51.0254774  30.4526320  38.8956568  60.4188046
  30.8315411  39.5290539  61.0282824  29.5093718  38.9505456  60.5720207
  73.3313322  53.1521511  29.7143173  73.2972956  52.9529428  30.6499386
  73.3382177  54.1084385  29.6731377  45.3446913  43.7087679   1.6875923
  44.6631098  44.3379688   1.4514057  46.0481501  44.2441940   2.0546038
  66.6467333  42.2689962  20.6368542  66.5808964  43.0023098  20.0251770
  67.4019623  42.4815559  21.1851978  55.1324844  45.3951406  11.0031128
  54.5728683  45.7639122  10.3196895  55.0893164  46.0311890  11.7171252
  61.5328741  42.2687721  28.1725860  60.7167768  42.7504873  28.3073688
  61.8618107  42.1029186  29.0560603   1.5363311  11.7276144  12.0553756
   0.6248950  11.4401853  12.1093559   1.8102359  11.4903009  11.1694360
  79.6213753  57.1423177  64.0827856  79.9287636  57.1337418  64.9892450
  80.0987656  56.4277510  63.6612162  80.8209783  70.0254326  64.7254846
  80.1805670  70.6280093  64.3473146  81.6423447  70.5169468  64.7239653
  68.1551933  22.7050781  29.3209100  67.4134922  22.3912406  29.8382258
  68.8109636  22.0120168  29.3974876  55.1680803  37.5405931  28.1899285
  56.0834217  37.7254677  28.4001780  54.6722460  37.9473472  28.9005113
  77.3629791  40.3816350  41.2929544  77.2098190  39.4409038  41.3812647
  76.4973862  40.7495762  41.1151681  55.1432705  45.1775455  34.0229726
  55.1777792  44.3153811  34.4373608  54.5037174  45.6666660  34.5406246
  48.7682286  32.4572728  62.9092881  49.6547594  32.7083514  63.1686089
  48.7523976  31.5046713  63.0016473  55.3078079  58.8905764  29.8863316
  54.5452356  58.5813141  29.3973756  55.1569557  58.5880232  30.7818413
  59.5571756  34.7297716   9.7400737  59.2898655  35.0523186   8.8794106
  59.5640516  35.5087733  10.2962577   2.7336779  45.7921526  63.6934224
   2.5708094  46.4140532  64.4026068   3.1960287  46.3026259  63.0286816
  68.0365944  65.6412935  30.8529496  68.3407211  66.1810875  31.5825844
  68.7686491  65.6377125  30.2362537  60.2557802   6.8321508  39.2972541
  60.7189369   6.9506925  40.1265097  59.3877792   6.5180260  39.5504880
   9.0523146  15.2921546  40.7123709   9.4249724  14.4674087  40.4006672
   9.5207213  15.9673083  40.2214527  50.6290150  52.2557926   1.7851405
  50.9198332  52.9450178   2.3823188  51.3370180  51.6117811   1.7997268
  70.8543825  44.5384455  29.9471092  70.7109356  45.4390383  29.6562672
  71.7703915  44.3608141  29.7335505  42.1484470  41.0896063  24.2534852
  42.9263258  40.9167385  23.7231493  42.4935722  41.3372564  25.1112676
  49.1536903  51.1946154  23.9307213  48.5705185  51.4832306  23.2286906
  49.9843359  51.0111666  23.4918594  74.2205381  56.9613218  56.3993502
  74.5243025  57.6434660  56.9982147  74.9314928  56.3205481  56.3857794
  17.6365197  75.3300810  20.6339645  16.9979453  74.7669458  20.1965427
  17.4644566  76.2042093  20.2839279  32.8621205   4.0633338  22.4000597
  32.0350369   4.3780940  22.0352387  33.2356938   4.8267978  22.8402662
  54.4666815  66.6331816  26.5478492  54.0646076  67.4864244  26.7107654
  53.7452364  66.0092211  26.6280031  25.0104626   8.8823645  32.1643162
  24.4485196   8.3622306  31.5899372  24.4658192   9.0664237  32.9296374
  56.5001345  31.6807628   5.3790516  56.0171652  31.8607283   4.5724648
  55.9730911  31.0225177   5.8320069  55.7770205  49.3654299  28.0691981
  55.5856752  48.7040520  27.4042225  56.6610861  49.6668100  27.8598237
  29.8614216  49.5973635  10.6711113  29.7455955  49.8790932  11.5785491
  30.8041573  49.4574261  10.5822420  65.5794621  36.5290737  13.0057085
  64.9379349  37.2285724  13.1297195  65.0959873  35.8382249  12.5527072
   0.5147391  75.7379274  65.9171442  -0.4154081  75.5368142  66.0201499
   0.5568963  76.2790899  65.1287297   7.0168477  26.3181560  44.1004333
   6.4195615  27.0493440  43.9428124   7.1743661  26.3367729  45.0444016
  64.3805408  29.3617296  28.3505917  64.7067976  30.1502037  27.9168868
  63.5235882  29.6144891  28.6940718  23.0767822  20.1087427  14.7137380
  22.4713802  20.8501482  14.7072458  23.5806608  20.2180290  15.5202079
  62.4177009  55.2652709  67.9518836  62.2818238  54.3195073  67.8944455
  63.3620746  55.3785329  67.8443380  58.2362261  14.8352454  65.2996695
  58.5867396  14.1990397  65.9230623  58.0958453  15.6270287  65.8188978
  12.0060759  75.0030164  68.3849873  11.4621430  75.3202848  69.1058940
  11.7197400  75.5123048  67.6267872  34.2123222  54.9677229  10.1651776
  33.9089942  54.9153137  11.0715318  34.1107750  54.0781021   9.8268038
  12.6349669  74.9998955  44.6434030  11.8275529  74.6469526  44.2695818
  13.3133393  74.7701888  44.0083585  32.0025339   2.2192881  68.1983956
  31.3971510   1.4789174  68.1584086  32.3272934   2.2147677  69.0988076
  76.2293243  65.3789234  41.1861610  76.8158293  65.6659079  41.8860817
  75.4594898  65.9410763  41.2732077  84.8904800  51.4856863  36.7235875
  84.4862938  52.0300817  37.3992348  85.3896141  50.8302689  37.2109556
  56.2659350   5.1307747  63.6271271  55.9819212   4.5944998  64.3673817
  56.5380373   4.4974301  62.9629967  46.6853085  19.3770669  66.7980826
  46.8733445  20.3034279  66.9488454  47.5450030  18.9562295  66.7910293
  35.8212834  70.4662637  48.5267505  35.1511365  70.5099635  49.2088232
  35.4344159  70.9251861  47.7811250  78.0800629  38.1110692  31.9579506
  77.5404263  38.4111643  31.2265372  78.6896753  37.4862504  31.5652657
  68.2415390  59.0549040  35.1807904  68.5454845  58.9823723  34.2760301
  68.7990618  59.7301674  35.5673456  41.3431635  23.9577601  62.9511819
  40.6792441  23.6778281  63.5813246  42.1699324  23.8914511  63.4289840
  56.7330790  57.2692204  16.2299943  56.2248421  57.9846954  16.6121173
  57.2713995  57.6894093  15.5592620  58.6468935  38.8831425  38.5871863
  58.2506466  39.4355345  39.2610407  58.6329889  39.4225740  37.7965856
  32.2741985  32.7127910  11.2579274  32.4321890  31.8489957  11.6388834
  32.0813370  32.5367856  10.3370261  49.9436569  53.6260891  35.1014423
  49.0574694  53.5446548  34.7489190  50.2793789  52.7297974  35.1148820
  74.7099257   3.9741734  28.9379096  74.0747881   3.4557825  29.4319773
  74.5128822   4.8811084  29.1721630  39.7748423  72.5115108  20.3869486
  39.4369364  73.3199501  20.7722735  40.5637598  72.3165846  20.8927608
  59.1702366  52.1690798  17.8881633  59.0758324  53.1212521  17.8619921
  58.2743692  51.8416929  17.9686439  40.9771824  44.8066521  15.2669597
  41.5665627  44.0839005  15.4825747  40.1650810  44.3800592  14.9935734
  83.9781284  58.9615393  37.6461124  83.1504154  58.7395334  37.2196913
  84.1742229  58.2040644  38.1974792  84.0055305  74.3765144  68.4096209
  83.8339264  74.6510963  67.5088501  83.5716087  75.0380306  68.9484535
  32.8104123   0.4326098  16.0126543  32.6281556  -0.4259259  15.6306458
  32.7337559   0.2957671  16.9569159  51.0679579  44.8881197  38.4437013
  51.9822502  44.7287846  38.2093620  50.8616447  45.7325459  38.0429339
  45.0337267  60.8673143  11.4350390  45.0368977  59.9779987  11.0809994
  45.9596634  61.0908270  11.5294445  27.3952579  14.8432541  26.2078810
  26.5380692  14.4494653  26.3703394  28.0077887  14.1088176  26.2483978
  20.4857588  14.5038140   5.7067579  21.0082698  14.2867827   4.9346745
  20.9993982  14.1739190   6.4440346  67.3002911  45.8246517  14.5867705
  66.9011402  46.4037704  15.2360237  67.0117664  46.1748171  13.7439358
  43.2262945  71.0816765  39.2147517  43.0665159  71.0054588  38.2740641
  43.4020948  70.1854324  39.5012283  48.5077715  51.5712738  13.5093844
  48.8801813  51.7677689  12.6497710  47.5846148  51.3885450  13.3343816
  81.9031906  25.1135492  32.5537610  82.4569416  25.7354760  33.0257726
  81.0461426  25.5379963  32.5142527  52.2096682  52.0776749   8.0620903
  52.6904154  51.4621925   7.5086522  51.3207769  51.7243052   8.0971885
  76.8966753  53.4226088  50.8018515  77.1482784  52.5205819  50.6036780
  77.7084143  53.8397972  51.0904035  24.3970870  45.4266071  41.0920906
  24.1892337  44.9747181  41.9099140  24.2873095  44.7590017  40.4149771
  67.7408552  66.1696911  34.7388291  68.2613754  66.5114021  34.0118337
  68.2237005  65.3991318  35.0377083  46.8691206  29.9148822   2.1539079
  46.7988873  29.9072385   1.1993187  47.2447777  30.7709265   2.3595810
  53.9098454  44.2971897  26.8285418  53.2917356  43.6602592  27.1870065
  54.4555521  44.5471859  27.5741529  81.5900612  48.7799025  28.0176473
  82.0516968  48.9482021  27.1961856  82.2779560  48.7796307  28.6832547
  51.5153933  32.6533914  19.5228493  51.9362783  31.8438578  19.2334723
  50.8458424  32.3665071  20.1438403  60.7909107  42.7215147  35.6358218
  60.5127335  42.9015112  36.5338469  60.1370525  43.1587362  35.0903511
   0.3207969  41.9924068   1.6293170  -0.0800515  42.6069498   1.0145913
   0.3748511  41.1691380   1.1439921  31.4304143  77.7849846  64.5952014
  31.4463502  77.7910547  63.6381534  30.7840043  78.4513812  64.8282120
  69.9115267  12.5458930  60.0707046  69.3464651  12.9206345  60.7463542
  70.8006182  12.6929495  60.3933934  46.3580608  41.9869995  10.1806974
  46.4131069  42.0357800  11.1350667  47.1168900  41.4633226   9.9234724
  52.5698948  39.2305088  11.3083470  52.2930336  40.1447916  11.3689005
  52.4464607  39.0034175  10.3867042  64.3768120  44.7004604  12.3698652
  63.5209370  44.2720270  12.3577559  64.9991322  43.9882231  12.5170434
  54.0281477  22.1538899  68.0454228  53.6801520  22.8586552  67.4991294
  54.9713316  22.3149130  68.0719999  67.3531961  15.4017329  11.8257642
  68.2567596  15.0859439  11.8346596  67.0983410  15.3725302  10.9035778
  76.0744667  31.9486618  63.3194685  75.4672050  32.5519276  63.7478781
  76.2032127  31.2458777  63.9564562  33.7751698  54.1184807  13.0668092
  33.8363457  54.3509245  13.9933395  32.9907441  54.5715141  12.7575064
  56.6767931  29.8226500  41.1520386  56.9517279  30.6142259  40.6893826
  57.2803450  29.1451740  40.8471155  29.7144985  51.0032320  13.0357754
  30.3439021  51.2870502  13.6987448  28.9422035  50.7395506  13.5360432
  61.4537764  53.9516973  29.1855884  61.5542030  53.3171654  28.4759998
  61.3359928  54.7912836  28.7412333   3.6508178  49.5043802  10.1835358
   3.0630397  49.8233843   9.4987029   3.7777232  50.2576971  10.7602847
  27.3392096  10.6586859  69.6209767  28.0066004  10.8208535  68.9542479
  26.9822874  11.5246794  69.8181983  77.3682261  50.5692816   7.3609316
  78.1161356  50.5054474   6.7669731  76.6126871  50.3387499   6.8203288
  53.2926369  30.6227899  18.7669027  54.1524839  30.5779195  19.1851008
  53.4389114  31.1373878  17.9731619  21.1412325  15.1901076  66.2211010
  20.6581154  15.9697459  65.9472403  21.5656891  15.4466507  67.0397935
  56.1014795  61.8838501  43.8886356  56.0946035  61.3791418  43.0753374
  56.3704014  61.2551212  44.5584202  38.8731503  34.7344851   7.6494890
  38.1207561  34.5023179   7.1052128  39.5581865  34.9693465   7.0235527
   6.3154315  60.0555611   0.8699495   6.6624926  60.8960915   0.5711310
   5.4218959  60.2518511   1.1515260  61.4510114  64.5852403  54.9163816
  60.8476622  63.8619022  55.0866351  61.4117343  64.7118215  53.9684019
  82.1696663  25.0843954  59.7363424  81.8532181  25.0974345  60.6396246
  82.4694061  24.1855407  59.6005201  68.3659840  65.7694149  10.5877876
  68.2810831  66.5744305  10.0769305  68.9848614  65.9913635  11.2834609
  61.1902618  12.4604344  27.7902436  61.6044235  12.3802471  26.9310188
  60.2539253  12.5188947  27.6002789  28.1426048  63.0971241  22.4985933
  27.2692180  62.9794502  22.8721952  28.2026458  64.0357733  22.3209453
  70.9413004  68.8485289  13.0816460  71.0969257  69.5074129  12.4049747
  70.5609751  69.3388748  13.8104415  83.6751652   7.3311573  27.7300572
  83.2439518   7.9450011  27.1355176  84.2553520   7.8781444  28.2596064
  69.8857450  26.9532490  25.0389552  70.4889488  27.6055789  25.3951025
  69.4906902  27.3816776  24.2796063  72.5668153   0.7834380  32.5607824
  72.2668514   1.4321177  33.1975460  71.9118318   0.0866454  32.6020312
  27.8760052  43.2319689   4.5363584  27.3068881  43.0563879   5.2856970
  27.8623199  44.1845322   4.4432133  63.9043570  40.3254271  24.2967916
  63.0584002  39.8873925  24.3901396  63.7580872  41.2053108  24.6441269
  44.3998861  58.9517307  34.5930529  44.0149879  58.1137514  34.3363953
  45.1375580  58.7143898  35.1549649  12.5035285  60.6831598  32.2455740
  13.2474707  61.2852287  32.2629499  12.8840064  59.8266268  32.4400401
  47.0625544  13.1541359  11.8731105  47.6410818  13.5048544  12.5502598
  46.4220572  12.6295006  12.3534822  78.2005405  39.9590492  36.6644979
  78.7730932  39.5776033  35.9989810  77.3244810  39.6517539  36.4314270
  61.6381216  50.1601791  34.0119982  60.8138514  49.9391937  34.4455600
  61.4072514  50.8598137  33.4009004  46.4908600  27.2003245   3.2210153
  46.9692850  27.4147797   4.0218592  46.6012430  27.9699564   2.6627028
  54.7158003  21.2823486  21.7813039  55.3462458  21.9911122  21.6531444
  53.9216614  21.7205715  22.0871425  36.8484822  54.3942363  13.2399404
  37.5301304  53.7227852  13.2128203  36.0321989  53.9123733  13.1067896
  51.2867117  42.6892757  21.5881205  51.4275169  41.8473434  21.1550474
  50.9207201  42.4608517  22.4425840  68.1847715  27.8528523  20.4430795
  67.7992153  26.9796968  20.3711534  67.8667831  28.3194995  19.6701932
  26.9913530  45.6129885  10.8162999  27.0149875  44.7123384  10.4930234
  27.7536845  46.0311985  10.4160714  56.8449497  39.1032791  12.7507317
  56.1006069  38.6810398  12.3218977  57.3894072  39.4189382  12.0295107
  33.2519999  76.9819392  39.3908072  33.4335652  77.8381438  39.0032768
  33.3169928  77.1275789  40.3346300  62.7798939  26.7839122  31.4824724
  62.7810431  25.8963466  31.8408847  62.7675295  26.6590047  30.5335379
  54.2574007  53.1944542  35.9681258  54.4449837  53.8105838  35.2600107
  54.6389396  52.3675184  35.6734452   6.9527205   8.8219588  35.7048345
   6.3189324   8.3889621  35.1329374   7.2862872   8.1219428  36.2660360
  57.7294636  45.2420187  26.4333725  57.6877737  46.1394978  26.1031795
  57.1562862  45.2419901  27.1999884  65.0262117  27.5671983  19.7873139
  65.2302694  28.4032011  19.3681586  64.1404867  27.3598170  19.4894600
  19.0486031  58.4833233  48.8205871  19.3795710  58.5494010  47.9248628
  18.6778622  59.3467002  49.0032420  71.6308594  53.3220196  21.4460373
  71.3875723  52.3966169  21.4719057  71.2819433  53.6842585  22.2604513
  59.8284149  37.7626729  10.5735683  59.2876387  38.5484076  10.6536484
  60.6601334  38.0792451  10.2210701  21.7700138  25.1806948  62.5898329
  21.5804139  25.3487656  61.6667745  21.9148007  24.2356560  62.6363919
  82.4063110  47.6192284  33.2205462  81.8176174  47.9655027  32.5498986
  82.5093079  48.3386803  33.8434505  80.5262280  16.8191099   4.0673977
  80.1803780  16.7716050   4.9586672  80.4466534  15.9262466   3.7316984
  73.7796545  36.4028573  51.9101334  73.4967470  37.1063089  52.4943829
  73.0068731  35.8463311  51.8136024  49.3271351  40.2771759  23.1666374
  49.3322992  41.1862850  23.4661722  48.6732101  40.2589417  22.4678636
  18.7292861  54.3812227  20.8346105  18.5574340  54.9969292  21.5470791
  18.9843463  54.9344301  20.0962782  47.8318116  11.4134353  33.8121414
  48.6985407  11.0237449  33.9268398  47.3495051  10.7745498  33.2873249
   2.1699601  52.6102440  68.5939517   2.3527032  51.7216711  68.8993610
   1.8495494  53.0692343  69.3704151   9.4278334  53.8803625   9.8162162
  10.0794124  54.5783806   9.7495359   8.7871741  54.0848875   9.1350687
  72.5067520  45.7780647   7.7453154  72.3134613  46.2897396   8.5308486
  71.6524363  45.4672146   7.4457264  72.2888756  54.8392868  32.0521212
  72.4465513  55.7720232  31.9059253  71.6463518  54.8132372  32.7611446
  67.4554014  68.2443714  21.8410563  67.3610401  68.8346529  21.0934639
  68.2143307  67.7028131  21.6243315  15.0467872   8.6299193  32.3801708
  14.7942447   8.6874169  33.3016610  15.5481337   7.8167707  32.3195124
  13.2801762  27.2736285  58.8766763  13.8979426  26.5430758  58.9064035
  12.4177161  26.8591139  58.9005968   1.3213920  47.9913616   7.1544927
   2.2307681  48.1921482   6.9332480   1.3380622  47.8093576   8.0940825
  82.5842190  51.5705919  33.7261915  81.7948532  51.1227894  33.4219027
  82.3785019  52.5017166  33.6430216  82.0811272  79.6320772  41.8903780
  82.2043705  80.4921150  42.2920895  81.8614006  79.8229170  40.9784937
  74.2913866  79.6723986  37.1705198  74.8454952  78.9000988  37.0576262
  73.5107994  79.3439817  37.6166797  53.3169174  35.0971937  30.0650167
  54.0747452  34.7188449  30.5108643  53.0979300  34.4615793  29.3836427
  85.1016235  45.8428001  22.7775574  84.5843601  45.0976181  22.4719906
  85.6025314  45.4993773  23.5174084  44.8022509  31.7932558  14.1006339
  45.3553915  31.9627762  14.8632145  44.7546959  32.6349950  13.6473739
  67.0969009  76.6915703  40.2422905  66.8456364  76.8057966  41.1588287
  66.3638878  77.0555258  39.7458410   1.9864463  42.6769257  39.6372819
   2.4766539  42.7699852  38.8204217   1.3617228  43.4020615  39.6256495
  74.9334812  73.1911182  11.8040693  74.2670202  73.8554573  11.6287982
  74.9630404  72.6648712  11.0050571  66.4915762  25.3079837  24.3809843
  67.2218952  25.8104174  24.7421360  66.9006118  24.6993010  23.7658215
  81.1522102  49.3136406  17.5191927  80.2307701  49.5637846  17.4512076
  81.4038849  49.0812922  16.6253781  20.8522605  65.2361488  19.9096680
  20.7943629  64.4321966  20.4259443  21.6689681  65.6457567  20.1950502
  45.9300652  16.1873219  57.7015171  46.1686840  15.2812598  57.5057063
  45.3368273  16.1223815  58.4499047  78.0931568  58.1436300  21.0786247
  78.9044619  58.5750437  20.8104944  78.3816004  57.3872328  21.5894032
  28.3163667  56.6673756  51.8126154  28.2435036  56.7256594  50.8599710
  29.2169857  56.3822365  51.9669437  51.3214882   5.7184928  14.7617376
  51.6527470   5.1473658  14.0686941  51.2433251   6.5776866  14.3471265
  23.7995758   0.6232283  63.2876787  22.9701605   0.8946965  62.8944734
  23.6731806   0.7537768  64.2274729  46.2507772  61.7851782  25.7262158
  45.7160330  62.2722387  26.3531518  45.6687021  61.6339731  24.9815273
  76.6588354  62.7429247  12.4120307  75.7719946  62.3969650  12.3117316
  77.1223021  62.4444056  11.6295242  66.5738869  30.7570171  35.0634551
  66.6909075  31.6927862  35.2273798  67.1283388  30.3284621  35.7154942
  73.6058426  66.7370939  21.9370770  73.6609077  67.6829243  21.8006778
  74.0891695  66.5836382  22.7489138  61.9381666  45.4019403  29.8061228
  62.8319883  45.0811625  29.9262023  61.9549131  45.8459330  28.9582896
  62.5905886  31.0184166  67.2019777  62.5789252  30.0734780  67.0496995
  63.0961790  31.3726780  66.4704648  16.5951785   4.4881385   4.5451447
  16.9407710   3.6428778   4.8321053  17.3383912   5.0872081   4.6157452
  28.9346957  65.8409119  45.3472042  29.1533494  64.9230671  45.1859951
  28.0276799  65.9262085  45.0534773  69.9224043  77.4316978  35.6676769
  69.4398689  78.2094622  35.3875399  69.7013998  77.3333979  36.5938139
  54.2656851  58.3555031  41.3804674  54.1261864  57.8332472  40.5905199
  54.2949247  57.7135849  42.0899153  64.6578598  40.8090639   4.2007425
  64.0520906  41.3549328   4.7020468  64.9058819  41.3517046   3.4522402
  40.1037064  14.6804545  59.6751866  39.9290982  14.1203854  60.4315374
  39.3519774  15.2717469  59.6363780  65.0164461  32.0263386  11.2217581
  64.8649883  31.1664104  11.6139483  65.3081512  31.8350339  10.3303862
  81.9098186  58.5067415  35.9760880  82.1923065  57.8803444  35.3097081
  81.6934204  59.2987013  35.4839492   8.4128991   4.9375222  68.1156487
   8.3087244   5.6390545  68.7584811   9.1488209   5.2183554  67.5717910
  50.2590227  58.4022999  16.1128640  49.3395662  58.1684542  16.2399566
  50.6063414  58.4989834  16.9995725  63.3429527  66.4810658  51.8323421
  63.5001612  67.3209381  51.4009142  63.3878136  66.6800976  52.7675486
  53.7542343  50.8980751  13.6365449  53.5137272  50.1751661  14.2160213
  52.9969835  51.4832211  13.6565924  79.8769474  77.9970169  41.8861294
  80.1136494  77.0741940  41.7933702  80.7077599  78.4662247  41.8097782
  39.2192116  32.9185603  66.3766653  38.8212195  32.7350209  67.2276345
  38.5023489  33.2681296  65.8473799  50.7687616  80.1796341  54.5420027
  50.2557993  80.3631210  55.3290415  51.6613436  80.4374409  54.7723532
  70.6251144  77.2939634  27.1329474  70.2088404  76.7925119  26.4318824
  71.4915371  77.5120926  26.7894840  65.0085959  25.4279177  28.3937955
  65.8527884  25.8658164  28.2851291  65.2329645  24.5440333  28.6847305
  60.7353830  40.3880215   3.1237388  60.7762623  41.0836315   2.4674727
  61.6356897  40.0702667   3.1923613  28.5249909   1.4998572  28.1698084
  28.4354695   2.2831099  27.6269150  27.7440651   0.9821551  27.9739690
  52.6630974  72.9399490  37.9416752  53.2403517  73.5851431  37.5333357
  52.8244734  72.1319294  37.4545431  62.1473932  66.7977333  12.1981215
  62.3538065  66.8463087  11.2647045  62.6404858  66.0402918  12.5133610
  11.2532138  76.8205976  38.1570840  11.8060111  77.5721312  38.3712173
  10.7449149  77.1057701  37.3977828   7.3995208  74.2271280  16.7587221
   7.0369529  74.6694231  15.9911668   6.8146991  74.4731522  17.4754405
  69.4209766  43.6086798  35.4297519  69.3050146  42.6925659  35.1777267
  69.2155409  44.1032028  34.6363568  19.1777745  27.2122452  62.6614651
  19.1856089  28.0232165  63.1698904  20.1024285  27.0102141  62.5185469
  43.8983202  10.5367732   9.0968740  43.6396313  10.3318882   8.1983572
  43.8668108  11.4923322   9.1432083  74.2499876  61.2056208  45.9573269
  75.1321507  61.0120678  45.6402206  74.3641186  61.3795471  46.8916464
   2.8091565  18.9208672  65.8731455   2.0497265  18.9829609  66.4524913
   3.5423556  19.2295954  66.4054391  69.5300245  50.1504660  41.9028711
  69.6180105  49.2069054  42.0377064  70.3305054  50.5211782  42.2744036
   0.6963118  14.1476291  21.1788487  -0.0110284  14.7042125  21.5045977
   1.4423998  14.3544905  21.7416930  83.5617256  56.6560555  20.6895280
  84.1913986  56.5488958  21.4024520  84.0219116  57.1897316  20.0417209
  41.7178717  17.4759839  60.6481389  42.6322642  17.2899935  60.8615122
  41.7282620  17.6892445  59.7150550  56.9774055  66.8971634  17.1614492
  57.8249502  66.7072248  16.7591810  56.7881107  67.8000784  16.9062126
  65.8809376  57.1893692   0.2230355  65.2720165  56.5867615   0.6500143
  66.4903688  57.4447060   0.9155843  21.2865057  12.9567978  59.6041951
  20.7751503  13.7650178  59.6433661  21.2122717  12.6702902  58.6939034
   8.5265921  44.7955132   5.3050458   8.2416056  45.6835413   5.0895792
   8.6380576  44.8037767   6.2556976  78.6020517  44.5229530  14.6313059
  78.7242413  43.5977316  14.8440635  77.7516222  44.7455311  15.0100732
  56.9379139  63.2430267  35.1587749  57.5317383  63.9342785  35.4516482
  56.8307447  62.6789427  35.9246445   4.3108176  56.4981031  18.4731781
   4.2702102  56.0122108  17.6494718   5.1990985  56.8538809  18.4978461
  42.8665686  25.8129287  19.1954935  42.1438646  26.2606716  19.6353292
  42.8771782  26.1845064  18.3134222  32.1177664   5.6249068  58.7588248
  31.1840763   5.4747317  58.9068088  32.5549832   5.0676415  59.4026611
  62.2554717  12.5058215  25.3353190  62.7133569  13.3096164  25.0893831
  62.2769866  11.9664805  24.5448256  16.4204939   7.2827666  30.2858067
  15.6548937   6.7981952  30.5944920  17.0541962   6.6049521  30.0508070
  72.8835058  54.8118830  38.0721569  72.6888752  54.1535711  38.7392235
  73.1771708  55.5760050  38.5682487  37.4956322  77.0541859  29.7469759
  36.6410542  77.3906183  29.4772720  38.0818820  77.8078413  29.6795702
  73.7550411  10.6505339  39.6727633  74.0664825  10.5725329  38.7710142
  72.9666767  10.1084273  39.7016120  56.3402089   8.5465377  14.9286246
  56.6921242   7.6591342  14.9987316  56.3515194   8.7352412  13.9902782
  34.8955925  12.2070735   5.5016398  34.0235527  12.4780982   5.7885581
  34.7414978  11.4226096   4.9752444  27.8152156  34.4721484   0.3415161
  27.2670841  35.2159619   0.5915662  27.2609711  33.7058401   0.4892188
  66.3231268  18.2944558  66.3807702  65.4946700  18.2149098  65.9079463
  66.6783419  17.4056885  66.3927734  59.8547888  49.4281578  27.5906897
  60.4189777  49.0726280  26.9040179  60.3047514  49.2104340  28.4069967
  70.3029060  60.5828810  22.1826553  69.4130087  60.5247593  21.8348956
  70.7874727  59.9021673  21.7156887  61.1403361  19.5740864  48.3180032
  61.5565005  20.1164410  48.9879951  61.7969695  18.9111207  48.1046161
  57.9588652  39.6351457  31.1915803  58.3009100  39.3924785  30.3311443
  57.3698473  38.9180183  31.4261293  63.8573742  49.0112257  19.1537356
  64.0527916  48.4588432  18.3968222  63.8661385  49.9036169  18.8076341
  83.2803440  57.4164152  10.9165883  83.7662125  57.5264597  11.7339361
  82.7142239  56.6608667  11.0743451  77.6271486  77.3381090   5.1377487
  76.9170332  77.9509974   4.9471188  77.9744387  77.0991278   4.2783818
  75.3708896   6.5579837  23.0247188  74.4983301   6.1649173  23.0055666
  75.6107864   6.5635531  23.9513516   3.2467173  44.8269701  27.1232080
   2.9634093  43.9954138  27.5033116   3.1851004  45.4533195  27.8443980
  12.9441737  67.8572273   8.7066162  13.0245780  68.2668829   9.5679820
  12.0005797  67.7868748   8.5619944  59.5230103  66.7817926   6.9485199
  59.4642878  67.2405624   7.7865613  60.0217867  65.9885788   7.1441329
  65.6589985   7.1240011  47.2535572  65.1086283   7.0208707  48.0298862
  66.3146639   6.4309373  47.3309979  55.6027651  69.8767567  32.5209188
  55.4976559  70.6313324  31.9414377  55.0005150  69.2202377  32.1708965
  71.9843197  59.3137693  20.3909516  72.3115635  59.4993830  19.5107853
  72.7729511  59.1745758  20.9152818  75.9581327  45.5864906  54.0879965
  76.0429382  45.9338665  53.2000971  76.6747618  45.9942818  54.5741892
  58.5994387  48.8840532  16.2064826  58.7287712  49.7597122  15.8421612
  59.2686081  48.8063192  16.8864810  10.0887354  19.2827266  14.7641695
   9.2113837  19.6489756  14.8753250  10.4755648  19.7982161  14.0564454
  47.1376371  45.4705191   2.9746348  47.1960926  46.4150858   3.1182092
  48.0401611  45.1605701   3.0495098  29.7858333  42.8445911  12.4289298
  30.4272841  43.4213018  12.8438830  28.9585875  43.3220434  12.4916327
  23.5354241  52.8680747  43.1032228  23.4441098  53.5438388  42.4314737
  22.6508864  52.5194209  43.2140112  77.4293184  50.4815769  29.1992664
  77.8723001  49.7865629  28.7124848  76.7810440  50.8277845  28.5859871
  78.1106272  23.2195303  67.0436621  78.4217158  22.7547524  66.2668553
  78.9051524  23.5662768  67.4495218  57.3926926  60.3119516  18.6779010
  57.2924423  61.2346792  18.9119005  56.5998411  60.1025581  18.1841743
  62.7084684  50.4820919  46.6213465  63.5490227  50.4199123  46.1676502
  62.9415131  50.6073189  47.5412560  79.1566563  33.7685037  10.2975953
  78.2529545  34.0614104  10.4149127  79.0773201  32.8782988   9.9548489
  62.3635197  63.8738155  26.9989586  63.0660009  63.7963390  27.6445222
  61.7793751  64.5408916  27.3595309  55.1227984   2.1939318   6.2526381
  54.7942433   2.8581374   5.6467420  55.0035152   1.3657229   5.7877940
  60.3689384  53.4201479   5.3487188  59.9550962  53.3083153   4.4928795
  60.2452993  54.3465710   5.5553257  21.2382897  12.6731723  30.6128883
  20.3572663  12.2990268  30.6064153  21.6713150  12.2793525  29.8555040
  59.5381641  72.6100492  25.4718566  60.0101995  71.7961836  25.2956676
  58.6150646  72.3568392  25.4696012  33.0014675  73.0516548  18.2105961
  33.4801500  72.5501652  17.5505867  32.7191465  72.3977394  18.8500633
   6.9446277  28.9603662  23.7771440   6.4306067  28.2740068  24.2024899
   6.3506125  29.3368697  23.1278229  58.0180693  59.0862370  29.0812635
  57.8091764  59.3959856  28.1999850  57.1749926  58.8188410  29.4472599
  56.2805510  55.5004740   2.7979368  56.2619543  56.0524321   2.0161256
  55.8346987  54.6957445   2.5336450  80.7631237  61.5561871  55.8333823
  79.9627382  61.4070205  55.3300307  81.4565355  61.1645870  55.3022942
  16.5771475  28.3883498  61.1049953  16.9565716  28.5032389  61.9762412
  17.3322335  28.2716200  60.5284092  45.4947662  51.3538170  27.5941706
  44.6928740  51.0455227  28.0162549  46.1024475  51.5073299  28.3176303
  61.4938211  46.7846012  10.8758068  62.0484066  46.9883490  10.1227093
  61.8915462  47.2637653  11.6027522  42.1875658  80.2925810  17.5334013
  42.8728953  79.7471292  17.1473503  41.5176382  80.3531511  16.8524039
  21.3108786   3.0179255  50.9726858  21.6283043   3.4831946  51.7466354
  21.0151204   3.7102549  50.3815603  57.1609259  59.8814583   6.0946286
  57.3339128  60.8169556   5.9890109  56.3225937  59.8433924   6.5550405
  75.2818298  78.9007664   4.5513225  75.0494623  79.4484282   3.8014501
  74.8198891  78.0765104   4.3982127  22.6418391  41.9327090  66.3637773
  21.9889822  42.2245429  67.0000476  22.1293154  41.5346358  65.6601522
  34.3290925  35.7457161   6.6025704  35.0603843  35.1392531   6.7194074
  33.5817456  35.1833487   6.3989842   2.3627787  54.6572177  66.7567996
   2.1255284  55.5518417  67.0009128   1.9398623  54.1085522  67.4173618
  61.7255688  72.8810358  27.4606347  61.7295456  72.5245571  28.3489680
  60.9364891  72.5164700  27.0597911  63.7743464   7.5185130  59.0402982
  64.2801752   7.6171086  58.2336662  63.1864252   8.2738421  59.0481684
  70.4203922  73.3578829  59.8266653  71.3404400  73.3501940  60.0906429
  70.2031977  72.4359755  59.6883068  21.7363101  79.3469815  52.1254835
  21.3731366  78.4630017  52.1794448  21.5178948  79.6421056  51.2414989
  57.5772381  52.4441195  22.9321837  57.8232479  51.9604492  22.1436596
  56.6640520  52.6912594  22.7864337  41.5698957  62.8498650  20.1260948
  40.9170771  63.4205341  19.7206318  41.9914818  62.4070978  19.3895781
  32.8166047  48.8569758  60.3838137  32.3986473  48.9141676  59.5245859
  32.7009144  47.9437182  60.6461183  59.1201481   0.7713168  10.6058407
  59.6045527   1.5459101  10.8914721  59.7686777   0.0673335  10.6124651
  50.8836365  65.4398108  36.4212012  50.0262308  65.1790285  36.0849237
  51.4951944  65.2106047  35.7214236  64.1096544  79.8381853  27.9655552
  63.2732821  79.8890495  27.5028181  64.2691946  78.9001179  28.0695200
  34.0601444  54.8148012  16.0972512  33.4939599  54.6611881  16.8536043
  34.1871572  55.7634115  16.0818708  36.0782328  12.3650525  62.6449636
  35.6928578  12.0605252  61.8233899  35.3263941  12.5807259  63.1967375
  77.1479750  45.8282804   5.6364447  76.4182091  45.3758430   5.2133954
  77.7567434  45.1294088   5.8756506  28.3962601  16.6156168   7.0784846
  28.8518971  16.7751141   6.2519350  28.6307686  17.3625393   7.6292553
  25.1648703  20.9549687  66.3645468  24.5335188  21.3651440  66.9556323
  24.9641791  20.0201962  66.4109877  13.7242602  19.3743110  41.4779758
  14.6155833  19.4001365  41.1299562  13.8388823  19.2699146  42.4225378
  53.7950039  62.9083490  16.7694652  54.0874004  62.9785585  17.6782048
  53.1681442  62.1849871  16.7747676  53.6603728  41.7358611  64.5138374
  53.7795821  41.7381594  65.4635820  52.7989092  42.1309588  64.3796221
  54.8424673  67.4930096  57.4068451  53.9771032  67.9020596  57.4145985
  54.6739388  66.5804529  57.1721840  81.4373007  21.8097661  62.0113299
  80.6006041  22.2602294  62.1265111  81.7380038  21.6315053  62.9024139
  79.5451593  36.5382552  27.8079462  78.9232063  35.8764362  28.1102657
  79.1680574  36.8661118  26.9915295   0.0645255  18.2808793   6.7085016
   0.7585238  18.0315340   6.0982352  -0.4921723  18.8769853   6.2075305
  66.2379646  72.0809031  38.3152890  65.6209803  72.8077841  38.4002209
  66.9496965  72.2993231  38.9169216  74.3144321  28.3351374  29.4271946
  74.5246935  27.5726843  29.9663496  73.7665272  27.9872227  28.7236404
  49.7598791  30.8129930   5.2477604  50.4435778  30.2094364   4.9570513
  50.2124071  31.4268112   5.8262742  37.5431991  55.2968264   5.0957805
  37.7318454  54.3817949   5.3040200  36.9179440  55.2538204   4.3722892
  79.2643166  71.3542843   6.6897380  79.1169310  72.2028732   7.1073556
  80.0245380  71.4940071   6.1251402  51.4743081  19.5358870  42.7862201
  51.3520184  19.9640725  41.9389114  51.6996184  18.6316941  42.5673470
  76.0014486  76.4712429  46.5127277  76.0279655  75.8690834  45.7691336
  76.8797827  76.8503094  46.5453959  53.8219157  15.1366255  69.3298749
  54.5371333  15.5586836  69.8058554  53.0678549  15.2117560  69.9146671
  53.1132126  79.6214914   6.8248457  52.7679443  79.2675924   7.6444656
  53.3290052  78.8489676   6.3024712  64.5476532  74.4994450   5.3617090
  64.6552753  73.8827467   4.6376008  64.7629499  73.9908266   6.1434925
  42.1192789  69.2276478  12.6478231  42.7717400  69.9088001  12.8108001
  41.6332293  69.5393181  11.8843746  74.7322241  37.2996399  35.9999714
  73.9207963  37.1329520  36.4795885  75.2893666  36.5483592  36.2034545
  80.0815773  74.4997597   2.1618080  80.6270123  74.3008232   1.4007801
  80.5005741  75.2603436   2.5645328  36.8204346  14.8322413  64.9276919
  35.9794846  14.4975350  64.6162305  37.3284617  14.0479109  65.1349566
  76.1838722  38.7239218   2.8577697  75.4348230  38.5485077   2.2882222
  76.4875317  37.8572750   3.1278539  63.0449963  74.5816326  51.6276979
  63.8537216  74.4279766  51.1392498  63.0675697  75.5144930  51.8409872
  83.9858818  34.8174548   8.2606232  84.3004417  35.4900289   7.6565319
  83.0559826  35.0138021   8.3745277  46.1914539  59.7391844  37.7235460
  45.3396082  60.0634146  37.4311924  46.7899847  59.9616003  37.0104384
  27.4853206  69.3399620  54.2853832  27.7612805  68.6077595  54.8367071
  28.3022451  69.7046804  53.9450169  65.1916647  61.9666481  16.9264483
  64.7131777  61.1675739  16.7056143  64.7753143  62.6485538  16.3992953
   3.7727555  27.5628989  50.2700663   3.8144501  27.9569285  51.1414099
   4.6770867  27.3174804  50.0746632  45.0536776  66.5850496  26.8025994
  44.7663498  66.0759592  26.0446405  45.9120560  66.9257069  26.5508676
  69.4558907  70.7923317  44.6475840  69.7157907  70.5621386  43.7555695
  68.5039186  70.6925726  44.6529722  57.1453285  41.0745907  22.1408153
  57.7112579  41.3157606  22.8741550  57.1254349  41.8549824  21.5868974
   3.7374686  55.1793242  29.3774199   3.9645289  55.2631092  28.4513211
   3.2439517  55.9750986  29.5759702  64.0504122  57.0595932  26.2052965
  63.9654875  57.8104401  25.6177163  63.8524961  57.4111557  27.0733213
  41.6989088  15.9705639  13.5674691  41.7960787  15.4910541  14.3901849
  42.5572824  15.9047031  13.1490350   3.6418017  10.8538478  41.8972445
   4.1287907  10.7281535  42.7116585   3.3785256   9.9711459  41.6369343
  62.5943995  44.8922491   1.7849748  63.0483484  44.1120863   1.4663672
  62.9890251  45.0667953   2.6393956  42.0691472  62.1834283  55.4683099
  41.6507130  63.0412869  55.3960631  41.6074448  61.7515020  56.1869905
   9.3189009  10.4205745  35.7706451   9.1410693  11.3087886  36.0799718
   8.4863146   9.9597590  35.8740115  60.5403709  75.2616930  13.6225879
  60.1731873  74.3802452  13.6893940  59.9479389  75.8077478  14.1393840
  75.8406591   7.6435041  16.7997086  75.9617138   6.7240703  16.5626049
  76.0817528   8.1281757  16.0102797   6.6942769  63.0480365  66.3149539
   7.5981408  62.7599601  66.1874009   6.5436488  62.9547696  67.2556159
   7.6782425   0.3096717  19.6624303   6.8426665   0.7766097  19.6576643
   7.4383124  -0.6094749  19.7800326  83.4433270  65.6356859  40.6609011
  83.6574173  66.0394001  41.5019798  83.6505508  64.7088623  40.7804441
  65.9420538  48.5804272  29.4051528  66.5369320  48.0377150  28.8876438
  66.5192080  49.1400099  29.9247622  60.2529335  49.3613195  36.5455174
  61.1329889  48.9872456  36.5030074  59.6804237  48.6635017  36.2269115
  60.3649035  40.2136443  60.7018480  60.6195536  40.5077670  61.5764186
  60.5743590  39.2796824  60.6928185   7.2148894  63.3016253  14.1521561
   7.0868586  63.7674141  14.9785244   8.0722236  63.5939980  13.8427556
  69.2469454  65.9928226  21.5465808  70.0721836  65.8683443  21.0778451
  68.8218021  65.1358080  21.5147853  22.9097374   9.6648448  49.4377708
  22.0406588   9.2682307  49.4980049  23.3094986   9.2507499  48.6729527
  63.0259037  72.8181076  56.0532856  62.3501492  73.4823847  56.1886454
  62.6304626  72.1949005  55.4438019  78.3991203   5.8938639  10.3118646
  77.5213012   6.1584227  10.5869544  78.9607248   6.1196845  11.0533762
  55.0006094  10.3628895  54.2877254  55.5787554  10.8158085  53.6738429
  54.1418734  10.3802321  53.8652370  18.0352496  63.7949419  42.9463530
  17.9327487  62.9551363  43.3940697  18.9455031  64.0430164  43.1079960
  76.1957941  12.8104441  18.5138154  76.5491829  12.5818198  17.6541173
  76.8983039  12.5938933  19.1268539  27.7187165   9.2259925  26.7754316
  28.4066399   8.8680117  27.3365378  27.9067429   8.8679164  25.9078717
  82.1087837  66.5059805  14.4088554  82.3581314  65.9850788  15.1722181
  82.9126072  66.9598579  14.1556799   2.5585841  65.9537172   2.4849936
   2.9412269  65.3419733   1.8560359   3.3119964  66.3830471   2.8902897
  79.8328018  48.5843897   2.6514485  80.3950882  47.8282356   2.8196555
  79.3057823  48.3273840   1.8948561  17.0675047   9.5812552  23.9450574
  16.3214167  10.1545375  24.1209602  17.6636704  10.1175826  23.4224010
   2.4466514  65.7337761  37.7321744   2.7169036  65.4714489  36.8521881
   1.7017840  65.1670980  37.9328799  13.8861083  30.6558490  34.7379565
  13.8317775  30.6301141  33.7826443  13.0229377  30.3676558  35.0347972
  72.3428011  70.7665777  30.6470537  71.5750980  70.8701277  30.0847864
  72.9530191  71.4396095  30.3455687  32.3743065   7.5220816  35.8872628
  31.5213307   7.5427096  35.4534006  32.8745945   6.8667643  35.4009509
  29.7982970  37.1458409  55.3608713  30.2598420  36.5540717  54.7667203
  30.3159037  37.9509041  55.3469834  78.0473757  55.2005386  33.4623504
  78.3649445  54.4235039  33.9223456  78.7221336  55.8619785  33.6154342
  80.7639408  80.1612473  39.3785930  80.7836342  80.6601048  38.5619020
  79.8365736  79.9719048  39.5212936  42.1824446   4.0148375  68.0471252
  41.2761584   4.3211148  68.0798923  42.6017800   4.4262860  68.8028366
  38.5518750   4.9045127  30.2158809  39.0329274   4.1565841  30.5700445
  39.1019162   5.2266829  29.5018125   3.0934333  52.2670317  32.3826957
   2.6378821  52.1979904  31.5436816   2.6911448  51.5924978  32.9298735
  56.0754776  73.1378794  32.6256847  55.3621244  72.8899336  33.2138062
  55.7360554  72.9589844  31.7487478  20.5802630  64.9339056   7.5427330
  21.1563014  64.9274445   8.3071768  19.7832297  64.4948435   7.8397089
  23.3362969  10.4639476  20.8556914  23.6526783   9.5667785  20.9616613
  22.4242505  10.4319613  21.1444521  73.1806326  78.9691544  22.9638100
  73.4031487  79.1540670  22.0513821  73.6278391  79.6527958  23.4626842
  62.8893938  11.7493985  69.5077387  62.0622340  11.4684222  69.1164753
  63.4948435  11.0294507  69.3307194  47.0590695  34.5817035   4.5903960
  46.1290368  34.6773761   4.7956237  47.1379956  34.8895018   3.6874741
   4.8310946  49.4672060  38.0134845   4.4134806  48.6060762  38.0304551
   4.1171359  50.0829411  38.1788874  14.0584658  64.3209362  30.1395202
  14.6576213  64.9633455  30.5197144  14.4573974  64.0881729  29.3011236
  20.0388527  75.5998039  31.9291520  20.6068325  76.3686562  31.8792272
  19.9274516  75.3248215  31.0190940   0.9553717  61.6140747  28.2334518
   0.1696109  62.1238804  28.4307075   0.6464003  60.9076118  27.6662827
  66.2354422  46.8493366   1.2559141  67.0848513  47.2841072   1.3314193
  66.4196873  45.9292459   1.4449064  72.1867943  58.5129404  60.4356480
  71.9245720  59.2852211  60.9366941  73.0667114  58.3091974  60.7526207
  23.6986866  57.8967817  24.5849919  23.7974062  58.1864960  23.6780453
  23.6360970  58.7075407  25.0899506  58.9098072   7.4298477  19.4928038
  59.6789646   6.9570720  19.8107827  59.2260027   8.3180821  19.3276036
  69.9056482  36.9250226  13.2275760  70.5403900  37.5928855  13.4869874
  69.9156046  36.9439888  12.2706163   2.9084292  58.3521254  34.7713137
   2.1269932  58.2391317  35.3124452   3.3772579  59.0814287  35.1769567
   9.4766679  63.1947024  24.2452264   9.8470464  62.3275597  24.0805602
   9.7485390  63.7183423  23.4914899  43.3194685  10.0377333  34.4566250
  44.2428017  10.0872254  34.2091680  43.2733297  10.4867101  35.3007364
  66.3238484  25.2236299  63.2858453  65.7617766  25.9975116  63.2482365
  65.7333381  24.5102613  63.5279885  45.7130146  23.6339760  30.0848651
  46.0461712  23.9969134  29.2641878  46.2643051  24.0266824  30.7616925
  59.7592115  14.4764185  23.9286256  59.3910027  13.8770652  24.5778012
  60.4745340  13.9837551  23.5263467  80.0802261  35.2476691  62.2636381
  80.9302074  35.6231461  62.4933795  80.2933103  34.4738166  61.7421213
   8.9348155  45.9582339  53.5654554   9.7619611  45.4866724  53.4670005
   8.2815915  45.3812377  53.1697235  76.7456514  36.6373588  67.9689996
  76.1584837  36.9864331  68.6395339  76.1736090  36.4460807  67.2257534
  72.5746948  44.1725631  61.0657028  72.0104343  44.9352630  61.1927227
  72.8705532  44.2420174  60.1580266  17.4484092  38.7084468  65.0008226
  16.5413886  38.8371086  65.2782903  17.7842646  39.5939504  64.8618365
  47.8985262  10.2550697  16.4517319  47.6111317   9.3914467  16.7480314
  47.1211004  10.8074212  16.5338624  78.2898283  11.2320089  19.8396945
  78.5980606  10.9421968  18.9810717  78.7220860  10.6449974  20.4600143
  55.2764368  20.7673860   7.7517480  54.4198704  20.3687072   7.9053146
  55.4656601  21.2466168   8.5584468  78.5699684  58.4915297  41.8906388
  77.7873928  57.9449289  41.9615850  79.2758495  57.8750615  41.6958842
  49.7075748  15.2919912  27.8285551  48.8719368  14.8974121  27.5790596
  50.3516006  14.8675036  27.2617435  69.3043900  16.9344580  10.1787388
  69.5300055  16.8266320  11.1027002  68.5701418  17.5485432  10.1815641
  15.8594143   8.0219567  17.3765159  15.3145170   8.0526596  16.5901470
  16.5321684   8.6864316  17.2278321  56.5723515  24.3832302   3.3376816
  55.8681536  25.0300097   3.3825427  57.2864056  24.7711205   3.8435468
  52.8172293  72.8708793   8.6150855  52.9786768  73.8119633   8.5478020
  53.3780089  72.5825472   9.3352348  31.3559991  44.2717071  60.0624660
  30.6947308  44.4430201  59.3919394  31.9594460  43.6529033  59.6511647
  40.4128695  39.4876480  31.4865398  40.8823776  39.2569375  30.6849360
  39.4950914  39.5403361  31.2198234  12.1437531  42.2855775  56.2490139
  12.1948033  43.0218361  56.8585620  12.9539042  41.7971404  56.3950143
  48.5577622  57.9598052  23.3280873  48.3327332  58.6109621  23.9926100
  49.5148411  57.9513056  23.3155084   4.9726516  78.2273249  61.8808589
   4.7479182  77.5386648  62.5065384   4.9603730  79.0332799  62.3971120
  65.3213015  74.3256033  35.5896354  66.0243884  74.6416504  35.0221658
  65.4459849  73.3770377  35.6198192  49.7900581  18.9903378  33.6169815
  49.6102428  18.0834341  33.8648224  48.9248848  19.3885577  33.5214233
   3.1949883  57.7666669  62.3621467   3.0821591  57.0560460  62.9934302
   2.3048907  58.0660920  62.1769473   5.3320121   5.1435328  48.9638233
   5.2155112   5.9094667  49.5259666   4.5144652   5.0824779  48.4697437
  13.1881419  54.7341735   8.7604612  13.6345568  53.8960607   8.6399961
  12.4433127  54.6972425   8.1603760  -0.3035745  57.2804053  12.8136134
   0.4280844  56.7248590  13.0824542   0.0814309  58.1508143  12.7116895
  60.3529072   5.7175440   0.9764777  61.0514975   5.2631676   1.4473769
  60.7105732   5.8645570   0.1008674  69.7543842  70.9381776  66.4907709
  68.9465982  71.2675767  66.8847335  70.0881035  71.6741543  65.9777370
  47.5268555   5.1433516  31.3770676  47.5269699   5.9129250  30.8078671
  48.0631208   5.4001814  32.1271920  23.6397743  24.7903490  14.0413451
  24.2069721  24.1043186  14.3933129  24.2402673  25.4036307  13.6176407
  48.1897211  18.7121022   1.9497153  47.6672935  19.4084084   1.5516463
  49.0969896  18.9759386   1.7964534  49.7434551  74.3431716  40.9514437
  50.4282267  73.9519982  41.4939389  48.9442975  73.8809495  41.2042937
  64.7047138  55.2584028   7.4236000  64.6960974  56.1778259   7.1574676
  65.5968809  55.1078415   7.7360135  62.1020746  34.0676475  15.6927502
  63.0346346  34.0707707  15.4769886  61.8320084  34.9813890  15.6012511
  21.8245745   3.2604939  31.6548872  22.3492312   2.5103539  31.3751411
  22.4684215   3.9225239  31.9067001  77.2635681  77.8424291  67.2041446
  77.2882349  77.0889930  66.6142652  76.6657764  77.5793009  67.9038899
   2.1318721  17.0308959  30.0548697   1.4580153  17.0021510  30.7340741
   1.7018699  17.4481106  29.3083692  74.6501572  57.9679386  61.9467822
  75.1573450  57.6217227  62.6810357  74.2811567  58.7875454  62.2758952
   0.7372218  54.6222429  42.9378066   1.5217810  54.6455650  43.4856710
   0.0179177  54.8076348  43.5415158  76.5840609  65.2302723  49.2318258
  76.8134386  64.3156676  49.0671620  77.0773775  65.7227640  48.5758338
  78.2262833  68.1365208  67.9115843  79.0877039  68.4472160  67.6329202
  77.8970844  67.6396112  67.1626252  72.3460245  15.5135167  14.0536308
  72.4524069  16.4533806  13.9067602  72.3534107  15.4175735  15.0059819
  20.7910567  44.5464228  36.6651544  20.0386124  45.1257162  36.7854914
  20.5383521  43.9726846  35.9418306  48.6398367  76.0599864  14.0992308
  47.7555529  76.3922502  13.9447153  48.5127697  75.1404864  14.3329108
  13.2079875   8.9260471  12.7749038  13.5608172   9.7014558  13.2113469
  12.8104281   9.2631590  11.9720745  64.3921954  37.0124416  69.0880324
  64.2312295  36.3473244  69.7573162  65.3455979  37.0489703  69.0110880
  61.8061304  19.2012072  23.6295295  61.5874815  18.4242904  23.1149220
  62.2444630  19.7837746  23.0092764  23.9890185   7.1556351  47.8403411
  23.5108843   7.3859332  47.0437345  23.4606591   6.4686368  48.2466612
  16.2450972   1.4753411  41.3236127  16.9137326   1.7402146  40.6919489
  16.1869040   2.2108815  41.9333873  29.2411017  32.8305030  39.3583250
  29.2688775  33.7807679  39.2467117  28.7275100  32.5168276  38.6139703
  53.1461191  52.7665806   3.5421726  54.0060234  52.9515219   3.1645575
  53.0189133  51.8285513   3.4002116  79.8750162  12.2745156  50.9223175
  80.3483963  12.9125297  51.4562464  79.4472980  11.7006385  51.5578890
   4.3878823  69.6428566  57.7515862   4.4611340  70.4921751  57.3162386
   3.6510735  69.2135839  57.3167655  62.5430250  44.3546152  15.5145323
  61.9834328  44.0139627  16.2124169  62.1100044  44.0818071  14.7056448
   0.4948836  48.3770208  60.6251738  -0.3823299  48.6935185  60.4093871
   0.9901648  48.4705816  59.8114333  20.5149585  51.9721846  58.1619189
  20.9959632  52.4948208  57.5202689  20.5628186  51.0771231  57.8260515
  69.4889099  76.0466032  41.3582048  69.2925722  76.1806469  42.2854123
  68.7082655  76.3586406  40.9005341  71.0730678  41.7050429  68.6238128
  71.0747511  42.2889394  67.8653315  71.9373733  41.2938792  68.6114709
  70.8832693  12.7875113   7.4761641  71.0837555  11.8559885   7.3850513
  70.9458017  12.9551089   8.4165007  48.4713688  79.9806927  30.3946447
  49.0264454  79.3313421  30.8264637  47.6084843  79.5684723  30.3530335
  63.8755608   5.8081305  21.5425277  64.6313381   6.3954365  21.5526938
  64.2340994   4.9523175  21.7776203  38.1808588  75.9122979  62.6658550
  37.8408167  75.6471526  63.5204325  38.3282587  75.0887954  62.2007272
  79.7369710  57.5578077  30.4054952  80.3156654  57.0987422  31.0142708
  79.2548553  56.8603522  29.9612546  37.4274158   8.8192528  16.2790442
  37.0994830   9.4146061  15.6050646  37.9978776   9.3631917  16.8221235
  24.4607734  37.2611594  62.0261955  23.5705756  37.4153447  61.7099619
  24.3559264  37.0876217  62.9616785  64.1697311  29.5648265  12.0193040
  63.9695072  28.6798596  11.7143869  63.4348249  29.7941756  12.5881112
  22.6006928  65.8365829   1.6772537  21.8242541  66.3340563   1.9339564
  22.9520741  66.3124711   0.9247309  71.2582541  30.9049273  13.1481099
  71.2617016  30.1113558  12.6128876  70.7929945  31.5505505  12.6161933
  57.2090197  44.4854736  15.0918221  56.2520790  44.5034313  15.1050651
  57.4694633  45.3350306  15.4477155  19.8865824  69.9637727  37.2169957
  19.1118747  69.6963744  36.7224679  20.0792723  70.8466463  36.9013438
  60.4273946  68.7065248  55.7165108  60.3745825  68.7974338  54.7651026
  59.8676760  67.9563217  55.9168682  67.8824932  56.1825959  51.1210022
  68.2627875  55.3617196  51.4336858  67.3528773  56.4958231  51.8542335
  59.5589351  19.3873751  24.9989963  59.5365428  18.6732292  25.6359625
  60.2191256  19.1180801  24.3603563   8.3171922  55.5005913  41.8412266
   8.9666491  56.2036590  41.8527970   8.5852319  54.9388687  41.1140046
  66.0662842  50.7843018   7.7642143  65.8770514  50.0942183   8.3999884
  65.3739595  50.7021093   7.1083432  45.4024935   8.4014964  32.1608210
  46.2157631   8.3141476  32.6580071  44.9806643   7.5458574  32.2393870
  17.1103373  74.9671329  33.4598041  16.1940709  75.0123895  33.7330079
  17.5772467  75.5076701  34.0970206  79.2211277  29.4092993  54.0233931
  79.8503143  29.7965853  53.4148154  78.9455301  28.5971408  53.5983357
  36.7806902  48.9420755  21.3865471  36.5866318  48.9275176  22.3237562
  36.4300576  49.7791750  21.0823274  52.9366446   9.1372782  33.3167076
  52.4404716   9.4571650  32.5632381  53.8105774   8.9584720  32.9695725
  70.6843407  56.1901097  60.3286723  70.5301315  55.8683495  59.4404599
  71.1752827  57.0027845  60.2071545  36.7522430   4.0447158  24.1141820
  37.1829200   3.9178780  24.9595571  36.9395256   4.9547863  23.8841200
   3.9027213   8.5606480  17.0652628   4.3653487   9.3874252  17.2018230
   4.3836116   8.1311202  16.3578141  54.1402331  77.3307998   4.9577937
  53.9999190  77.4550817   4.0191251  55.0914469  77.3515988   5.0626004
  10.5048781  69.2677669  55.6104777  11.1994153  69.9258690  55.6379828
  10.3071862  69.0896086  56.5299389  72.3401308  34.2065406  24.6473575
  72.4321270  34.7250748  25.4466629  72.8033304  33.3905315  24.8365927
  83.1977064  55.8530788  57.5208673  83.6829264  56.0800187  58.3141455
  83.7107975  56.2350158  56.8087611  79.7237141  47.8676151  68.6846579
  79.3273289  48.6446987  68.2906378  79.2780239  47.1321301  68.2643550
  64.7533798  20.9328866  10.5494571  65.3422356  20.6465197  11.2476504
  64.5494080  21.8426275  10.7662559   1.4277344  74.6100859  27.1031961
   2.0314246  75.3527670  27.1177635   1.5361768  74.1964512  27.9595718
  67.5578299  61.7941315  13.1883121  68.3657828  61.4460654  13.5655391
  67.2496977  61.1026663  12.6025128  11.8470174  41.2521742  49.0261135
  10.9189349  41.4715242  49.1084704  11.8524628  40.3642227  48.6687026
  66.7543840  14.7961187  32.5344753  67.6666880  15.0828934  32.5756192
  66.7440319  13.9621925  33.0042553   4.4420844  71.6977958  65.0586394
   5.2989131  71.9034271  64.6847448   4.6389657  71.3253574  65.9181509
  65.1089478  10.7408094  26.5244937  65.7651758  10.8161259  27.2172618
  65.4000902  11.3554680  25.8509493  59.5688534   4.7680178  14.1055572
  59.8144102   3.9556023  14.5481801  60.4031420   5.1814222  13.8835406
  48.4774342  64.1566641  15.4184616  47.9975644  64.1307933  14.5906413
  48.6113587  65.0890464  15.5886352  37.0638638  53.7186925  44.2344365
  36.8283635  54.0121572  45.1145777  37.8145772  53.1399922  44.3677792
  32.8057122   7.8165305   6.4984262  31.8985248   7.6630121   6.7623860
  32.9701567   7.1654010   5.8163559   4.9835109  54.2327356  25.2133417
   5.1135634  53.3663797  25.5990219   5.0558661  54.0882206  24.2698860
  44.3481440   9.6900468  27.8359279  44.6792848   9.9714570  26.9830570
  44.1225714   8.7679748  27.7129135  24.7451096  78.7536626  30.6253776
  24.3754941  79.5079570  30.1664076  24.6098500  78.0191545  30.0266824
  61.3949966  49.0630960  16.7647207  62.0479918  48.5286951  16.3127923
  61.4017773  48.7388086  17.6652873   0.6332015  19.7447050   0.8762955
   0.1523303  19.4298303   0.1108889   1.4176654  19.1971457   0.9082311
  30.4948502  53.9119534  56.4604506  30.7610875  53.4737401  57.2687325
  29.6660310  53.4955327  56.2240467  72.5121212   9.2521685   9.1238898
  73.0721903   8.4900051   8.9767194  72.1972132   9.4899571   8.2518107
  79.0967352  65.6481461  51.0761270  79.0529520  66.5464716  50.7485208
  78.2452948  65.5017309  51.4882455  49.2474642  72.2473944  26.6364980
  49.2973509  71.8912310  27.5235677  49.2536869  73.1967206  26.7588615
   4.0883651  58.3655531  28.2747650   4.4840494  57.7058513  27.7051520
   3.5724512  57.8607828  28.9034724  78.8048727  53.7961118  62.2757224
  78.5720951  54.4128494  61.5816906  79.6874792  54.0553360  62.5403837
  69.8608676  73.3824761   4.0233725  69.7157887  73.9227463   4.8000914
  69.7237162  73.9791382   3.2875630  52.7706709  54.3443067  20.8008909
  53.6912146  54.6002514  20.7432389  52.3424235  55.0853617  21.2294579
  46.2942171  13.6835527   5.1982301  46.7423916  14.5066738   5.0036919
  45.7326698  13.5311472   4.4381851  73.1966496  14.6889877  34.3198824
  73.6573887  14.0093815  33.8278580  73.7737417  14.8827815  35.0585580
  70.2075640  80.3251206   9.8132855  70.3651623  81.1405282  10.2892113
  70.9558860  79.7705408  10.0339365   5.8245211  43.2701580  52.9395542
   5.1790171  42.5922234  53.1394682   5.5382281  43.6338596  52.1017072
  20.6464940  68.2630949  54.7684703  21.5815049  68.4309797  54.6509776
  20.5085021  68.3273964  55.7134864  78.6467344  57.0017569  55.7568154
  79.5160467  57.3834030  55.6348369  78.3166344  57.4089305  56.5577349
  80.1500988  55.1053429   1.5338242  80.1456738  56.0344839   1.7638451
  79.4756031  54.7173786   2.0912896   8.6559659  41.8040627  42.9347429
   7.7117329  41.9558588  42.9749307   9.0186959  42.6328553  42.6220760
  50.9125805  25.1974154  16.0603964  51.0983133  25.5364537  16.9360602
  51.0346746  25.9497905  15.4813826  78.8673098  55.8362155  44.0938458
  78.5981018  56.4692824  44.7594175  78.4531814  56.1451308  43.2880554
  69.9223883  53.5732858  59.0714130  69.8981888  53.7274091  60.0158140
  69.0338356  53.7688307  58.7739763  33.2078686   8.8325951  67.1307755
  32.4435702   8.8027499  67.7062649  33.7640944   9.5149920  67.5065074
  18.6619940   3.0171654  47.3054776  17.9050961   2.9399226  47.8863153
  18.2882729   3.2439492  46.4539299  76.5465021   2.4327081   8.2179010
  77.0592070   3.2396442   8.1707972  75.6665754   2.6917055   7.9442620
  41.1128989  69.9577517  10.1272392  40.3371945  69.5049746   9.7963214
  41.7531481  69.8844940   9.4194639  17.9628062  29.9159050  57.1819878
  17.9111159  30.8240008  56.8837833  17.0609653  29.6853614  57.4050617
  54.8472404  10.2293885   7.1697426  54.7429752  10.8084834   6.4147526
  54.0516949   9.6971196   7.1750063  12.7767068  59.5265405  68.5832315
  12.7304393  60.4716854  68.4390285  11.9014865  59.2877023  68.8884844
  66.9971466   3.0991018  27.3778152  67.2027683   3.1074741  26.4429998
  67.7495098   3.5214278  27.7923322  46.7301750  17.6235223  27.3559618
  46.5337133  17.8928900  26.4586997  47.5164986  18.1177306  27.5876713
  79.3729353  19.6120393  18.8868701  78.6789799  19.0517426  18.5394096
  79.7749901  19.0918362  19.5825529  59.4366169  15.2746701  14.4757628
  59.8331451  15.9951150  14.9656200  58.4976959  15.4597819  14.4955289
  29.8585873  60.4390912  55.3900013  29.8664075  60.9790258  56.1803434
  28.9372426  60.4043059  55.1327989  70.5839283  59.2343871  64.6499274
  71.2217123  58.5207085  64.6387878  70.0221521  59.0653960  63.8935653
  30.0805140  22.9884338  25.7581639  29.9777913  23.4371543  24.9189210
  30.8582354  23.3866549  26.1490655   6.1823748  47.0547724  57.1130419
   6.8585681  46.3893986  57.2406197   6.6595744  47.8845406  57.1143436
  73.2488680  62.3520136  40.8331108  72.4104786  61.9063520  40.9544182
  73.6369896  61.9279814  40.0677395  63.6458635   0.5846455  11.7703724
  64.3411255  -0.0575775  11.6275549  63.1130171   0.2089263  12.4711859
   8.1314879  51.4132313  58.5063610   7.8537017  50.9058552  59.2690108
   8.4475117  52.2399692  58.8708696  83.8703758  42.1579257  57.1638534
  84.3087704  41.5869328  56.5329740  84.4492657  42.9160802  57.2433350
  14.9941521  42.9846545  36.3730893  15.0219565  43.0280541  37.3288998
  15.8799487  42.7255173  36.1192307  31.5759793  18.6973641  68.5819710
  32.1346083  18.4842179  67.8344863  31.9384280  18.1859562  69.3053839
   5.0051862  71.0943775  60.0413266   4.9106866  70.4480462  59.3416414
   4.5165807  70.7245068  60.7766459  73.6005003  53.4405522  69.6482348
  73.0195743  53.6240785  70.3865279  73.0223209  53.4297101  68.8854622
  14.8707419  59.7703879  65.1215738  14.6464330  60.0447623  66.0107512
  14.6814233  60.5363421  64.5796290  16.1075621  77.8525429  66.0844258
  16.3006573  77.5031023  65.2144614  16.2038928  78.8000636  65.9887442
  39.1749191  14.1902435  -0.3086864  39.9957514  14.5211840   0.0559242
  38.7568665  13.7315214   0.4200380  45.2665949  36.0083795  21.7198229
  45.1947546  35.7744861  22.6452231  45.5948400  35.2148390  21.2969971
  38.7410345  76.9672010  19.9640620  39.0707341  77.1362055  19.0814722
  37.8204956  77.2273220  19.9297523   5.1188069  74.1001181  34.2317400
   5.5946809  73.2703094  34.1972241   5.4437905  74.5940785  33.4789977
  22.9966965  75.6974859  42.0623064  22.4855223  76.3491551  41.5824556
  23.2759705  75.0722600  41.3934803  35.7157841   1.1683438  42.7458248
  36.5221873   1.3253138  42.2545943  36.0113659   0.9699509  43.6343632
  79.8420572  50.3074884  30.4456091  80.3787804  50.1087046  29.6783757
  78.9907980  50.5552006  30.0847387  65.3175909  37.2313316  66.0132552
  65.7064206  38.1025840  65.9360353  64.4618709  37.3855631  66.4134905
  72.8074551  17.2833645  29.2175579  72.9188395  16.4005697  29.5704031
  73.1075907  17.8613198  29.9190664  53.3551884   5.5147702  16.9595432
  52.6547670   5.0946546  16.4604020  54.0360212   5.6954181  16.3114214
  11.4348792  32.1693134  24.2543197  10.5402659  31.9870591  24.5418692
  11.8722819  31.3182402  24.2784452   7.9643946  69.6065955  54.0837762
   8.4986096  69.5029406  54.8712406   8.3916121  69.0531950  53.4299681
  69.5865965   7.7396291  10.8656120  70.0413656   6.9685245  11.2044537
  68.7003279   7.4312621  10.6767464  67.5101954  74.0575556  53.4141848
  66.6911489  74.5146184  53.6052069  68.1015689  74.7443680  53.1062898
  54.0797949  40.8854294  18.9934480  54.6346188  40.1055288  18.9809668
  53.2290792  40.5693245  19.2977345  47.3964977  10.4676497   3.9292553
  47.4512053   9.6767664   4.4656718  46.4837360  10.7457769   4.0050119
   8.0910998  58.4704523  50.8673415   8.3981829  59.3712191  50.7646260
   8.0727511  58.3301418  51.8140242  78.5627660   2.0857470  14.2798913
  78.4684953   2.0935576  15.2324057  77.8932771   1.4718573  13.9779735
  66.9052267  44.5976162  19.3477893  67.3941231  45.3549147  19.0257478
  65.9873867  44.8632812  19.2910278  61.3953390   9.0737507  60.9595821
  61.2141123   9.7836993  61.5755025  60.5320063   8.7311623  60.7282266
  81.4700985  10.9363735  38.6449218  80.7320595  10.4903936  39.0603995
  81.0664463  11.5198255  38.0023646  12.7618962  44.7548322  49.4234237
  11.9410830  44.3364795  49.6831832  12.4905139  45.5327134  48.9361009
  25.3887730  61.8027501  67.4517115  25.6095963  62.4407892  66.7732051
  26.1112672  61.1751108  67.4345442  48.2763529  16.8888032   6.7169720
  49.0558910  16.7650759   7.2584903  48.5101604  16.5086651   5.8701766
  15.8662587  54.0948026  61.6981528  16.4251595  54.6918671  62.1955219
  16.3408595  53.2635526  61.7017624  14.3319121   3.9943430  54.6500382
  14.6851530   4.4036124  53.8601348  15.0931206   3.6013720  55.0770829
  69.0594625  76.1834192  43.9312887  68.1942558  76.3577557  44.3017626
  69.6485281  76.1885548  44.6857500   9.8839568  17.3216736  21.0558176
  10.5883883  16.7543197  21.3690567  10.3133105  18.1570971  20.8715320
  42.6704827  14.7897313  58.8804469  42.3605481  15.1386473  58.0447242
  41.9108525  14.8462889  59.4600985  56.6852760  31.4252472  13.2108629
  57.6295567  31.3658500  13.0658329  56.5927887  32.0422888  13.9367688
  21.4485159  18.9998219  58.3529386  22.3936072  19.1002581  58.2391760
  21.1172333  19.8962090  58.4074316  64.1036034  10.1200914   4.5405591
  64.0396929  11.0522687   4.3327326  64.5708847  10.0923300   5.3754878
  38.2197657  79.3834169  21.5757966  37.7913323  78.9749780  22.3280311
  39.0610114  78.9322551  21.5051842  82.6234419  60.1723032  54.2196665
  82.7629501  59.2281418  54.1466865  83.3599169  60.5604629  53.7472651
  83.3565027  61.6083746  33.9544186  83.3585245  61.7095165  33.0025801
  84.2104084  61.2259416  34.1564545  42.3462915  28.3456111   0.2112888
  42.1983862  27.5183940  -0.2470424  42.0933819  28.1662250   1.1168765
  55.9155989  61.7052698  30.1283050  55.7413673  60.7811785  29.9496174
  56.2804461  61.7134666  31.0132051  54.0482998  34.0107656  18.6861169
  53.7200260  34.9098730  18.6949515  53.4003305  33.5142922  19.1859984
  17.8708726  60.2203326  59.3876622  18.0617362  60.5853896  60.2516863
  17.7003079  59.2928736  59.5518575  67.0574951  38.4221148  15.9706724
  67.4594164  37.7127218  16.4721239  66.1177588  38.2463694  16.0180688
  37.5223341  79.1792853  56.6430855  36.8486824  79.8580191  56.6012669
  37.8801003  79.2511147  57.5279999  35.0217476  18.7320063  48.0325374
  35.9223833  18.7907622  48.3513365  34.5097580  19.2329333  48.6674914
  12.5113860  11.6779444  64.9144978  12.7521172  12.5943635  64.7786606
  13.1220045  11.1860011  64.3655214   7.1730405  67.4866705  60.2660504
   7.7739173  67.6405244  60.9950981   6.3422089  67.2604255  60.6840954
   3.2041341  69.3788509  54.8073492   3.0933362  70.3019433  55.0350771
   3.3654719  69.3826179  53.8638518   1.5826684  42.1469471  63.5808453
   2.1322804  41.5186379  63.1124571   0.7383090  42.1080917  63.1316528
   7.5088881  49.3596840  16.2995887   7.1948813  49.7960663  17.0915496
   7.0699977  49.8184872  15.5832767  63.1062889  41.8939400   1.0297441
  63.1991673  40.9414673   1.0097108  63.9253330  42.2223091   0.6588383
  47.2594624  73.8536625  57.9632971  47.4506837  74.5757227  57.3647187
  47.5383359  74.1735534  58.8212774  72.0861656  60.8512573  61.5630225
  72.5450069  60.8470635  62.4030689  71.5166170  61.6194253  61.6050354
  12.7610873  36.3767457   8.0698711  13.0136680  35.7858539   8.7792969
  12.3358058  37.1122694   8.5107476  64.0301275  24.1928101  25.1624441
  64.9606752  24.1263175  24.9482250  63.9250088  25.0823569  25.4999137
  75.3931579   0.8268779  21.0880065  74.7484836   1.1703627  21.7065883
  75.5934009  -0.0507600  21.4134169  15.4586440  55.4634015  59.2939732
  15.6722337  55.1135246  60.1589570  15.5486995  56.4114861  59.3901787
  60.3529072  58.3700562  17.7718425  61.0652494  58.4528875  18.4058249
  59.6140003  58.8197994  18.1816995  69.3871212  63.8535500   1.5685837
  69.1103792  64.3995762   0.8327144  68.5806465  63.4401369   1.8766740
  17.9661074   3.7907431  44.8692593  18.4355059   4.5291684  44.4811592
  17.0418253   4.0274880  44.7925386   5.1061057  18.0192542   2.4570422
   6.0300540  18.1832576   2.2682087   4.8105048  18.8087356   2.9104388
  84.7988701  67.3788166  18.8362968  85.2004433  68.0773354  19.3530548
  83.9725304  67.7523327  18.5299039  82.2098732  19.2485666  24.0851259
  81.3376236  19.2120600  24.4776416  82.6586628  18.4750319  24.4264007
   4.8793822  56.5343122  68.8489139   5.6723195  56.2110870  69.2767104
   5.0879412  56.5189569  67.9148364  28.9860230  71.7205982  67.8104917
  28.5932999  72.3888378  68.3721438  28.5007554  71.7837577  66.9878385
  82.1024609  36.3836718  24.4926977  82.8030396  36.3842654  25.1449442
  82.5019550  35.9991217  23.7124658  36.2120795  35.1293731  10.6182778
  36.1544704  34.1752124  10.5683649  37.0854235  35.3343821  10.2844036
  61.1633730  66.4873886  28.3931398  61.6505146  66.6367626  29.2034554
  60.2441263  66.5064573  28.6593294  77.6396227   8.0198264   0.6984902
  77.2770643   8.7621868   0.2150812  77.4562502   7.2608757   0.1447751
  18.0480033  72.7166443  65.4155663  18.4228974  73.4190707  65.9468687
  17.1157962  72.9275040  65.3630636  14.9589919  20.5221701   9.5886141
  15.0735186  20.8288527  10.4880941  15.6662463  20.9433222   9.1000926
  82.6433563  54.4088221   8.2860339  81.9250965  54.2492676   8.8982999
  82.5665474  53.7078190   7.6387930  19.6485549  70.6194334  65.6044671
  18.9196425  71.1985068  65.3817699  20.1742249  71.1239509  66.2252465
  48.0824137  16.4270842  23.7606764  49.0097809  16.5098071  23.9828801
  47.9782629  15.5106223  23.5047793  12.0777589  76.6320114  66.1193154
  11.7095929  77.2632770  65.5011005  12.6848632  77.1451382  66.6525677
  60.5572557  37.6148820  31.0646486  59.9658203  36.8890190  30.8657527
  60.4177904  38.2394218  30.3527975  73.8615066  40.1752892  57.6372573
  73.7713797  40.1914956  58.5900662  72.9877502  39.9500246  57.3178241
  20.8790808  71.0760741  45.2774319  20.1410228  71.0519676  44.6683988
  20.8605128  70.2224688  45.7101497  81.9519884  78.8760619  51.8932936
  81.3066513  78.2886367  51.4999709  82.1620781  79.5004873  51.1988983
  12.8271752  68.5028009  53.4004054  13.0318671  68.5062222  54.3354568
  12.2524911  69.2584805  53.2782564  45.1512623  42.8678942  22.8468466
  46.1002207  42.7513123  22.8928518  44.8151588  42.4003220  23.6114669
  16.0233632  15.7342408  52.5675914  15.0759306  15.5978463  52.5702045
  16.2874689  15.5632231  51.6635821  23.4910470  65.9986000  61.9300768
  23.2093793  65.2100067  61.4663795  23.3167725  65.8094291  62.8520725
  41.5710831  26.3111854  11.2357557  40.8253765  26.8446970  11.5105593
  42.2997427  26.9292808  11.1787724  63.2148838  28.9772940   1.2898675
  62.7725744  28.3231521   0.7488611  62.5040579  29.4885755   1.6765848
  75.7629395  79.7754860   9.8223180  75.7072830  80.4633713  10.4856062
  74.8661566  79.6785212   9.5019871  27.1869030  21.6134188  57.2463021
  27.3242560  21.3348410  58.1517086  28.0676880  21.6635439  56.8748972
  14.6899920  67.2989850  43.3630667  14.4078093  67.8137760  44.1191039
  13.9656096  66.6946511  43.2009516  35.2308073   9.8632309  34.4452128
  34.7585955   9.6524022  33.6397323  35.4506579  10.7907698  34.3581781
   5.7523726  15.7284391  21.4208174   6.2442111  15.7693172  20.6006598
   6.4113616  15.5282342  22.0855594  53.4119463  41.7934847  28.0485439
  52.8051662  41.0672092  28.1919789  54.0630722  41.7025518  28.7442470
  35.1567927   4.8907254  57.0726297  34.7547236   4.5698998  56.2653849
  35.0786820   4.1599963  57.6859531  24.8510447  12.9533265  65.5645678
  24.4918385  13.3853314  66.3395337  25.1353112  13.6720250  64.9998573
  40.8477688  43.6374760  23.0123520  40.4510450  44.0607357  23.7737298
  41.3110161  42.8814173  23.3729219  60.2735987  69.9446602  24.7997665
  60.2521410  69.6176762  25.6991291  59.6748534  69.3707342  24.3219090
  26.1449414  33.4024803  38.0007896  25.6818276  34.2279647  37.8582034
  25.5625897  32.7352922  37.6375303   9.4293561  75.7306407   3.2864332
  10.0109473  76.0399298   3.9809272   9.8236409  74.9097140   2.9917288
  54.7227097  24.6616888   0.3128692  54.2229605  24.1363192   0.9377474
  54.4058704  25.5553675   0.4439517  73.0857754  43.0880356  14.5309985
  72.2645807  42.6584768  14.2915118  73.4128523  43.4545040  13.7094426
  82.1729469  50.0487232  19.8382437  81.7725372  49.8323965  18.9961624
  83.0836487  49.7676086  19.7496748  32.5816274  33.3510566  16.1694074
  33.5123348  33.5675383  16.2255538  32.1867442  33.7950993  16.9198239
   0.1806258  14.3332434  56.9911957  -0.5102349  14.4933939  57.6340866
   0.9945773  14.4854057  57.4713612  69.1706944  24.2332768  15.3895557
  69.0193796  24.3364787  14.4500422  69.8530388  24.8727107  15.5939221
   9.2120742  40.6587410  27.3853683   9.3280982  40.1442003  28.1841302
   8.7699984  40.0640249  26.7794657  59.9784460  21.0936568  66.4393676
  59.4694891  20.3007576  66.6082165  59.6805182  21.3909600  65.5796674
  33.6039143  33.0682491  55.1141915  33.4955006  32.2819339  54.5792267
  34.4127351  32.9158227  55.6028793   4.2094325  35.8334589  47.6424170
   3.4953975  35.3658867  48.0757332   4.4971274  36.4809132  48.2860518
  64.3247786  76.3233067   8.5494852  64.8749533  75.5973626   8.8436645
  64.4898787  77.0211668   9.1834927   3.7663966  80.2975445  35.9571132
   3.2031184  81.0685425  35.8899412   3.5764485  79.7925310  35.1664719
  66.2699658  51.9457190  47.9095397  66.4666492  51.0224192  48.0678544
  66.8127710  52.4179141  48.5409078   8.6898356  67.9126267  62.5334648
   9.0363675  67.0262508  62.4310759   8.4845715  67.9833393  63.4657190
  74.8780662  70.6230573  43.2456431  74.3613655  71.1144595  42.6070699
  75.6260807  70.2947168  42.7467427  34.0555954   1.9198516  19.5996702
  34.4421315   2.7588668  19.8504221  33.3228254   2.1543781  19.0302193
  63.3222675  51.8278456   1.5459952  62.9705572  52.6833391   1.7922927
  64.1705322  52.0232248   1.1478601  64.7018814  35.0742602  17.7718949
  63.9116669  34.6567011  18.1145942  64.8165607  34.6921682  16.9017887
  54.4411173   8.4661553  61.6667495  53.9956084   9.0688918  61.0713819
  55.2879229   8.8790247  61.8361506  76.3632202   0.6401511  13.7268054
  76.0095310   0.2824092  14.5411491  76.3872719  -0.1061342  13.1278801
  27.2047367   5.7556841  66.9291246  28.1121722   5.4741261  66.8128613
  27.0812884   6.4425871  66.2740252  83.4905798  78.7747435  56.3522575
  83.5267050  78.4451632  55.4543135  83.6386902  78.0018739  56.8972060
  83.0630970  28.5615730  17.5327182  82.4543285  27.8694820  17.2745693
  82.8388977  28.7501383  18.4439862  44.0611076  39.3467593   8.2920629
  43.2753420  38.8115716   8.1808209  44.5828009  39.1719866   7.5087869
  69.4964695  48.4031105  26.4864397  69.8418331  49.1203308  27.0179939
  70.2739048  47.9734278  26.1297894  53.9606667  28.2053304  10.9441161
  53.6819124  28.4884238  11.8149698  54.8856068  28.4474206  10.8982277
  64.6378803  40.4473925  21.7360091  65.4386568  40.9041452  21.4783955
  64.5446348  40.6356430  22.6698709  36.2598791  30.9024880  65.8565909
  36.4407339  31.8421624  65.8796436  35.8034983  30.7261632  66.6793058
  51.4346313  37.6991463  16.8181992  50.5885124  38.0664778  16.5624976
  51.2198353  36.8519330  17.2084820  33.8730898   8.6307166  61.2655464
  34.7610178   8.7410805  61.6055987  33.9687291   8.7086556  60.3163305
  40.7794466  12.6287911  64.1026155  41.4162245  12.1602509  64.6422556
  41.3120213  13.1549094  63.5061315  15.4806517  61.8795013   7.0997542
  15.6132602  62.0638466   8.0296266  15.6887816  60.9497356   7.0078421
  32.5334334  71.8770981  22.7778435  32.6984763  72.7733660  22.4850988
  32.2347164  71.4196014  21.9919086  76.3938951  33.7736702  10.0356829
  76.1899948  33.6212349  10.9584081  76.1068821  32.9755712   9.5919538
  54.1936255  48.3269262  19.4578147  54.3969488  47.3971415  19.3558669
  53.2373381  48.3618689  19.4807231  66.1440420  69.2251873  26.5040469
  65.6680727  68.4960127  26.9015193  66.1481094  69.0265417  25.5676937
  69.1449690  13.1833363  15.4350078  68.8530970  12.5824404  14.7494650
  69.6377850  12.6320505  16.0428274  83.2750320  24.2474341  19.9405956
  83.7082005  23.6375117  20.5377436  82.3750496  23.9267468  19.8819697
  49.9025822  18.2356608  44.6271706  50.4957390  18.9490151  44.3915462
  49.4572783  18.5450900  45.4159641  48.3100206  59.8695140  61.2313339
  48.1124312  59.9708812  62.1624169  48.9930303  60.5177383  61.0594759
  52.4259949  50.3127337   3.3540520  51.8090010  49.7824860   2.8496897
  53.2591105  49.8474932   3.2785621  52.8025579  34.5441961  24.4176388
  53.2098770  34.6039104  25.2817893  53.5392857  34.5056462  23.8077402
  77.7235190  19.3566296  54.7884724  77.6500145  19.3452427  55.7427773
  77.7396838  20.2861617  54.5605693  10.7899442  29.2482255  61.9988886
  11.5659132  29.3698905  62.5459746  11.0541025  29.5643113  61.1348620
  46.6885996  41.0390854   4.5019665  46.2339878  40.8566999   3.6795932
  47.6140785  40.9022570   4.2994845  68.0703115  44.3382645   3.7069020
  68.1503391  44.4824123   2.7640080  67.1286964  44.3728352   3.8754138
  76.5132601  61.4696102  35.5017910  76.0453731  60.6363444  35.4472098
  76.0098631  62.0638637  34.9452982  59.1296959  41.0169935  24.9477887
  58.7849236  41.6557837  25.5717373  58.4797668  40.3143072  24.9406290
  28.5386458  15.1702235  59.2285142  28.5576382  15.6710980  58.4130428
  28.9093676  15.7629368  59.8823414  68.8521576  44.4195127  23.6314464
  68.1184387  44.8632097  23.2059717  69.1293526  43.7556791  23.0000067
  35.0174426  68.8374472   9.0153199  34.7307776  69.2919064   9.8074847
  34.2049979  68.5933065   8.5719681  84.6831417  27.1641612  26.3572264
  84.7664356  26.2165451  26.4635944  85.2073097  27.3651433  25.5819249
  45.4074374   5.0929616  24.6059618  45.3333178   4.9646351  23.6603031
  44.9992648   4.3149922  24.9859581  49.7385254   7.5194714  61.7735675
  49.7037974   6.9746039  60.9873465  50.4829255   7.1779177  62.2689882
  22.5762015  65.6878595  54.4498811  21.7308551  65.9926109  54.1201112
  23.1835538  65.8359508  53.7250254  35.5711451   9.7862742  68.7878935
  35.2688637   9.0479682  69.3168204  35.1920691  10.5559943  69.2122311
  54.5077038  20.6778097   0.9868939  55.3008223  20.6130481   0.4549173
  54.4613695  21.6007519   1.2364209   1.5736102  55.7497740  19.6861386
   1.7957114  56.2695169  20.4586458   2.2913836  55.9118414  19.0739548
  64.7882834   4.0175269  53.2745132  65.0695219   3.3229945  53.8701329
  63.8394442   3.9086459  53.2106576   9.9860381  63.5066319   0.6469160
  10.6704806  63.2462025   0.0305199  10.3209494  64.3061399   1.0529412
   3.6778067  19.8599494  31.2364841   4.1507052  20.6285071  31.5557289
   4.3105220  19.1447568  31.3028789  25.3991603  37.2274208  28.6120915
  25.2737521  38.1746650  28.5552645  25.8192252  37.0919609  29.4614601
   0.1742457  25.2118349  16.9446146  -0.1430322  25.9049439  17.5235522
   0.6807803  25.6719685  16.2753379  58.9976302   2.4366257  57.8283057
  59.8362627   2.7259419  57.4688432  58.4627524   2.2393105  57.0594046
  70.8837509  48.1999254   6.9949961  69.9890518  47.8605032   6.9718802
  71.3590765  47.5844240   7.5530815  32.7898169  37.3627377   7.9038805
  33.2731652  37.4492526   8.7255383  33.3423805  36.8025756   7.3587900
  47.0520249  11.7145894  52.9953692  47.1424189  11.6627810  52.0438561
  46.9577399  10.8046029  53.2769022  80.4117680  73.3185053  27.6871562
  81.2504387  73.6429214  28.0151892  79.9744654  74.0951777  27.3381805
  71.4044571  35.0580335  28.1738424  71.6083622  35.6073499  28.9307475
  72.0973635  35.2529001  27.5428629  24.5063000  67.2794966  44.2551694
  25.0047189  68.0226164  44.5951352  23.6474496  67.3569636  44.6706304
  21.7170905  52.8877831  37.1889567  21.6819953  52.6865768  38.1241131
  22.6510142  52.8891993  36.9791532  42.7902403   3.7808583  56.6229937
  43.4271613   3.5279582  55.9547100  43.0670395   3.3089659  57.4084434
  52.3759276  69.0124683  57.9933438  53.0550081  69.6820574  58.0754075
  51.5674240  69.5066433  57.8579078  61.2568283  30.1535702   2.7410910
  61.1074305  31.0697818   2.9744729  60.7314825  29.6577144   3.3690807
  53.2871619  14.7168801  53.4860215  53.3739844  14.3422864  52.6094529
  52.3591032  14.9390576  53.5606990  68.4400177  24.1646552  12.7585804
  68.9102459  23.3629870  12.5295615  68.2257318  24.5655870  11.9162226
  78.8014460   8.0483413  63.6706829  78.1996489   8.7084222  64.0147305
  78.4072447   7.7730244  62.8430128  76.3100824   1.1680167  18.5165668
  76.1997089   1.0856002  19.4638038  75.4178295   1.2338393  18.1762969
  64.8726225  49.3001509  44.6425581  64.9301434  48.4898806  44.1362047
  65.7806063  49.5124912  44.8586798  68.0066729  43.9535427  27.5943732
  67.3979092  43.4584808  27.0461440  68.5382843  43.2848072  28.0261326
  69.6128750  73.6458015  18.9885676  69.6297121  73.6755228  18.0319774
  70.1892757  74.3599510  19.2605639  72.3572779  66.0483742   1.0174332
  72.1375751  65.7914782   1.9129612  72.1940947  66.9912148   0.9918597
  33.1002751  34.9122498  59.3968675  32.7433768  35.3467438  58.6222241
  34.0405836  34.8547146  59.2273292  62.2434568   5.1723391  13.2717550
  62.5468302   4.5669264  12.5952411  62.5012445   6.0370815  12.9523838
  68.1655771  35.8763714   7.2952261  68.2047827  36.5751572   6.6422405
  69.0131110  35.4367848   7.2267952  85.2481848  68.9176655  48.3504009
  85.2080033  69.8221159  48.0396080  84.3328122  68.6446238  48.4118223
  31.3254231   2.8658934   9.2482939  31.4991921   2.6703186  10.1690474
  31.3192957   2.0105000   8.8187638  20.1730082  77.5870707  27.9171505
  20.6751403  76.9828608  27.3703232  19.2834249  77.2337701  27.9099121
  10.7895935  53.4745550  69.1519976  10.7091534  54.0518999  69.9112320
  10.0048304  52.9273605  69.1829920  60.9712416  46.4520283   0.3746882
  60.2703986  45.8512707   0.6279650  61.7326490  46.1555977   0.8733120
  33.5611645   0.4026454  50.1411009  33.8258502   0.3613417  49.2221546
  33.2595670   1.3028472  50.2632523  83.4254776   6.7789595  59.3608809
  83.1940947   6.2115043  58.6255646  83.5039697   6.1843245  60.1068544
  36.8721271  28.9761662  58.0603886  37.0531487  29.0561533  57.1238708
  36.0158491  29.3883681  58.1748867  69.4943322  64.6695566  36.3871837
  70.3248657  65.0962448  36.1765146  69.5863534  64.4050550  37.3024988
  17.5441790  34.2850423  60.4349232  16.6390145  34.0566373  60.6464481
  17.8347039  34.8209119  61.1729431  64.4603206  59.9761057  19.6589971
  64.5069767  60.1666403  18.7221134  64.6641875  60.8095312  20.0833511
  13.5595727  65.8340311  54.6921253  13.6780095  66.0080767  55.6258917
  14.2998362  66.2711668  54.2712307   5.4852492  32.7899194  21.7334509
   5.2592665  31.9087958  22.0314240   5.7369965  32.6756406  20.8170485
   0.9383439  23.7542224  40.4825401   0.9831027  23.7057734  41.4374638
   0.2575364  24.4038630  40.3073263  80.8670739  72.2464705  44.1578770
  81.1101038  71.9956970  43.2666540  80.4524226  73.1037235  44.0608311
  68.7382704  33.3922596  28.5810986  68.7228090  33.2257099  29.5235672
  69.5174975  33.9314862  28.4459152   9.3894035  72.2987175  66.7471123
  10.1272404  72.6162434  66.2265301   9.7305030  71.5280151  67.2008705
  53.3116827   3.9999266   4.7599592  52.5326568   3.9828701   4.2040291
  53.9086694   4.6031494   4.3172827  68.4860856  26.2209626   1.5299072
  68.2753522  26.2852307   2.4614086  68.9115364  25.3683586   1.4388647
  58.3226825  58.3759975  66.4212418  57.9588200  58.5993671  65.5645370
  59.2445589  58.6268950  66.3627243  83.5213571  36.8184996  61.9096136
  82.8655590  37.4564624  61.6282511  83.5578225  36.1818051  61.1958027
  38.2997564   1.5473502  41.3736010  38.0064902   1.2647193  40.5073738
  39.0268526   2.1444171  41.1972952  75.3038145  43.6529827  15.8780360
  75.8501716  42.8670835  15.8684742  74.5486344  43.4262991  15.3353107
  49.9073610   3.1053679  50.7095432  50.5954513   2.4624293  50.8809996
  49.2237506   2.6100104  50.2583885  28.0344939  80.4752922  48.4861755
  28.3832765  79.9488401  47.7668428  27.5323820  79.8553562  49.0151310
  18.0834520  55.3449965  32.0433664  18.3070326  55.6338263  31.1585951
  17.1280825  55.3937054  32.0769644  66.5434298   3.8896792  51.2092543
  65.9152708   3.8715403  51.9312811  67.1185169   3.1422847  51.3732815
   6.2476301  64.4726849  62.1087599   5.5866164  65.0573874  61.7380619
   6.9096625  64.3936014  61.4219618  83.4870977  48.0693722  43.9363241
  83.2956655  48.2331657  43.0128765  82.7980451  47.4690151  44.2209482
  68.8117827  68.8529634  30.9833884  68.2133473  69.5851946  31.1315107
  68.9307631  68.8291740  30.0339103  11.7673254  61.0195494  28.9947605
  12.7177715  60.9428787  28.9110613  11.4899886  60.1775646  29.3558359
  13.3499205  73.2606888  62.0581150  13.2946396  73.8131142  62.8378630
  12.6704586  73.6000204  61.4755201  42.3614821  14.9169581  48.5825348
  42.6701209  14.2456191  49.1910458  42.3282048  14.4744151  47.7344322
  23.2282463  31.8816035  59.1595936  23.5330692  30.9787314  59.2498446
  22.9767797  31.9586318  58.2392311  24.5124763  13.6350768  47.1491575
  24.4691092  13.5132449  46.2007332  25.2929199  14.1720622  47.2862196
  16.4013836  10.7465022   3.5922152  16.9853744  11.2420886   4.1663021
  16.9895336  10.2561896   3.0178362  64.7048816   2.1697944  38.9543080
  63.8394937   2.5745242  38.8949084  64.5731196   1.4035456  39.5126414
  17.1564019  78.0302191  57.9211521  16.3517797  78.5440159  57.8516674
  16.9668531  77.3784494  58.5960579  22.2672510  67.7198267  45.6729984
  21.6483426  68.0350161  45.0143290  21.7604184  67.1045351  46.2028742
  20.3874993  33.3659792  36.3674068  20.2611661  33.5056019  37.3059034
  20.0272703  32.4942756  36.2043142  33.3694143  21.2746353  12.0988026
  33.0262131  22.0811482  11.7141190  33.0164689  20.5768605  11.5467396
  21.9270819  21.4291687   3.0188217  22.6694410  21.8618174   2.5969830
  21.1598604  21.7610235   2.5524750  59.0409836   8.2375472  59.1222382
  59.3133363   7.6966899  58.3809376  58.1833181   7.8914492  59.3689203
  35.3851461  49.3391991  59.6699810  34.5082021  49.0254402  59.8907852
  35.9758019  48.7048006  60.0760460  59.9978191  61.1288853  10.8532372
  60.6518788  60.9370919  10.1811877  59.1588057  61.0585804  10.3978863
  56.2247905  11.5285437  52.2437668  56.1857590  11.3092559  51.3128424
  57.0046696  11.0753291  52.5641012  46.4857775  44.8535557  13.5686054
  46.9736511  44.8108692  14.3910351  47.0543874  45.3478451  12.9781857
  84.5720643   6.1075373   0.9214249  83.7085957   5.7599087   0.6982365
  84.8838824   5.5399580   1.6263046  31.3983432  39.6569865  55.5648470
  31.0533586  40.0346701  56.3739014  32.1313805  40.2254241  55.3286934
  70.6774646  32.7324600  17.2720661  70.4517013  33.4071083  16.6316643
  71.2174720  33.1870384  17.9185810  13.7473357  66.5829945   1.7212851
  13.7620246  66.0383129   0.9343068  13.0549908  66.2034082   2.2623999
  16.0018599  66.4117956  58.0151987  16.6124725  66.5251207  57.2868156
  16.3982332  66.8983793  58.7379408  83.5476498  57.1966505  69.6569824
  82.9393433  57.7106619  69.1259575  84.3440807  57.7266312  69.6893787
  49.8617411  76.4838314  59.3396044  49.0245056  76.1874390  59.6965599
  50.0269079  77.3186111  59.7778845   1.8975227   4.7743483   5.2888622
   1.6091030   4.0485449   5.8422652   2.1553438   4.3599339   4.4654408
  39.2435369  19.3180507  53.8229609  38.6882279  19.4709342  53.0584383
  39.9064467  18.6987918  53.5174942   2.2604936  60.7496595  59.6430969
   2.9977462  61.2934017  59.9206495   1.4917846  61.1781454  60.0195503
  55.8382178  47.6026487  37.7547240  56.0547424  48.4693766  38.0984282
  54.9917842  47.3930407  38.1495023  31.9841981  61.2155867  41.3190556
  31.9112992  60.8862066  40.4232740  31.1090851  61.0992002  41.6890049
   3.2840753  49.0173101  59.2124319   2.8832805  49.8858261  59.2481756
   3.3710867  48.8319778  58.2773876  37.0828176  74.3893433  27.2658396
  36.9068742  74.2509985  26.3351750  37.1206331  75.3407907  27.3635960
  75.6760920  63.9677668   7.0467025  75.5890967  64.7564459   6.5113080
  76.6048981  63.9350414   7.2757888  65.1987848  13.9939444  69.0345430
  64.3261370  13.6596530  69.2418289  65.1119241  14.9451583  69.0968847
  53.7324605  69.3879940   4.1956797  53.7621483  70.3031805   4.4745817
  53.0010519  69.3490126   3.5794392  77.5557608  51.1965580  21.6324368
  77.1389693  51.0966034  20.7765618  78.0309839  52.0252629  21.5721073
   6.5752786  50.9781885  18.1162477   6.7016965  50.9837532  19.0650463
   6.5229642  51.9033146  17.8761601  25.6366036   8.6590522  37.5968075
  24.7962058   8.2532161  37.3840523  26.2905251   8.0420535  37.2682667
  70.9903527  56.0800457  67.2580719  70.1334561  56.4983940  67.3413992
  71.4784254  56.3789129  68.0253363  43.2182047  62.2665884  13.1007328
  42.5696382  62.7590134  12.5976315  43.6664435  61.7264512  12.4499073
  16.3068211  51.9150496  27.5425696  16.5665030  52.6676035  28.0740428
  15.7689464  51.3823271  28.1283379   5.7570571  23.4119005  22.3346272
   4.8070449  23.3631058  22.4410858   5.9656829  22.7081318  21.7202893
  66.4197673  26.2733674  49.4986773  66.9705762  25.8446169  48.8436890
  66.7916192  27.1509600  49.5869398  65.4512764  31.3608241  53.1001186
  65.1813508  30.9785032  52.2651291  65.6662668  30.6074929  53.6501169
  81.0321106  51.4143562  48.5417604  80.7635982  50.7414055  49.1672754
  80.7279028  51.0889196  47.6945400   2.4943373  54.0164804   9.7529417
   1.7617008  54.1978788   9.1642398   2.4903272  54.7463179  10.3722537
   4.3173984  60.5738401  35.1950455   4.9545524  60.6980562  34.4915986
   4.0139094  61.4577150  35.4021430  81.5892569  30.5544496  45.3517532
  82.0048688  30.2418065  46.1553431  80.8460866  29.9653816  45.2216434
  68.3635272  28.1705141  51.1092424  69.3179096  28.2335305  51.1468554
  68.0569137  29.0538597  51.3139915  65.7530421  16.9290085  16.6211357
  65.7990927  16.9020624  15.6654301  65.3799916  17.7880688  16.8188229
  75.9856517  39.4642425  34.7390771  75.3658188  38.9863396  35.2901173
  75.5948908  39.4435263  33.8655162  23.3989462   0.6241458  33.4478760
  23.6878333   0.3558200  34.3200994  22.5335494   0.2271025  33.3495069
  80.4325683  31.7862701  42.8079128  79.6502430  32.1537662  43.2191849
  81.0517044  31.6733170  43.5291243  58.1654175  44.1694470   6.0865345
  58.4128137  44.2381497   7.0086565  58.1448482  43.2282372   5.9135571
   6.0844749  26.8553448  49.6456861   6.7916620  27.4984431  49.6961164
   6.2169588  26.4191675  48.8040018  11.0898793  58.7765121  46.3394737
  11.7120016  58.4432793  46.9861221  10.2300560  58.6017132  46.7220736
  28.7009740  56.8048191  58.3805704  29.3628168  57.4963045  58.3869410
  27.8866911  57.2504950  58.6141253  75.8689041  31.8562603  54.3531513
  75.9680576  32.7751422  54.6022654  75.5124493  31.4334202  55.1344156
  65.5362309  16.6661012  41.5088129  64.7504212  16.4669478  42.0178032
  65.9670855  17.3671222  41.9978571  25.0686169  30.5945754  67.9371929
  24.2574000  30.0957417  67.8406191  25.7629251  29.9405026  67.8574610
   4.6014953  47.0564032  11.4625931   4.4162792  47.8078461  10.8993340
   5.4528880  46.7370605  11.1636233  58.9400221  55.7231331  20.5484247
  58.2165075  55.6280184  19.9289799  58.5166765  55.7717752  21.4055371
  15.5106136  76.1680415   0.2607670  15.6871817  75.2451971   0.4435625
  14.6427998  76.1704280  -0.1431236  81.2706815  67.6673629   5.7304325
  80.5277954  67.9633238   5.2043524  81.9889508  67.5814083   5.1035872
  22.1865058  60.1055622  40.1475477  21.7396212  59.2590857  40.1461363
  21.5160513  60.7298946  40.4249144  60.2061987  77.8784847  66.4166641
  60.0584507  78.1436920  65.5088806  60.6067610  78.6444759  66.8278027
  74.2491556  33.0419087  47.6110888  73.8798333  33.9248300  47.5942469
  73.8319780  32.6220918  48.3633804  19.9640429  11.9860899  40.3923988
  19.1310406  12.1700263  40.8265734  19.7785676  12.0999491  39.4602704
  15.7874501   2.2469331  68.2869387  16.7233253   2.1320982  68.4518051
  15.6978881   3.1692892  68.0472136   8.3681667  33.5530996  27.4000621
   7.7875066  33.3704257  28.1387758   9.1101652  32.9618096  27.5267363
  75.6559117  46.3999367  32.6519465  74.7574581  46.5871572  32.9239035
  75.7217206  45.4455185  32.6834011  39.5757747  32.1863365  48.7804556
  40.3451252  31.8646145  48.3105326  38.9828849  31.4355111  48.8116932
   3.1695303  56.0477352  26.6050529   3.8670632  55.6129980  26.1144590
   3.0267072  56.8716383  26.1392021  83.5115026  79.3951511  48.7867165
  83.1416381  80.2701378  48.9043140  84.3740520  79.5495176  48.4014750
   7.9812229  66.4723730  27.3435569   8.6298209  65.9001255  27.7535391
   7.2230321  65.9072781  27.1950769  13.8281739  54.3489790  56.2216711
  13.9749670  54.7127914  57.0947838  13.2172203  53.6258221  56.3631392
  48.7870170  70.6423855  34.5143723  49.6666671  70.5083084  34.8671746
  48.4748770  71.4381123  34.9452162  27.2645609   3.4347289  40.0161314
  27.0385127   3.5081523  40.9433556  27.0405983   2.5330870  39.7856712
  81.2365393  51.4988422  66.4187813  81.7882980  50.7195616  66.4860153
  81.8544210  52.2203636  66.3010693  51.8978454  28.6942148  20.1056504
  52.1233607  28.8193727  21.0274458  52.4101878  29.3563914  19.6416891
   1.7703855  35.5690837  21.0110402   1.8402068  34.6521044  21.2765694
   2.4932408  35.6962156  20.3965902  76.4938743  18.3147287  34.5378137
  76.0309721  19.1211569  34.7650290  76.4813490  18.2928479  33.5809469
  36.2352800  57.6890850  44.5081377  35.7762122  58.4692049  44.8194265
  35.6609464  57.3263311  43.8337612  18.2700372  49.6608353  14.4713020
  18.4435523  49.6888924  15.4122257  17.9135621  50.5255127  14.2676020
  10.7393098  34.3650150  30.9423804  10.6169045  33.6361885  30.3340530
  10.4957581  34.0077066  31.7963386  83.5504761  15.4609537   6.0802329
  84.4367012  15.1165700   6.1908525  83.4440694  16.0837972   6.7992431
  77.1154351  37.2956753  22.5558162  76.4748646  37.9937816  22.4196172
  77.3676617  37.0263934  21.6725826  15.4595172  43.7448597  52.1739292
  14.7799063  44.2825317  52.5804567  16.2510908  43.9396858  52.6756144
  18.4434628  40.9305429  58.9596033  17.8606403  40.9265375  59.7188997
  19.2568672  40.5407000  59.2799616  21.2831593   6.6518301   9.0296638
  20.7058859   5.8935004   9.1186774  21.1651206   7.1396816   9.8447096
   9.2910802  34.2827845  53.6793423   8.4448445  34.0872765  54.0817022
   9.4997346  35.1677966  53.9784193  73.4559847  71.1198521  51.9499016
  74.2087532  71.2605095  51.3756275  73.8306619  71.0765839  52.8296566
  33.1475258  48.9982796  44.0116644  33.9408255  49.4906569  44.2225456
  32.8170037  48.7019730  44.8597145  13.6042869  27.1953845  36.9079876
  12.9823720  27.1378064  37.6333404  13.0566204  27.3113847  36.1315608
  61.1163665  38.7052226  18.4053957  60.3958584  38.1893063  18.7672389
  61.6275264  38.9716864  19.1695583  63.1456567  24.8464584  35.5995822
  62.4068309  25.3001237  35.1939273  63.6424924  25.5393171  36.0347080
  67.8247179  33.4916806  54.5954180  68.6597992  33.8073444  54.2501259
  67.1643199  34.0122175  54.1380930  32.0419168  64.8531008  59.7797108
  31.5787959  64.0218401  59.8834229  31.7151308  65.4000854  60.4940271
  23.3034370  23.4107535  47.6446390  23.5503900  24.0962832  47.0239115
  23.9841533  22.7446215  47.5491285  62.2294212  66.4066887  56.7334461
  61.9098855  65.7496691  56.1150169  61.4761020  66.9767046  56.8878078
  10.6078970  65.9505701  48.1506491  11.0419571  66.5226841  48.7835121
  11.2150776  65.2201271  48.0322742  10.4731331  31.9736998  27.8851938
  11.2751135  31.9651263  28.4076738  10.3612814  31.0658400  27.6031995
  67.4121905  54.7725964  11.1306262  66.4900519  54.7478342  11.3861239
  67.6253165  55.7050037  11.0928881  14.1943550  57.8073072  23.3649135
  14.6865952  57.0129347  23.1577945  14.8213053  58.5186148  23.2337165
  77.1447510  22.7667399   2.2022906  77.8327197  22.3461361   1.6865149
  77.3712916  22.5682087   3.1108608  81.8411494  47.9338551  14.6062469
  81.2697048  48.6512852  14.3324184  82.6330776  48.0442381  14.0800357
  40.5216250  69.8685672  42.7211704  40.2781996  69.7348716  43.6371937
  39.7163972  70.1707389  42.3010102   6.2269485  57.0774889  57.5416708
   5.4590321  57.3919153  58.0188179   6.9590372  57.2293091  58.1393576
  33.1658173  65.7597637  21.0054088  33.3458042  66.6848707  21.1727905
  33.7241244  65.5381632  20.2601457  20.4530215  76.1319208  40.7253075
  20.7917786  76.9920254  40.4769278  19.6003616  76.3151217  41.1198187
   3.0841014  65.3708649  48.6496162   3.1492105  66.2378025  49.0501308
   3.2022476  65.5301666  47.7131891  66.9697095  46.3137102  34.5460057
  66.4482237  46.1170578  33.7677956  67.1492435  47.2518253  34.4832397
  43.1840953  10.9502070  52.8411531  43.0520150  10.7815783  53.7740755
  43.9463887  10.4205077  52.6075840   7.4812376  58.5992050  13.1198978
   6.6166246  58.3367920  13.4358335   7.3027736  59.2807817  12.4719524
  36.3046861  60.6178427  39.3696713  37.2010303  60.2845049  39.4106936
  35.7840538  59.9628496  39.8346019  58.4402991  43.6184597  34.2291975
  57.7786256  44.2569256  33.9631581  58.0172516  43.1089306  34.9203134
  77.8813595  27.0080443   1.8432703  78.3394260  26.6994305   2.6250401
  77.5893826  26.2084790   1.4054527   7.2789311  28.2899737  59.8949242
   6.5518039  27.7009201  59.6935940   7.7605367  27.8461003  60.5929661
  69.2261578  59.0339708  26.7179298  68.9453472  58.4161854  27.3929977
  69.3451489  58.4958172  25.9353280  75.0336791  49.9361038   6.0721827
  74.0974964  50.0772333   6.2131631  75.1266528  48.9851236   6.0153919
   8.9762395   5.5492897   7.3641100   9.6963852   5.2471848   7.9176083
   8.9904612   6.5023775   7.4516049  72.8663839  71.8168545  41.4777613
  72.3386551  72.5995588  41.3193083  72.3273076  71.0950136  41.1543798
  35.7976046   1.7147391  51.5300465  35.0962523   1.0640948  51.4984608
  35.6199536   2.2200911  52.3233271  82.2636450  51.7382479  42.6937008
  81.6894753  51.5613317  43.4388590  81.6940809  52.1526623  42.0455551
  84.1061942  48.1919787  49.8762080  83.7359396  48.9890883  50.2553770
  84.5717231  48.4919760  49.0954909  65.0156642  60.6965065   8.7477887
  64.9669410  60.6195545   9.7006458  65.1106502  59.7953796   8.4392697
   6.1261258  72.5130703   4.3743315   6.9923243  72.2007515   4.1128197
   6.3029370  73.1942012   5.0232020  22.2525883  32.7138877  55.1727152
  21.2990236  32.6444030  55.1267004  22.4660373  33.4574413  54.6089792
  53.0100441  28.1324410  32.2478843  53.0634451  27.4992299  32.9637241
  52.1667957  27.9531574  31.8319297  57.8489066  57.1520090  23.2813787
  57.9385401  57.3661137  22.3527479  57.0081044  57.5328159  23.5349011
  17.3319995  47.7614069  26.0357881  16.4225554  47.5230885  26.2156391
  17.8193331  47.4343443  26.7919421  17.9241288  60.8359098  49.5421934
  18.4490669  61.4135218  50.0963020  17.0288467  61.1607599  49.6379662
  48.6713266  61.7440939  30.0498652  48.6113787  61.0524178  29.3909049
  48.0748415  62.4245644  29.7377896  15.4962432  31.3880134  21.2584734
  14.6455991  30.9491587  21.2649274  15.3456366  32.2092271  21.7266178
   7.5854659  39.0142012  29.1820788   7.8582758  39.7834468  29.6821475
   7.1612459  38.4476733  29.8265290  13.7637043  41.3958168  32.4494243
  14.6363616  41.4308357  32.0576644  13.1659341  41.3830137  31.7019367
   9.3668187  80.0788212  35.1510429  10.3173769  80.1281738  35.0498748
   9.1248882  79.2492294  34.7393608  28.6408353  66.0276890  65.0813866
  29.1339087  65.9551334  65.8986092  27.8613639  66.5313530  65.3158665
  74.6579314  52.9574490  35.9974504  73.7089397  52.8330660  36.0106277
  74.9048663  52.8197336  35.0829601  16.4951193  51.3497019  62.6948595
  15.7600427  51.5977526  63.2555437  16.5961027  50.4082012  62.8348827
   4.2815170  40.0728512  21.6992188   3.4428054  40.5258560  21.6121435
   4.4096380  39.9855304  22.6437783   0.2897325  14.4634602  67.4217837
   0.6505099  13.5848305  67.3031041   0.7612005  14.8160384  68.1765280
  73.2782794  52.2759485  48.3900976  73.6329688  52.8103161  47.6795435
  73.3169354  51.3791752  48.0576324  82.7481706  79.0529251  46.0898066
  82.0766107  79.7248507  45.9725237  82.6789663  78.8034010  47.0113134
  80.5644764  27.3515844  31.2303090  79.7523845  26.9090438  30.9835339
  81.1603193  27.1832895  30.5003214  61.3617946  68.8321209  52.7929115
  61.8596746  69.6140528  53.0315018  60.4853440  69.1589546  52.5898170
  76.3314791  49.6495676  52.3676062  76.7243225  50.0888586  53.1218815
  75.3897871  49.7816038  52.4772120  30.9698653  45.6799173  40.9872484
  31.8070674  46.1333227  41.0859776  30.6750107  45.5233717  41.8843460
  72.5285662  71.6965342  22.5628972  71.7410577  71.8408632  23.0875230
  72.2048784  71.3252831  21.7421484  13.1546450  57.8304100  44.5807457
  12.7315283  58.2865763  43.8533401  12.5836885  57.9949141  45.3311968
  76.6406650  39.2839932  44.8606443  76.6350205  39.0638185  43.9291286
  77.4142874  39.8366809  44.9714375  72.9014064  56.0044146  17.3505509
  73.5025800  55.3776360  16.9480932  73.3241535  56.2466240  18.1744742
   5.0179546  34.9527569   6.3487234   4.2370551  34.4556685   6.1051407
   5.7479828  34.4284792   6.0194483  75.9932668  44.4088650  46.3650417
  75.0603486  44.3202829  46.5601015  76.4301915  43.9011908  47.0488501
  37.0110181   1.4823096  46.0485363  37.7423933   1.4420741  46.6647387
  37.2359166   2.1999686  45.4564095  21.6067243  27.3996925  18.9097881
  20.8664560  26.7964530  18.9756656  21.9699955  27.4306059  19.7948372
  58.1110849  35.5618546  63.8909039  57.6607678  34.7797987  63.5717819
  58.7007856  35.2376721  64.5716325  20.6399250  44.7875547  60.0202465
  21.2325168  45.5167437  60.2028751  20.0664210  44.7475386  60.7855701
  10.4253185  57.1462250  42.5178480  10.7961094  58.0261850  42.4513817
  11.1182380  56.6242695  42.9223919   6.8290329  37.9501224  33.9092636
   6.0661769  38.5004449  34.0865445   7.3728478  38.0350900  34.6923828
  18.6616981  73.0633783  26.8236971  18.4168530  72.6076412  27.6290464
  19.4348812  72.5949764  26.5090275  77.6958449  49.4240332  47.8349590
  77.6900972  48.5015392  48.0903006  77.6641579  49.9021196  48.6636066
   0.1098104  49.5160484  47.9440403   1.0591260  49.4104481  47.8817463
  -0.0294461  50.4619741  47.8986359  78.7517328  73.3874130  53.5344505
  79.2648924  73.9605665  54.1040039  78.1981964  72.8871441  54.1340828
   3.9794511  63.1487608  36.2490153   3.1110337  63.5111666  36.4243507
   4.4510406  63.8577414  35.8117700  72.0783223  20.6937051   3.3887836
  71.1984326  20.5253768   3.7259653  72.4611558  19.8239779   3.2736877
  76.8079681  43.1117296  53.6726999  77.0729620  42.8057575  54.5401049
  76.5496786  44.0233088  53.8088560  25.0217390  78.7802267  42.4009275
  25.1698136  79.0662098  43.3023262  25.2456164  77.8495836  42.4050713
  36.5759227   7.4095385  34.5363235  35.9970168   6.6998046  34.8144865
  36.0033664   8.1737941  34.4705415  38.6675882  69.6670675  37.6519656
  38.8388348  70.3126144  36.9662738  38.7993646  68.8214922  37.2231603
  42.4221755  28.3671761  31.5840435  43.2020808  28.6377335  31.0995054
  42.5195790  27.4203420  31.6852808  81.3801662  17.0218298  60.1904008
  80.7386724  16.9773791  59.4813571  81.5835682  17.9536650  60.2712945
  73.2093133  68.9339924  56.4928770  73.1551005  68.5105896  55.6361294
  72.9216803  68.2619333  57.1108055  76.3148470  41.6299868   8.8157147
  76.6146279  41.5793180   7.9080826  76.4962215  42.5325537   9.0778267
  72.5733966  33.1540365   0.9682789  71.7976064  33.3450194   1.4954462
  72.5978560  32.1986027   0.9155216  44.2997122  20.0742745  47.4278784
  43.9133024  20.2974916  48.2746887  43.7028551  19.4249141  47.0559597
  36.4239398  15.6765597  54.9208641  35.5929908  15.2892821  54.6455908
  36.2127087  16.5921920  55.1031637  74.2754341  65.4880142  24.2475152
  74.1415621  66.0679960  24.9971342  73.6143888  64.8038149  24.3529940
  74.4060649  51.7410374  64.2922211  73.9828743  52.3843241  64.8608446
  74.4784893  52.1809959  63.4452152   5.1511058   7.8995078  33.4344721
   4.4183311   7.4797862  32.9837966   5.2030429   8.7726062  33.0455923
  22.5341821  65.5729437  64.3500662  22.9825020  65.7420015  65.1787186
  21.6568613  65.9350777  64.4741726  78.5294605  36.5221000  25.2522492
  78.9281685  35.7059550  24.9503016  78.2717849  36.9743299  24.4489288
  36.1976710  26.1248439  51.1286879  36.9032571  25.5853217  50.7718992
  36.3593850  26.9978278  50.7709599   7.6059061  54.6424770  13.5897982
   7.3096317  53.7355518  13.5127163   7.6733667  54.9500513  12.6858747
  33.0432224  27.8673816  61.9763613  32.8548145  28.0947852  62.8868675
  33.3040905  28.6947823  61.5718985  22.1086001  60.1971388  50.2846813
  22.6016784  59.5499325  49.7804737  21.6461372  59.6832705  50.9467268
  25.5931997  21.7171288  60.2232170  24.8525906  22.3148990  60.1212358
  25.4559350  21.0489750  59.5516825  80.8214484  17.3617136  27.7218962
  79.9515582  17.2947168  27.3281503  81.0648857  18.2806492  27.6099753
  16.0496020  56.7182255  52.4977160  16.1474156  56.2434626  51.6723299
  15.8039236  56.0458231  53.1331301  55.9814001  37.6099324  31.6562772
  55.0979901  37.5286722  31.2968087  56.0108710  36.9689202  32.3665333
   2.6324940  73.6312914  32.4928331   2.5727355  74.0528202  31.6355276
   3.4908631  73.8904905  32.8278685   6.7021650  14.3844140   4.3384999
   5.9648812  14.7423565   3.8440090   6.3162750  13.6941934   4.8778668
  57.0602530  72.8876359  52.4722433  56.5128112  72.9234309  53.2566261
  57.7809937  72.3041798  52.7096081  73.5130407  71.7211056  46.9662523
  74.3393184  71.6418457  46.4895821  73.0372740  70.9175348  46.7561245
  72.8988160  47.2335243  32.3642182  71.9433070  47.1771193  32.3569608
  73.1571222  47.0382404  31.4634562  84.0890753  46.9594193  47.1150780
  84.6321067  47.7304602  47.2789335  84.4387555  46.5879202  46.3051701
  82.7875150  30.5909824  29.2773700  83.2523459  30.2381802  28.5186243
  83.1422259  30.1058698  30.0224042  10.0964427  44.1646004  42.9286575
  10.2565360  44.3396330  43.8560009   9.6285540  44.9389315  42.6160574
  72.0624782  39.8733234  18.5269582  72.5306393  40.6926632  18.3665299
  72.3891653  39.2752361  17.8547978  67.5184179  48.1135654  18.5804582
  68.2070721  47.4560165  18.4824002  67.0422126  48.0872583  17.7505374
   0.6469356  44.2559004  60.6406593  -0.2775148  44.1662455  60.4091787
   1.1008835  44.3045139  59.7993517  18.9039040  38.8184285  13.6211181
  18.0607915  38.4734654  13.9150465  19.4100237  38.9315462  14.4256556
  85.3124302  52.1757078  33.8589573  84.4106155  51.9637823  33.6180210
  85.3119822  52.1711922  34.8161459  81.3572390  70.7844019  19.8563242
  80.4472614  70.5755377  20.0673890  81.8007002  70.8069038  20.7043028
  16.1788476  69.4972801  41.9778109  15.6101036  68.7274694  41.9901419
  16.3939250  69.6213865  41.0533810  38.1137330  30.3929873   8.4853783
  38.7292296  30.7369871   9.1327229  37.9477507  29.4933672   8.7670984
   9.5546526  19.5004272  31.7901134   9.3470293  19.5658875  30.8579969
  10.4468799  19.1545403  31.8130422  44.7761822  48.1769896  13.0289006
  44.4270754  48.0206013  12.1514618  44.2656469  48.9150858  13.3617616
   1.4403041  51.0572338  20.5129266   1.9438875  50.6314039  21.2066865
   1.1943225  51.9055843  20.8817363  78.9331237  75.2977909  13.3841336
  78.5580603  74.5245487  12.9626417  78.2005445  75.9094501  13.4578359
  71.4437998  30.7471919  50.7454443  71.7317201  30.0351834  51.3167381
  71.0288681  30.3064489  50.0039577   4.2204714  42.4045038  16.1701584
   5.0219011  42.8160667  16.4935100   4.0341413  41.7120981  16.8042612
  15.6050611  34.0744877  20.9733939  16.3194561  34.5940137  21.3421249
  15.9244490  33.8052773  20.1121473  16.3553989  39.9382830  34.5626855
  16.1766696  39.4932795  33.7342763  17.0249331  39.3996167  34.9843407
   1.1298686  77.8660631  63.8161421   1.1580915  78.7955093  63.5890675
   2.0156878  77.6664972  64.1190100  61.6480900  42.3046303  30.9437084
  62.3452331  42.4852943  31.5742493  60.9167958  41.9941568  31.4776087
  10.7220564   2.4460547  14.1625154  11.4404378   2.8555434  13.6803508
   9.9673912   2.5226920  13.5787022  79.1519691  68.1048822  35.2269316
  79.7132898  67.4042940  35.5590916  79.4837655  68.8977289  35.6482768
  36.0476804  70.1852083  52.4841642  35.2831459  70.5569649  52.0442629
  36.7957401  70.5296803  51.9963360  81.5300656  36.4154530  18.1355608
  81.3262425  37.0907474  17.4885166  82.4850858  36.3521314  18.1229579
  13.7603879  40.2127218  38.5415292  14.1485059  39.5181322  39.0736413
  14.0845215  40.0458765  37.6564693  67.6583530  47.8984976  43.3447123
  68.4243990  47.5443459  43.7963486  67.2161389  47.1298313  42.9843950
  70.9500910  60.5228996  24.9877715  70.2320768  60.0426006  25.4000854
  70.7941235  60.4268646  24.0482593   1.8567726  47.2720051  28.8466525
   1.6955662  47.6409101  27.9782319   1.0828409  47.5119543  29.3562460
  84.6752645  16.2348330  22.7359080  85.5123189  16.3986254  23.1703544
  84.6056859  16.9290137  22.0805430   7.2511952  11.1365290   4.8863783
   6.6035860  10.4936047   5.1753130   7.0900553  11.2336560   3.9478531
  22.3137259  46.6914320  52.3101759  22.1047044  47.5291729  51.8969727
  21.9913268  46.7797279  53.2071114   7.2277707  49.9384642  31.2534714
   6.4019978  49.8544836  30.7767344   7.0426172  50.5763483  31.9427133
  33.2807636  63.5618687  27.2702837  34.1576815  63.7081814  27.6250219
  32.8866935  62.9212618  27.8623724  37.2876541  20.9370921  68.5127010
  37.1904353  21.5108559  69.2726837  36.7695276  20.1620934  68.7298567
   6.5890402  68.1127310  39.0310645   6.9233751  67.2596216  38.7541962
   6.8708289  68.7152815  38.3427620  59.4260074  62.9800081  37.1388793
  59.7401739  63.7742901  36.7068577  59.7369982  62.2658014  36.5826178
  19.4634891  21.6502476  43.6586952  19.5867062  22.0631933  42.8039885
  18.7645304  21.0116601  43.5176373   4.9461359  35.8467841  21.6025424
   5.1661909  34.9363565  21.4052343   4.5297769  36.1710334  20.8039570
  73.8761760  37.8649974  43.1022072  72.9833687  37.6360655  42.8439140
  73.7784315  38.6650229  43.6185741   2.7495474  44.4936132  34.6499920
   1.8870868  44.3610668  34.2565131   2.8813282  43.7236309  35.2031612
   0.5306285  48.2934237  37.6504827   1.4828962  48.3070564  37.7465653
   0.2134873  48.8975382  38.3218217  24.3021369  70.5574512  34.9423146
  23.9609122  69.7715473  34.5155215  24.2904305  70.3471708  35.8760595
  43.2437787   7.5768702  42.4458838  43.1019363   7.5131362  43.3903694
  42.5389943   8.1454413  42.1356678  66.1690742  30.5017601  62.7380363
  67.0392043  30.4286562  62.3459134  65.9020407  31.4039354  62.5619540
  73.2086290  50.6932592  18.5285246  74.0591015  50.3186941  18.7579358
  73.2838882  51.6187048  18.7611771   0.8738988   0.2493878   8.4126463
   0.1612871   0.2745123   7.7740660   0.5831426  -0.3813748   9.0713062
  17.1732497  80.2562141  62.0340538  17.4356604  79.3417740  62.1397543
  16.6307724  80.4399014  62.8009987  16.5965211  58.2147741  28.9851403
  16.4579654  58.6965847  29.8005486  16.3130391  58.8188457  28.2988715
  27.9146828  19.7567694  34.3384314  28.5227471  19.8503440  35.0717330
  28.4461247  19.9345725  33.5624242  78.2857073  73.4563875   8.0632943
  77.3289366  73.4674501   8.0897468  78.5523118  73.9747858   8.8225144
   3.2437652  34.2275453  28.6673975   3.6167830  34.8845434  29.2551398
   2.5598782  34.6954942  28.1882787  46.8532273   0.8869975  36.3170052
  47.2812054   0.2506297  35.7441998  47.5744793   1.3301032  36.7638636
   2.7464914  67.6247787  50.1090002   1.9787657  67.2024441  50.4943037
   3.4696519  67.3796701  50.6862259  75.7841838  75.8914280  34.5002031
  76.0568960  76.4693213  33.7875342  74.8459209  75.7642746  34.3597484
  56.4157272  53.6260223  32.9770637  56.7195226  54.5321131  33.0312586
  56.7451001  53.3129597  32.1346045  39.3522501  35.0508523  37.8859735
  38.7819695  34.3693781  37.5301600  39.2751861  35.7756877  37.2655654
  22.4562857   0.1674979  48.7933493  21.6936961   0.6996959  48.5665321
  22.2109702  -0.2665574  49.6104527   8.7471867  52.6801682  50.8141279
   9.4117206  53.1986427  51.2677956   8.8487756  52.9148769  49.8917294
  31.5812814  15.4259246  32.5773358  31.5144480  14.7565310  33.2582736
  31.6541571  16.2503379  33.0582380  77.8500427  21.4366508  28.9907432
  78.3331777  20.6103635  28.9830923  77.8895481  21.7455912  28.0856323
  38.3012524   0.4371970  50.5681849  39.0136382   1.0114615  50.8491802
  37.5313762   0.7658713  51.0324001   6.7890620  67.4594784  46.1443710
   7.6985991  67.2197676  46.3218927   6.7263949  68.3763456  46.4120579
  13.0996108  75.1949978  25.6825852  12.3449671  75.1916075  26.2714267
  12.7767015  75.6081438  24.8817897  24.4399643  67.7715921  49.6116543
  24.9323368  68.1303835  50.3499413  24.9440265  67.0055246  49.3372536
  29.0041304  47.6310349  45.2643013  29.5140576  48.2820177  44.7821856
  28.5013461  47.1735907  44.5903683  23.2945824  75.1384306  23.0593657
  23.1334186  74.4231367  22.4440503  22.4295712  75.3539515  23.4079838
  66.2045655   7.5056975  21.0878754  66.6444478   7.1231883  21.8470979
  66.2573752   8.4506076  21.2313747   8.4435558  70.6765985  25.7515383
   8.6479467  69.7705507  25.5201674   7.9668856  70.6107998  26.5789962
  68.4571103  46.1156580  66.2881902  68.6833600  45.1859305  66.3137505
  69.2201714  46.5370677  65.8927340  15.5176139  77.9156780  50.7059622
  15.3034270  78.8479900  50.6721258  16.2129986  77.8059864  50.0573921
  34.7781310  31.5506499  43.0814981  35.1388982  31.5852588  42.1955633
  34.8166934  32.4554961  43.3913326   9.4736141  60.2379656  54.6508169
   9.5205152  60.7366800  55.4664850  10.3178835  60.3921366  54.2269373
  82.4599547  41.0124207  42.1469212  82.4430866  40.1417160  42.5441885
  82.0977337  40.8828354  41.2704325  20.8250189  34.3538499  30.6662583
  20.4632783  33.6375475  30.1444483  21.4590263  33.9315248  31.2458324
  63.4609700  54.6533012  31.2627482  63.8746382  53.9127636  31.7062759
  63.1981231  54.3056440  30.4105282  20.3794837  72.6140499  21.0516810
  20.3686500  72.7321529  20.1018572  19.7306252  71.9296312  21.2153506
  29.0642810  45.1018572  15.2374756  28.5807753  44.2761612  15.2636135
  29.2824626  45.2807093  16.1521566  83.2206633  75.8259726  60.8363247
  83.7737801  76.5894794  61.0017014  83.6686566  75.3530693  60.1349688
  41.9680786  72.7491903  49.6557188  41.2799215  72.9577112  49.0239000
  42.5319576  73.5226583  49.6596861  17.7185810  79.4703674  52.7693319
  16.9302082  80.0100231  52.8282547  17.7906573  79.0568972  53.6296082
  28.9596009  57.3402786  45.4250097  28.8692904  57.6665211  46.3203573
  29.8470306  56.9833946  45.3885078  28.0326080  74.8885822  21.4482784
  27.3078561  75.0533676  22.0514512  28.3540249  75.7598686  21.2163568
  48.7079129   3.5221904  37.0963240  48.9936671   3.9607661  36.2949347
  49.1469655   3.9996283  37.8002501  46.3381863  53.2938862   4.2303562
  46.1590624  52.5345898   3.6757225  46.7614317  53.9228487   3.6459732
  38.5554481  62.7280092  61.6622925  38.8396072  61.8761396  61.9936514
  38.7378454  62.6927280  60.7232952  19.5497108  71.6068888  47.7238846
  19.8506236  71.9815254  48.5517311  20.2806854  71.7408991  47.1206045
  49.3063316  25.5467933  43.9652777  49.8264942  26.1096423  44.5387411
  48.7989244  26.1554473  43.4283400  61.4216098  21.4764350  34.0150714
  61.4912424  20.6135409  34.4234848  60.5624613  21.8006556  34.2852163
  69.8466087  53.7539911  39.0374994  69.1215337  54.3033314  39.3353629
  69.6555508  53.5846901  38.1149673   1.2849203  79.6197844  26.0325837
   0.6646010  80.2989960  25.7677984   1.2879741  79.0005016  25.3027129
  77.3056145  70.6195068  65.4382801  77.9789139  70.6805038  64.7606516
  76.7366053  69.9069929  65.1470947  61.4414963   9.8855632  37.8354168
  61.2300310   9.9698680  38.7651515  60.7797513   9.2847865  37.4927950
  44.0643436  38.4207554   1.3859406  43.5538763  39.0930767   0.9346810
  43.6850304  38.3810253   2.2638788  16.3280249  55.7613087  49.7933149
  16.5072644  55.1006460  49.1242647  15.9076309  56.4770269  49.3166113
  65.3410483  40.4606199  40.5241203  64.4304372  40.3323793  40.2584600
  65.6025852  41.2762785  40.0968790   2.0567809  29.3731380  49.0052128
   2.4483602  28.5111976  49.1464806   2.7425879  29.9918509  49.2564058
  49.9309206  76.8059731   8.4790879  50.0036669  75.8931684   8.7578845
  50.8192635  77.1529341   8.5609454  28.7199783  48.9280939   5.3029180
  28.4465861  49.7000217   4.8073199  28.1778169  48.9454222   6.0915822
  42.1919250  59.9820328  48.4006262  41.6696548  59.4484186  47.8016901
  43.0909252  59.8838472  48.0869579  43.4032008  10.4049533  62.4066353
  43.3639035  10.8184283  63.2690287  43.6160931  11.1204188  61.8074608
  23.5405779  57.0656633  28.5233402  23.1447721  57.9249048  28.6691689
  24.1597438  56.9614410  29.2458367   1.8957083  61.1955881  67.5468969
   2.4271107  60.6314039  68.1086302   2.3486169  61.1889601  66.7036533
  48.9588594  75.4995441  43.9384842  49.3189526  74.6136284  43.8970375
  49.6050739  76.0421371  43.4865665  80.5040828  65.1565933  17.8253639
  81.3616289  65.3089571  17.4283350  79.9101485  65.7288504  17.3395741
  44.4917638  30.3344794   3.3343830  45.3893596  30.1549692   3.0545035
  43.9455814  29.8750944   2.6965084  28.9367723  61.2711763  27.9327345
  29.2800426  61.3386106  27.0417523  29.3631983  60.4948187  28.2955813
  19.6617007  65.8912420  53.3533096  19.7416377  66.8284893  53.5305262
  19.3452001  65.8442020  52.4511719  53.1972862  65.2335453  56.3256645
  53.4343530  64.6763039  55.5843735  52.4765350  65.7723475  55.9994125
   5.8243585  60.9645748  50.6508112   5.6551850  61.8995476  50.7667446
   5.8943474  60.6215715  51.5417004   7.1304584  64.7882128  32.8176045
   7.9520559  64.5224047  32.4046230   6.6559869  65.2540016  32.1290159
  26.1695695  71.8884182  27.1223688  27.1124625  71.7299414  27.1678662
  25.9943151  72.4981356  27.8391409  61.0942364  73.0552816  35.8301902
  60.7911253  72.8612852  36.7171621  61.0646105  74.0101576  35.7704377
  23.0332899  41.9641066  14.1883898  22.2702503  42.5357008  14.2737257
  23.4178448  42.2023106  13.3448207  50.4322109  68.6776569  11.6849747
  49.7858271  68.9486911  11.0330811  49.9188957  68.5069039  12.4746456
  54.2768917   3.3231967  56.2674856  54.2286811   3.5995333  55.3523111
  53.3657608   3.1770079  56.5218544  66.7622341  65.3684807  28.3829618
  66.4042092  64.5055771  28.5914087  67.4206675  65.5245209  29.0599775
  48.1282520  59.8954296  25.1574922  48.9721298  60.3299189  25.2812910
  47.4807119  60.5532598  25.4108381  13.6363515   2.3582309  34.7659826
  14.2545185   2.0397227  35.4237509  14.1592500   2.4474089  33.9692044
  70.3757457  34.3014691  53.7436852  70.7978741  33.4854815  54.0123889
  70.7004217  34.4584105  52.8570149  22.7782083  61.3912058  37.0780158
  21.9849420  61.2306356  37.5890708  22.7088451  62.3073816  36.8096066
  23.6213401   9.3362658  24.5415854  22.6871112   9.2463439  24.7296381
  24.0041068   8.5067885  24.8273993  11.1712217  69.8688507   5.3742415
  10.5807936  70.5416489   5.0351733  10.5918944  69.2253208   5.7822669
  79.0615327  71.9492245  21.5787268  78.7868858  72.8445196  21.3806224
  78.9067675  71.4660692  20.7670355  28.3215714  76.3877869  45.1139975
  27.9318905  75.5960941  45.4849482  29.0831089  76.0740185  44.6263027
  19.8056376  52.2782230  24.6036911  19.3964553  53.0418110  25.0107908
  19.2066610  51.5560198  24.7931194  84.8115265  75.5629110  30.9900260
  84.5594405  76.4096880  31.3583302  84.6042733  74.9310160  31.6784978
  53.6267123  18.6511462  37.2756410  52.9063758  19.1379969  36.8752480
  54.4171366  19.0561431  36.9186568  78.6351026  67.8519630  18.3534944
  79.3227221  67.6556969  17.7171838  78.2160784  67.0078754  18.5213327
  36.6705683  24.4014399  48.1091261  36.4143077  25.2774756  47.8208351
  37.5688502  24.2990439  47.7947426  31.1137438  58.2241249  49.9477911
  31.3942552  58.7219334  50.7157326  30.4562831  58.7797880  49.5292044
  79.7012390  75.2210188  46.0215759  79.1507835  75.8934879  46.4228392
  79.5762874  75.3396511  45.0800085  46.5562057  59.1880989  27.3426008
  47.3072577  59.5184851  26.8496513  45.8767843  59.0530491  26.6820121
  56.9107637  14.1658824  38.0778027  55.9650907  14.0918677  37.9495168
  57.0809373  13.6851161  38.8878226  62.9336247  17.8772395   1.9184786
  63.3867440  17.3052447   2.5379455  62.9424295  17.3916953   1.0936132
  29.0140629  59.7454596  51.4122677  28.7700462  60.4825354  51.9720984
  29.0972447  59.0053034  52.0134974  30.9180617  59.9504662  39.1673827
  31.3679647  59.8338795  38.3305883  30.3160048  60.6790876  39.0161490
   9.3319225  67.3577738  21.7742348  10.0280762  67.5437784  22.4043202
   9.5760024  67.8553677  20.9938145  24.8459578  78.4087276  13.7152445
  24.7251153  78.8237524  14.5692837  24.2232513  78.8553429  13.1416559
  17.1592391  60.4643011  27.3510695  17.2623610  61.0495520  26.6006827
  17.9089022  59.8715591  27.2973132  66.7071662   7.1216529  52.2153378
  66.1562500   6.4579909  51.8002701  66.1112103   7.6027434  52.7894592
  16.5389955  64.6450233  69.1411829  15.8286905  65.1555204  69.5298815
  16.1488998  64.2448807  68.3640432   8.8490909  56.8414021  28.0698943
   9.5298266  56.9255638  27.4022508   8.9412433  55.9455824  28.3943152
  72.0677337  11.0547774  29.9435568  72.7758941  10.5956977  30.3952074
  71.6500768  11.5808242  30.6255174  31.3243461  67.8859806  36.3324285
  31.3246417  67.3298597  37.1115065  31.0875583  68.7543631  36.6581106
  58.2682356  22.2939055  39.6192932  59.1309437  22.2184890  39.2115164
  57.8298959  21.4699977  39.4065166  28.3318877  36.9782639  47.5812101
  28.3350015  36.0780168  47.9064465  27.7029943  36.9700694  46.8596411
  14.1964614  64.0110683  42.4342346  13.5329604  64.6109915  42.7749538
  14.2437410  64.2120409  41.4995670  82.2217540  54.2103672  33.5543847
  82.8958763  54.2652941  34.2317128  81.5334363  54.8048639  33.8527560
  52.4706745  66.6483974  60.4473734  52.2406006  65.8936071  59.9055338
  53.4254026  66.6964293  60.3981829  13.6701083  58.4810352  50.4838610
  12.9653633  58.9793396  50.0700188  14.3436790  58.4116983  49.8073053
  33.3879885   6.1962264  31.8818903  32.9374707   7.0181601  31.6877389
  34.2259786   6.2686866  31.4249945  53.0461344   3.6426490  53.2533264
  53.6832676   3.9114421  52.5914717  52.5576076   4.4410460  53.4536743
  76.5262617  34.2230821  21.1698890  76.4156515  33.3339691  20.8330274
  76.6190768  34.1109490  22.1159577  42.0432711  59.1834784  17.0268583
  42.7607107  58.5746956  16.8510890  41.2532377  58.6463881  16.9667327
  19.7654045  69.9619293  10.9564316  19.9824691  70.1628780  10.0460827
  20.3068733  70.5615616  11.4697397  47.6174829   3.7258284  54.6146774
  46.7389283   4.0874236  54.7313976  47.7088258   3.0858558  55.3205967
  39.6767888   4.4768565  46.9415808  39.8941323   4.0851348  46.0956812
  39.4797418   3.7305110  47.5075960  60.5893136  69.2187262  41.5027380
  60.5477358  70.1594782  41.6744423  61.3214875  69.1184235  40.8943844
  47.7228832  73.1766272  31.9653583  47.3678064  72.3423004  32.2720385
  47.4986506  73.2049465  31.0352254  26.2921405  78.2958460  32.8241062
  25.8322024  78.4993935  32.0097017  25.7220531  78.6374855  33.5129595
  27.5969148  42.1503115  42.6124525  28.4972024  42.3730755  42.8492832
  27.2680259  41.6537094  43.3617496  41.8615672   8.6872809  25.5555820
  42.5931630   8.4096473  25.0042915  41.2744078   7.9315131  25.5728483
  70.1639709   3.0433028  62.8929663  69.4327650   2.6865046  62.3887205
  69.7666130   3.7122863  63.4504604   9.4924295  52.2467995  41.5236044
   8.5648817  52.4107647  41.3533020   9.8176336  51.8492746  40.7158613
  80.4204411  10.7480049  48.4992361  80.8031989   9.9338573  48.8261795
  80.2960963  11.2853146  49.2815876  22.0112228  67.0767641  51.4290476
  21.3267589  67.1769094  50.7674503  22.7730393  67.5188875  51.0543537
   1.3660473  64.2058039  35.1900434   1.0135794  64.8171234  34.5432925
   0.6380975  64.0467358  35.7908893  73.2388164  58.7770319  10.1618886
  72.5518907  59.0714836   9.5638412  73.6006809  59.5844269  10.5271232
  67.1227373  67.3109865  56.8912458  67.3290683  66.4793921  56.4645004
  66.8946398  67.8994036  56.1715460  77.7070350  13.6257954   1.6034546
  78.1493038  13.6269255   0.7545557  77.0201964  14.2868109   1.5165606
  82.9538834  52.6381779  38.6820149  82.5368709  53.3424807  39.1782856
  82.2319583  52.0617008  38.4315562   8.9548588  59.9262476  37.5261283
   8.2148790  59.3236399  37.4517941   9.7213876  59.3570232  37.5942850
  13.2432318  61.1524248  59.9596262  13.3098233  61.0294390  59.0126991
  13.0009878  60.2899170  60.2967215  77.5475390  70.1393890   8.2714540
  78.0856455  70.6638479   7.6784790  77.5831385  69.2546463   7.9078764
  74.1707743  76.4995193  40.4193544  73.6020590  76.6760063  41.1687851
  73.5756529  76.1985826  39.7326946  29.5509481  73.0641508  39.7127938
  28.7128043  73.4410810  39.9805069  29.4436073  72.8800106  38.7796259
  65.8662948  10.3935759  47.6729918  65.5273566   9.8813002  48.4071112
  65.0877747  10.6417697  47.1744537  81.0234074  77.8969097  20.2358365
  80.7909615  77.4389410  21.0435915  81.9564692  78.0889368  20.3293896
   8.4831959  73.8753510  41.4017153   8.5985976  74.6070337  40.7954597
   7.5679505  73.6167669  41.2935781  58.8018045   4.4984381  33.5873389
  58.4640154   4.4367163  32.6938510  58.8307509   3.5926764  33.8955545
  13.5155690  52.1026421  23.5969496  14.3328428  51.8314695  24.0149927
  12.8298688  51.7967129  24.1906285  22.9033422  44.3208694  30.4163504
  22.7412605  43.3786821  30.3689766  23.0096173  44.4989300  31.3508177
   6.1525124  57.2797298   4.8676705   6.0866970  58.0410337   4.2912027
   6.0972816  57.6430655   5.7515085  24.7473049  79.1247177  16.6845727
  25.3441858  79.8682308  16.6000152  24.1485763  79.3769646  17.3875141
  20.0897908  70.4171181  32.3651910  20.5989575  70.7288027  31.6169691
  20.5713582  69.6524382  32.6807666  78.3320967  52.1402380  67.3067949
  79.1446368  51.8157408  66.9185856  78.1570999  52.9604647  66.8454519
   9.8679268  56.1516666  53.2387257  10.7518685  56.4913702  53.3783007
  10.0019813  55.2912474  52.8413153  45.9550351   5.2787991   8.9216271
  46.4305121   6.1037369   8.8234892  45.0462515   5.5419655   9.0668431
  48.5780525  64.0576267  33.5388708  49.1770887  63.7016439  32.8826213
  47.8602362  63.4254885  33.5758972  11.5984857  58.2927990  23.5082912
  11.2743378  58.6217022  22.6698494  12.4492824  57.9061890  23.3011436
  41.7711973  70.6954908  36.7270327  41.3587284  71.2810564  36.0920405
  41.4870214  69.8197746  36.4651227  11.6531944  74.3984413  60.3134394
  11.2339497  75.2532673  60.4121161  11.0134971  73.7764883  60.6601334
  36.5419221  51.9927454  48.8774204  36.4919257  52.8138256  49.3668652
  35.7216191  51.5429068  49.0798473  27.3561287  70.5928421  65.1477671
  27.9229784  71.3599873  65.0677443  27.7254534  69.9571562  64.5347929
  29.9350994  61.3147469   6.0897866  30.3448170  60.5063172   5.7818928
  30.2337616  61.9841404   5.4742089  73.8198566  72.0773077  35.1121902
  73.9074039  72.8406763  34.5413709  73.4585619  71.3951635  34.5461679
  73.0293426   6.8162577  34.8564386  72.3633775   7.5035994  34.8732305
  72.8463468   6.2864535  35.6323576   5.4353842   1.6702311  32.7785873
   6.0293803   0.9543937  32.5528240   6.0116324   2.4162715  32.9446983
  44.9664116  60.6448936  43.5070515  44.9386120  59.8142910  43.9819765
  44.0477419  60.8577156  43.3427620  82.9274661  70.8157969  27.6307034
  82.1381200  70.3187370  27.4160028  83.6477199  70.2129698  27.4461293
   9.7129884  69.1112442  40.5657530  10.1140705  68.7802620  39.7621274
   9.8263469  70.0604398  40.5166769  37.1340680  54.5818806  62.5173616
  37.1699238  53.9641094  61.7870808  37.3225737  54.0499687  63.2905149
   9.0916412  27.6025124   5.0863066   9.4400638  28.4523220   4.8167458
   9.2910164  27.5474425   6.0208883  23.3051729  51.7272854  21.6636038
  22.3532486  51.7898560  21.7420697  23.5663319  51.1433983  22.3757124
  38.6244059  66.3610268  31.8732667  39.2650270  65.7641363  31.4865398
  39.0831590  67.1990347  31.9325972  39.3776941  69.6820736  45.3944445
  38.9404035  70.4564953  45.7483864  38.6633706  69.0882969  45.1633549
  18.7887836  72.3580503  41.5673637  19.0425682  72.5742197  40.6700897
  19.1796350  73.0505085  42.1002436  38.8701916  52.1994925  54.4501543
  38.2914042  52.7551651  53.9281702  38.5250902  51.3147640  54.3301916
   9.9104774  61.7729044  39.2903471   9.5565170  61.3444328  40.0696802
   9.4072354  61.4037037  38.5646248  73.5550699  19.7936480  15.6252944
  72.8628502  20.3024047  16.0474765  74.3117246  20.3798526  15.6164861
  66.7696292  21.5611143   8.5964575  66.2255532  21.0296507   8.0152884
  66.2587268  21.6339512   9.4026270  77.7336676  66.7299557  65.6166077
  77.4448187  66.0315704  65.0291920  78.4068460  67.1964836  65.1212168
  24.3926549  60.5862522   6.7016840  24.5011568  59.6380901   6.6278356
  25.2858377  60.9259415   6.7570871  36.3358239   0.9470504  55.7491541
  36.6442946   1.0907119  56.6438246  36.7303112   0.1141112  55.4906416
   4.5694247  46.3646624  68.3710699   4.8609224  47.2756217  68.3335267
   4.4126120  46.1255190  67.4575851  22.6755309  71.8103170  41.9677258
  22.1499252  72.2470617  41.2974834  22.7216911  70.8986950  41.6795540
  53.2509565  72.8361034  68.3294058  53.4818649  72.0772266  67.7936649
  52.2938681  72.8501892  68.3248758   9.7330260  77.2920561  25.4429722
   8.9536512  77.7165794  25.8015656  10.4592431  77.8499269  25.7215858
   4.9868685  54.9303627   0.2780392   5.4331404  54.5428753   1.0309847
   4.9967492  55.8715582   0.4520634  78.9831282  62.2266293  10.1670551
  79.4164826  62.7655125  10.8289003  79.5728178  62.2524691   9.4135100
  66.2865353  67.9421425  36.1670613  65.5926037  67.8654146  35.5122304
  66.8634415  67.1984386  35.9929562  69.7988201  64.8545599  62.4875450
  70.3774322  65.0422192  63.2266140  68.9572157  65.2344513  62.7397728
  75.7090385  56.0813284  10.4104376  76.3831831  56.6757822  10.0812113
  76.0534425  55.2062464  10.2319765  24.0789271   1.8393653  22.1012521
  24.7523031   2.5000994  22.2631860  24.3125588   1.4621489  21.2531018
  14.5149887  73.8559055  68.0697107  13.6253726  74.1889334  68.1876469
  14.8146451  73.6540556  68.9561033  63.0854322  68.0325270  42.3976278
  63.1213475  67.5474882  43.2220554  63.3619834  67.3994780  41.7350578
  68.8129622  13.7052794   9.5385590  68.9701695  14.6345587   9.3713417
  69.5455331  13.4341975  10.0918093   2.6245993  61.2628555   7.0892143
   1.9597372  60.8300829   6.5535873   2.3648730  62.1841240   7.0952648
  37.4761915  68.7230587  24.4922280  38.2264471  69.3148279  24.4360399
  37.8599930  67.8465652  24.4659853  33.5026979  77.9974747  51.8617105
  33.9290500  77.2062874  52.1910763  32.5689411  77.7870417  51.8688679
  56.4024434  26.0546820  28.2070470  55.8640561  26.7604487  28.5651803
  55.7711134  25.4034560  27.9011726  78.3111969  38.6623690  66.7020628
  78.0190269  39.5738575  66.7096290  77.6584808  38.1972764  67.2254017
  14.7358596  65.6728315  49.7963190  13.8039410  65.7843304  49.9842739
  15.0302470  65.0150967  50.4263592  73.4222917  72.1337435  63.6233285
  73.2750646  71.4510272  64.2778913  73.2608167  72.9530070  64.0912632
  59.6386370   7.2029250  27.5058842  58.9957008   6.5629332  27.8112936
  59.3282995   8.0389254  27.8537607  46.6870022  64.1077089  13.0873239
  46.9823122  65.0157690  13.1540465  45.9834242  64.0366459  13.7324286
  34.0948868  53.4700918  44.8176670  34.6604228  53.8068390  44.1226816
  34.0325904  54.1898441  45.4456043  71.2039289   0.3047602  25.9868908
  71.1165342   1.2510150  26.1017632  70.3876838   0.0384562  25.5637360
  26.3867444  39.0034552   1.4095106  26.5025563  39.5459767   2.1895638
  27.1766228  39.1574450   0.8912363  26.4955831  77.6986647  36.7155576
  25.8307981  77.1406078  36.3119912  26.1009002  78.5706186  36.7280459
  34.2245173  52.4010086  53.0186987  35.1582789  52.2652340  52.8577995
  34.0165973  51.8059635  53.7390614  63.5644230  11.0175269  46.6091299
  62.8830871  11.2375014  45.9738159  63.0969391  10.5770438  47.3188257
  74.0043077   1.2833350  26.5980721  73.0919609   1.4435809  26.3568664
  74.4607601   2.0896285  26.3576889  21.1258658  16.9085257  21.5808201
  21.6216286  16.7483180  22.3838019  21.6210230  16.4544623  20.8990002
  41.3757229  55.6109762  46.2041664  40.9652424  56.4640236  46.3457441
  42.1544647  55.8036137  45.6819773  75.0537128  52.4834748  12.8947678
  75.7803089  53.0999012  12.9858914  74.2697102  53.0320950  12.9189720
  78.8624115  72.2547436  45.8381224  79.0237547  73.1877041  45.9787893
  79.6834553  71.9216251  45.4759741  51.4956093  73.5723352  62.5059223
  51.0362148  72.8036499  62.8440237  50.9402275  74.3115044  62.7537441
  55.9296999   9.1845172  33.7634492  55.9421358   9.8083632  34.4893217
  56.6819129   9.4292014  33.2244325  13.3638895  52.7101994  33.2543349
  13.0891943  52.7121449  34.1712713  13.5300839  51.7886305  33.0560517
   6.8593842  52.0552063  37.4879313   6.4887911  52.8120947  37.0340419
   6.7312258  51.3258505  36.8814301   9.3968362  57.7813530   7.2344846
   9.9001169  57.0614004   7.6147556   9.3547261  57.5769377   6.3003153
   2.4678000   4.6468013  25.4399133   1.6255578   4.7551005  25.8816504
   2.5175150   5.3864520  24.8343730  42.8088662  13.1684249  50.6400919
  42.9894468  13.2305091  51.5780544  42.3419890  12.3387664  50.5404711
  82.4588928  43.6106341  51.5260220  81.9490776  43.5463088  52.3335981
  83.3650121  43.7000792  51.8212843  38.8168046  13.2008403  62.0448875
  39.3515191  12.9736464  62.8056097  37.9176626  13.0277198  62.3238230
  64.9897934  74.2895651  16.7359734  65.5327762  74.4499636  17.5077713
  65.2046324  75.0061655  16.1388505  46.3692093  80.0132370  61.3804770
  45.6855154  79.4630909  60.9982061  45.9451580  80.8599567  61.5200615
  68.0708465  28.3754580  46.9743872  68.3213935  28.7672656  46.1377621
  67.6540408  27.5474494  46.7358255   2.6451495  75.5774117  49.2039251
   1.8572885  75.6031179  49.7469187   3.2333365  76.2173557  49.6048403
   1.5910300  39.3156092  46.4532804   1.0636481  39.1382163  47.2321463
   0.9663971  39.2835753  45.7286835  64.1026458   8.6035006  29.5763516
  63.2575831   8.4544986  29.1522074  64.4105658   7.7280658  29.8109198
  64.7042021   2.8335517  41.9620895  65.0388822   2.0298522  42.3599434
  63.9635954   2.5460761  41.4281464  36.5411282  67.2526598  38.1237888
  35.6371450  66.9380999  38.1137586  36.7735958  67.3428869  37.1996427
  20.0457533   1.4439624  26.5455914  20.7389744   2.0110076  26.8834496
  19.7844513   0.9114688  27.2968602  60.7110271   5.8351271  62.1605015
  60.3583607   5.0596850  61.7239952  61.2154970   6.2834494  61.4817142
  21.9100523  77.5791025  56.7251348  21.2799072  77.9642057  57.3341036
  22.0022297  78.2319355  56.0312033  39.9571872  72.9080582  53.9066601
  40.0688314  73.8586807  53.8974905  39.9073219  72.6817036  54.8353767
  22.5023746  54.7386456  34.3743682  22.6648426  55.6692696  34.5285749
  22.9621434  54.2940235  35.0865173   3.7468880  52.4233580  29.2891669
   3.7767625  53.3404589  29.5616841   2.9290712  52.3460150  28.7978172
  35.8700451  17.1475261  66.4215422  36.2696591  17.6311152  65.6985712
  35.7710633  16.2559550  66.0875750  44.8037100  58.1897926  31.3474035
  45.1250362  57.6916552  30.5958462  44.4664621  57.5255823  31.9485021
  39.1042957  18.3818381  60.0199986  39.9954280  18.1509154  60.2822685
  38.5493514  17.7458804  60.4714680  61.7236385   8.0876963  13.2631552
  61.5122995   7.9186766  14.1813064  61.0144362   7.6711219  12.7735317
  45.2786350  58.1032515  44.6352482  44.8056936  57.2712898  44.6550989
  45.9037209  58.0063391  43.9168406  34.1951251  46.3584232  17.3601651
  34.5523190  46.1494255  18.2232773  34.3777227  47.2909355  17.2447836
  65.8042965  15.1189940  39.0199900  65.0052962  14.8008292  39.4402313
  65.6275687  16.0417788  38.8370728  41.4095783  78.2231808  53.6468315
  42.1254158  78.2511139  53.0119848  41.7130041  78.7666702  54.3740082
   4.9582398  57.1774054  65.7674694   5.3042805  57.3757124  64.8973179
   4.0396807  57.4434614  65.7262850  45.0765848   9.3554378  11.3812673
  44.2953014   8.8194925  11.5176129  44.8904800   9.8517370  10.5842209
   0.2809658  74.1645856  24.7316480  -0.4584965  73.6485899  25.0528550
   0.7079544  74.4902385  25.5240250  53.6647625   6.7029355  52.8401968
  52.8735606   7.2368023  52.9124305  53.5845298   6.2695620  51.9905016
  73.6030377  37.1811080  62.8587532  74.0728820  37.4961352  62.0865917
  72.9267181  37.8406286  63.0132055  29.2269754  28.4937096  50.2364731
  29.7740412  27.8796005  50.7261896  29.2659593  29.3052840  50.7424927
   6.1484641  32.0485950  44.9187183   6.2415016  32.8114653  45.4893351
   5.2071655  31.9833064  44.7577047   9.0125996  19.4831395  29.3070412
   8.3097386  20.0067496  29.6918130   9.2031956  19.9135840  28.4736013
   9.2095006  22.5777674  23.9328170   8.8149065  23.2326102  23.3568764
   8.4888375  22.2831726  24.4896746   3.0283171  14.8408949  41.6302490
   3.3748817  14.3824887  40.8647490   2.1895094  14.4143414  41.8054199
  55.8263279  64.8326969  39.0189981  56.2579919  63.9870310  39.1404366
  56.4592625  65.3563118  38.5276198   8.0620086  16.7812455  19.2228997
   8.6580521  16.8997550  19.9624395   7.7809405  15.8683991  19.2857087
  28.7512112  25.4524565  34.2858386  29.3718410  25.9621334  34.8066831
  28.4037042  24.8020983  34.8961687  41.8066835  14.8566389  16.0902679
  42.6290703  14.8757339  16.5797043  41.4253092  14.0031314  16.2959599
   4.2099512  12.9584956  62.9243755   4.3615791  13.7316513  62.3808002
   3.2570016  12.8801346  62.9688597   8.1658989  16.0632002  23.0921507
   8.8503349  16.4857817  23.6109996   8.6416727  15.5761456  22.4193573
  65.9686984  69.6249580   7.5473106  65.6255079  70.4698658   7.8381413
  65.7108463  69.0119123   8.2357287  24.8749972  50.4536729  51.6845832
  25.0695030  51.3185005  52.0457933  25.3840170  49.8487245  52.2241828
  61.8824486  10.9058640  54.7865889  61.2363688  10.3120492  55.1689443
  62.7273164  10.5498955  55.0617561  79.5077921  34.4682288  42.0316744
  79.1205497  33.9714098  42.7523994  78.9169968  34.3192315  41.2934399
  65.7541022  62.8709271   0.8077946  65.8434662  62.4937084   1.6829815
  64.8803815  63.2618549   0.8035460  18.6758316  18.7823081  39.1800904
  18.6627996  18.0223811  38.5982180  19.5341277  19.1804171  39.0349412
  72.4794139  18.0347288  13.4914625  72.9720009  18.5529959  14.1278505
  72.4603976  18.5779297  12.7035522  82.8376800  49.1103403  65.8361283
  83.3519775  48.3040147  65.8757446  83.1349022  49.5449702  65.0367615
  80.8162398  39.0357995  52.5679445  80.5216537  38.1652570  52.8355408
  81.0555602  38.9349723  51.6466475   5.9957856  13.7732971  65.0299740
   5.7017076  13.5714328  64.1417170   5.2776080  14.2785192  65.4110289
  50.6522322   7.0706517  29.0136266  50.3604269   7.0124799  29.9234056
  50.2550364   7.8775036  28.6858225  56.9374181  29.6193552  66.3988400
  57.3611737  29.8783517  67.2171211  56.2239243  30.2479553  66.2892008
  68.0329649  66.2875719  43.8092089  68.9334992  66.6033036  43.8839340
  67.6831762  66.3487358  44.6981049  71.2939087  67.9230923  35.1163960
  70.4924444  68.4244389  35.2665281  71.9276742  68.2953281  35.7295942
  72.4515561  50.3877289   8.2653600  71.7771880  50.9080488   8.7020826
  71.9666282  49.8263390   7.6604491  47.6261575  62.2700791  58.1226454
  47.4149901  63.1838159  57.9310081  47.5804502  62.2087221  59.0767834
   1.9074313  11.6185486   0.5130089   2.2044146  10.7244241   0.6820476
   1.5817213  11.9266570   1.3587123  18.7429500  46.3799238  36.2881899
  19.2369676  47.1001625  35.8964801  18.2162726  46.0316181  35.5687976
  12.7679956  64.8951197  20.9717488  12.8347778  65.2177763  20.0730467
  13.6265421  64.5128536  21.1534047  15.2140474  34.8900175  40.0307083
  14.5243263  34.7189665  39.3894148  15.4482985  35.8076143  39.8915172
  12.7122617  31.0451579  21.1668682  11.8744802  30.6376791  21.3866782
  12.5171244  31.9807982  21.1145997  84.7375474  52.7630281  59.0237188
  85.2327446  52.8003359  59.8420238  85.0390711  53.5233021  58.5264254
  21.9249535  37.7555895  34.8157549  21.3917208  36.9611716  34.8439646
  22.8023744  37.4640298  35.0634599  67.0586051  32.5090814   6.0350043
  67.9295469  32.8166938   5.7838696  66.6152741  32.3402572   5.2036273
  83.0332315  35.2512550  22.2650552  83.6491362  35.9599209  22.0788193
  82.8243331  34.8836207  21.4063120  19.2098439  53.9895487  17.2350585
  19.9355984  53.8688040  17.8473759  18.6386347  53.2371092  17.3892987
  30.1501000   0.2726691  68.3570337  30.2945122  -0.5092199  67.8240919
  29.5335633   0.7989734  67.8480005  53.4421707  17.8406715   4.9956810
  53.2295896  18.3799243   4.2339417  53.2660652  16.9439232   4.7109687
  40.1015472  27.2234821  20.6973195  40.1898527  26.9299674  21.6041160
  39.2411780  26.9043708  20.4249859  21.6666436  27.4424839  42.2941446
  21.6954851  27.2410631  41.3588238  22.2804976  28.1690097  42.4017334
  81.9689549  39.0594435  61.1869574  81.9368980  39.9376059  61.5664721
  81.8481852  39.1998267  60.2478409  21.8548417   1.8167491  55.3467464
  22.0405984   0.8778888  55.3631163  22.6819181   2.2199778  55.0829554
  60.2660562  52.5477028  37.5884223  61.0803367  52.9916096  37.8253293
  60.4370452  51.6227961  37.7660275  71.6997529  30.6679487  36.2094498
  72.5525643  30.7551169  35.7836032  71.0659934  30.8549452  35.5169082
  75.0084664   3.8030273  26.2738848  75.1560045   3.9957494  27.1998024
  74.2312325   4.3122929  26.0441279  18.3814263  46.9493675  28.3736658
  19.2089999  47.0160818  28.8500094  17.7396941  47.3658466  28.9489579
  82.3293303  53.3582687  16.9972146  82.5620399  53.9224386  17.7346385
  83.1483104  52.9226303  16.7611599  30.8502642  29.7143500  44.2375088
  31.3954082  30.3621619  44.6840334  30.8066139  28.9772933  44.8466730
  19.8873317  13.8795865  69.2580557  19.1428459  14.0767300  68.6896324
  20.5341673  14.5531046  69.0477943  10.1295009  79.3278690  20.3403044
   9.4731369  78.6978542  20.0428176   9.7004118  80.1792143  20.2547240
  14.9713814  39.3081284  49.1836786  14.9009371  39.1603136  48.2405901
  15.4712272  40.1206779  49.2620850  72.3546888  64.5929480  43.7662888
  72.0685960  64.5354795  44.6779251  73.0744077  63.9652634  43.7011003
  74.0366806  42.3192501  31.2761569  73.7575675  42.7880669  30.4896879
  74.7366418  42.8602171  31.6417265  20.2312899  56.2550116  37.3052883
  19.3395174  56.6026354  37.3166823  20.2863121  55.7108974  38.0908728
  85.2386042  38.5185289  68.4761763  84.6697096  39.2876935  68.4449387
  85.8042028  38.6076427  67.7091122  11.0414135  23.5686135  20.0969577
  11.4429581  24.1279316  19.4320071  11.7084384  22.9099417  20.2904963
  21.4573407  29.8278236  44.5165777  21.0238385  30.2160287  45.2765799
  22.0441914  30.5141473  44.1990852  79.2247326  75.8989859  43.5926533
  78.7794466  75.2516413  43.0459404  78.7888135  76.7261362  43.3876371
  25.8384323  36.4089108  46.3110018  25.4218984  35.6612778  46.7396879
  26.0172701  36.1055613  45.4209280   5.1738119  49.3700027  26.0410190
   5.7767379  49.4420433  25.3010726   5.2624851  48.4633398  26.3348341
  77.6447661  25.2228260  19.3727160  76.8923778  25.1152968  18.7908399
  78.1119968  25.9812570  19.0224147  84.9994835  54.9273586  17.8742516
  84.4893737  55.5900145  17.4085200  85.5897335  55.4302073  18.4354830
  13.5111988  24.3325090   2.7861384  14.2630124  24.2095280   2.2065821
  13.6265039  25.2125525   3.1445515  39.5958781  35.1712632  10.2313602
  39.7221208  36.0946608  10.0131166  39.4788957  34.7390246   9.3853587
  77.2647161  19.9615204  21.7164159  77.4386330  19.4284284  20.9406590
  78.0008591  20.5719614  21.7574954  35.2758956  18.0224228  27.9826617
  34.6607041  17.6578498  28.6189461  35.5327749  18.8663256  28.3542442
  20.9701920  51.4531088  15.9015918  20.9373069  50.4968834  15.9296310
  21.0129690  51.7183352  16.8203175   3.5589227  42.8505850  23.6782956
   3.7053075  42.0756435  24.2207670   3.1353489  42.5137329  22.8887701
  58.7380887  40.7542658  36.3421726  59.0881182  40.6917715  35.4534626
  57.8378583  41.0574389  36.2242579  73.0136300  22.4880886  30.9893560
  73.7422777  22.1248055  30.4860353  72.2645153  21.9397521  30.7561421
  82.6547081  16.8768489  24.9033523  83.5861501  16.6781533  24.9991035
  82.2898958  16.7419934  25.7779717   3.5169101  42.4399185  47.9282713
   3.6795118  41.5119600  47.7589083   2.5649738  42.5286770  47.8816748
  15.9084174   2.5423568  48.8885689  16.1225352   2.2706549  49.7810745
  15.9414634   1.7336409  48.3775759  70.3002168  48.7433863  34.5837665
  69.8287345  48.8008881  35.4148078  70.1089288  47.8630447  34.2602849
  81.4289645  26.8086028   9.8026431  80.6724722  27.1517467   9.3270350
  82.0458705  27.5399351   9.8310906  82.3446758  23.5741830  30.3099966
  81.9777400  22.7021742  30.4555774  82.0194967  24.0963626  31.0433578
  49.3980456  53.8428354  29.9768996  49.9086667  53.3695269  30.6337667
  49.0495230  54.6013355  30.4453492  13.3655560  38.5521555  29.2819858
  13.5574067  37.6506734  29.5403528  12.5399113  38.4929967  28.8013148
  72.1269501  48.7042093  39.5301557  71.1840345  48.6653471  39.3700576
  72.4847377  49.1305971  38.7514329  73.5772277  53.3897161  10.2495670
  73.9271940  53.4985209   9.3653071  74.3482472  53.2328224  10.7946789
  64.4117902   3.2419703  67.3087877  64.2764083   4.1549275  67.5625700
  64.8440234   2.8447745  68.0648592  82.6257212  31.1418891  35.6259584
  82.8437562  32.0718074  35.6887674  82.7116458  30.9381056  34.6946573
   6.5700495   8.3802402  26.6212440   6.1833209   7.5046921  26.6306520
   7.2714448   8.3392692  27.2713184  55.7200886  39.0918064  23.5991907
  55.5110408  39.9583960  23.9478374  56.0182000  39.2588830  22.7050734
  53.4862281   8.6167262  64.3353227  53.8176573   8.4877942  63.4466365
  53.8197092   9.4761679  64.5929811  65.2588321  19.2157280  23.3320165
  64.3536473  19.3653035  23.0590701  65.4789866  19.9819767  23.8617611
  10.6241274  39.7440362  45.9326315   9.9378812  40.0958729  46.4996481
  10.2848649  38.8970399  45.6432676  77.3023648   7.8640646  14.5278883
  77.8664042   8.6191064  14.3605447  77.2419770   7.4182773  13.6829865
  69.5200376  33.3949349  60.6631175  70.3021661  33.9467213  60.6571904
  68.7920777  34.0120814  60.7368604  15.6150937  68.9944744  37.1690249
  15.8499992  69.6039581  37.8687263  14.9945807  69.4807386  36.6261220
  24.5211322  78.7593965  67.5385070  23.7608374  78.5621242  66.9914535
  24.1643379  79.2577224  68.2737624   8.9104891  29.6531916  38.4672236
   8.7739182  28.7099338  38.5558033   9.1742122  29.9401617  39.3414831
  30.6298542  57.8181696  12.6526284  29.9136186  57.6316261  12.0456374
  30.2531838  58.4274673  13.2875383  24.6448207  59.4525480   1.1802256
  24.8898792  59.5997763   2.0937364  24.3903327  58.5304260   1.1461435
  23.5282755  49.4712877  41.2746382  24.2156529  49.7885466  41.8603802
  23.1149459  48.7548113  41.7563581  69.4232417  67.1435452  32.9031777
  70.3556253  67.3024654  33.0502701  69.1678513  67.7995825  32.2546244
  15.7441318  42.0035172  42.2006845  14.9526608  41.5025187  42.3976803
  16.4287257  41.5847588  42.7224159  54.5018459  18.7274861  20.8597898
  54.6251084  19.6557438  21.0582280  54.8431350  18.6251068  19.9713790
  80.5084751  15.3055191  30.1196718  80.7635040  14.5368886  30.6299663
  80.5281187  15.0067222  29.2105150  34.0673972  31.2162590  24.3340707
  34.1163446  31.9737387  24.9172187  34.7387649  31.3800931  23.6717606
  25.6901526  34.4045019  40.7777166  25.8227062  33.9876461  39.9263120
  25.9800911  33.7496138  41.4127684   9.6381128  28.7360835   7.7141571
  10.0456142  29.6002817   7.7719235   9.2640829  28.5890937   8.5829079
  75.0990213  44.6932364  43.1415892  75.3722788  43.8632441  43.5323238
  75.7821013  44.8930073  42.5014877  19.1937017  55.4116058  50.0154257
  19.4189870  55.1707125  50.9140062  18.2545602  55.5943251  50.0447273
  21.6799355  18.2946384  34.3362546  21.5606976  17.5198138  34.8854899
  22.4958301  18.1299162  33.8635874  68.4678961  33.1345367  32.6463246
  67.7109219  33.2616401  32.0744252  68.7797786  32.2537279  32.4386334
   6.5602571  31.8648887  54.2229652   7.0899779  31.3177896  53.6430454
   5.6673360  31.7711592  53.8910961   0.9661059  48.1897259  26.2630987
   0.1326040  47.8873444  26.6237521   0.8157414  48.2362652  25.3189278
  69.1572786  52.9864645  31.8075490  69.5561207  52.1453953  32.0306206
  69.0818800  53.4452105  32.6442695  83.0147257  49.2079496  25.5103159
  82.9182805  50.0919437  25.1560760  82.8884105  48.6325073  24.7558999
  73.3049406  46.6909742  43.2983255  73.7071408  45.8340406  43.4402227
  74.0035833  47.2234488  42.9180622  73.9104954  23.0554793  65.3759444
  73.2932345  23.4629462  64.7683344  74.6157877  23.6962578  65.4664776
  74.6924723  46.2184000  15.9038639  73.7368418  46.1781120  15.8667135
  74.9684859  45.3040123  15.9666371  28.8654780  13.9145648  48.9356518
  29.2897677  13.2576072  48.3837318  28.6743379  13.4537792  49.7525835
  66.7266549  79.6885252  17.7664852  66.6186310  80.6285572  17.9110384
  65.8957029  79.3058443  18.0481029   6.3635504  21.6437769  67.2356224
   6.1700052  20.8756948  66.6982031   6.0736555  21.4001966  68.1147480
   8.7777507  18.6495173  35.8324218   9.6194917  18.5344303  35.3914452
   8.9933199  19.1093409  36.6437912  73.9999796  25.3660583  13.4247100
  74.7187067  25.5495977  12.8197515  73.5393954  24.6247530  13.0315709
  53.3589722  50.5143309   6.2577087  52.7668143  50.3984785   5.5146348
  53.7901927  49.6653175   6.3549685  10.8174813  36.7373800  17.3939836
  10.0928521  36.1211133  17.5005591  10.4444289  37.5880313  17.6251960
   6.6559398  74.1020060  36.5109205   6.0732752  74.1526985  35.7531857
   7.5308847  74.2457390  36.1503053  36.8400766  44.7936392   4.1176206
  37.2256423  44.9360275   3.2531583  36.3349677  43.9859104   4.0244964
   9.2107588  48.1141901  33.6759424   8.7303209  48.3867073  34.4577003
   8.8421035  47.2591114  33.4541941  75.6644149  49.3500042  18.6963665
  76.3534183  49.9978876  18.5488808  75.2435745  49.2493296  17.8425574
  72.9114914  38.4964299  23.1934023  72.8160810  38.7594819  24.1087890
  72.7050686  37.5617599  23.1900263  52.4269606  10.4558766  12.7573991
  53.3081628  10.8023846  12.6172316  51.9555212  10.6672025  11.9515967
  13.0718732  53.0237055  35.9840369  13.4170139  52.6809740  36.8084431
  12.4912822  53.7381983  36.2460494  62.4528621  25.1864789  61.5934405
  63.0752371  25.8805487  61.8105820  62.8228662  24.3993399  61.9931159
  30.3089261  54.1261244   0.0667434  30.8354616  54.1686964  -0.7314920
  30.8480382  54.5533848   0.7323530  63.9592506  59.2965746  40.3985691
  64.3222285  60.1497602  40.1607656  63.5685183  58.9683723  39.5887303
  75.3916446  79.7667561  27.9084659  75.5786208  78.9121407  28.2969308
  74.4943217  79.9615823  28.1788087  18.4229612  18.2310998  31.6317916
  18.8868392  17.4407673  31.9082403  19.0862930  18.9205885  31.6605854
  80.1074178  32.3787642  31.9361305  80.1700909  31.5209365  32.3561692
  79.4176276  32.8326821  32.4202585   6.7868614  35.5286074  33.3895040
   6.8000585  36.4477825  33.6562896   7.6412982  35.1894879  33.6562800
  24.5284677  56.2945166  21.8771877  23.6359564  56.1026230  22.1649876
  24.4169992  56.8015637  21.0730019  65.3984905  58.2820225  48.9742422
  66.2325312  58.1284618  48.5303688  64.9833442  57.4202299  49.0088320
   7.6109660  49.7960138  35.1428771   6.7204392  49.4459963  35.1690435
   7.5907797  50.4501534  34.4443631  70.9135808  22.1172023  34.6582961
  70.8983017  21.7582512  35.5455112  70.0031353  22.3523641  34.4793558
  15.5369568  32.4230981  44.8170853  15.4263008  31.4867163  44.6522284
  15.6922317  32.8019118  43.9518547  66.6271151  65.1446295  49.1540623
  65.8966674  65.7630920  49.1674709  66.3335265  64.4396973  48.5769081
  38.3063173  21.3373423  18.3414638  38.8463211  21.1762142  19.1151977
  38.4206867  20.5547094  17.8023577  13.5440326  21.3746262  13.9440882
  12.6326060  21.4792442  13.6709797  13.5006762  21.2925029  14.8967731
  35.0808350  66.6118176  54.9690151  35.5966918  67.3872156  54.7479248
  35.7211534  65.9014232  55.0085306  70.2567855   6.2817214  61.1778352
  70.3775505   5.3590844  60.9533671  70.1658157   6.2864802  62.1306911
  29.4445971  74.5741062  61.7124114  30.4014642  74.5979337  61.7207590
  29.2203738  73.7843613  62.2046063  29.6976534  21.1707613  56.2162659
  30.3113429  21.8881676  56.3742027  29.7823850  20.9845707  55.2811799
  28.2779297  57.8505449  68.6080464  28.0577299  57.1158747  69.1807618
  28.6938890  57.4449174  67.8473387  77.6320405  25.2459097   7.5610983
  77.5440897  25.7752919   8.3537209  78.2425309  24.5499682   7.8044075
  75.5552341  73.1949663  20.3967834  75.2700950  72.4366331  19.8870158
  76.1706073  73.6515331  19.8231184  80.7735078  50.5149174  38.5614777
  80.1581771  50.2694511  39.2523789  81.3325713  49.7453976  38.4541631
  17.7235711  50.2548885  50.5582809  17.6912975  50.0907183  49.6158171
  17.8062284  51.2055731  50.6331062  49.7164345  22.8108072  44.5893717
  49.6978521  23.6835933  44.1967821  49.6408081  22.2122502  43.8462400
  41.8332386  17.1165478  32.3363805  42.2420406  16.3153553  32.6638079
  40.9912825  16.8288577  31.9834304  15.4724693   1.9870321  58.8624001
  15.8908796   1.9288233  59.7213364  14.7242665   2.5681278  58.9993334
  62.4787451  48.9720011  12.5978649  62.2639776  49.4343472  13.4080148
  62.5593544  49.6639204  11.9413745  77.2878564  53.8874388  14.7931373
  77.4572159  54.1645288  13.8927102  78.1557686  53.7137413  15.1575422
  80.2911509  69.3250608  53.1863117  80.2076859  70.1868296  52.7781153
  81.1448071  69.3465614  53.6187935  16.2375998  11.4400029   7.9475957
  15.5447948  10.8225691   8.1821728  15.7717097  12.2302628   7.6743430
  83.1545548   6.4673311  38.9856553  83.5916109   6.8631560  38.2316422
  82.2245134   6.4851236  38.7599611  81.2691052  57.3383760  55.9542894
  81.3809986  57.9529953  56.6795158  81.0537050  56.5066528  56.3762712
  19.5821357  40.6221294  37.5966477  19.4480360  39.7571063  37.9839325
  20.2072048  40.4726696  36.8872952  76.8097330  22.2952199  12.8040516
  77.5165601  22.4673247  12.1819520  76.2428934  21.6680741  12.3550391
  41.2205648  37.2338772  33.5957742  41.2561464  36.3984871  33.1298470
  40.6493092  37.7833080  33.0590963  66.3398100  33.8989615  31.2035394
  65.6815494  33.2807374  30.8861685  66.0498215  34.7487831  30.8719635
  80.5537121  67.5324059   3.0651107  79.6721853  67.3695803   3.4007159
  80.6537644  66.9114780   2.3435372  34.4728827  28.5817790  42.9138899
  35.0957203  28.3590150  43.6057568  34.5003295  29.5373607  42.8654861
  22.9878807  59.6986580  28.4371305  23.5148478  60.4951048  28.5020208
  22.5077534  59.7954845  27.6147342  21.0743022  47.0351791  61.8967104
  21.7570114  46.5966082  62.4044466  21.5165281  47.7845716  61.4978600
  60.3103418  12.6390572   5.3235092  59.8201868  12.8709860   6.1123028
  60.8308858  11.8778725   5.5801430  49.0025663  75.3607702  51.9885492
  49.4063520  75.4915762  51.1306000  49.3033075  74.4952250  52.2653484
   3.2665980  33.5368824  18.6523461   4.1195190  33.1254673  18.7919688
   3.3233842  33.9138937  17.7743554   1.7789970  54.3978167  16.4720118
   1.8580477  53.6840343  17.1048605   0.9210068  54.7826195  16.6509306
  79.4849892  34.5031261  13.0540431  79.8474003  34.0228462  12.3095834
  79.2582805  33.8242412  13.6896122   5.7829815  17.2974110  31.5549088
   6.6096342  16.8303716  31.4334536   5.8267558  17.6329184  32.4503136
  20.2803159  50.5680275   9.6217877  20.5027008  51.3257313  10.1627660
  20.8826637  50.6185675   8.8795924  69.9032831  22.0190763  10.1492214
  69.7014380  21.5353513  10.9501576  69.9732304  21.3448358   9.4733989
  72.6714138   5.8434222  58.8771233  72.9897181   6.3431952  59.6288810
  73.4381942   5.7454894  58.3125970  29.2251539  21.3962793  27.7780724
  29.5308280  21.6207623  28.6569357  29.5981598  22.0740223  27.2143650
  83.2184489  14.9155676   9.6196449  83.8593880  14.2479920   9.3751591
  83.5124568  15.7066631   9.1680276  85.4347708  45.3974533  45.5582047
  85.0475558  44.5316029  45.6870365  85.6574228  45.4241991  44.6276426
   4.6532738  40.5885267  35.3346276   5.2356023  40.5458355  36.0931134
   4.9162844  41.3860893  34.8753309  69.2759938  18.4193201  18.9321079
  69.7660333  17.8374024  18.3511963  68.7063271  17.8346081  19.4319382
  26.3696384   4.3304050  12.4991465  26.0115027   4.2836550  11.6127014
  25.6075859   4.4843876  13.0575347  20.6095171  53.7666893  42.2003460
  20.5770397  54.3014765  42.9935503  20.1702261  52.9515696  42.4428892
  13.9532215  71.5512089  53.3334169  13.1888801  72.1226029  53.4077499
  14.6995718  72.1264963  53.5014543  85.0486378  49.0771008   5.2225947
  84.3042119  48.8137197   5.7636034  85.8135396  48.9264488   5.7779866
  21.6693846  71.6514922  12.1415579  22.1133176  72.4935211  12.2422743
  22.3779837  71.0211081  12.0121932  34.8604178  54.0760183  56.3529062
  34.0633631  54.5553875  56.5790462  35.4495025  54.2286968  57.0917559
  70.1428581  74.2989922  38.6016583  69.3380238  74.6886301  38.2601094
  69.9019827  73.3965635  38.8110113  67.8196589  53.3479054  19.0196371
  67.8629903  53.4257586  19.9726820  68.5032574  52.7150137  18.7997007
  82.4253164  58.0060196  25.9047747  83.3154051  57.8598595  26.2251067
  82.5430859  58.3585644  25.0226903  48.8403616  66.6671970   2.2269049
  49.2166886  65.9882977   1.6668120  49.2009792  66.4883234   3.0953446
  67.3255099  41.3055038  50.2682734  68.0164815  41.8524742  50.6419182
  67.7915312  40.5729246  49.8652983  48.7786436  23.1655526  28.9910388
  48.0962992  23.7789297  28.7182713  49.5942259  23.5639262  28.6871362
  20.7126164  19.0232646  52.7492857  20.3233123  19.6765316  52.1679831
  20.9160995  19.5062959  53.5502291  14.3240428  19.9579000  18.6576819
  13.7174141  19.7732234  17.9406548  15.1850140  19.9903297  18.2406592
  26.1339831  72.0196438  17.2522879  25.5484438  72.4021053  16.5987611
  26.4660287  72.7702188  17.7448475  32.6397991  41.6131830  48.4838247
  32.8516865  40.7650185  48.0940104  33.4752393  42.0795679  48.5112953
  36.4354128  68.1757669  68.5382803  36.9830585  67.6520924  67.9534036
  35.9124160  67.5324015  69.0165984  37.4733377   8.2444376  31.5763068
  36.9400454   7.4499321  31.5519786  38.0817199   8.1470639  30.8437634
  20.2049804  61.7102194  59.4914913  19.9281549  61.5770912  60.3980637
  19.7493899  61.0273409  58.9992094  41.0202694  38.3247757   5.7773101
  40.3770542  37.6538730   5.5484140  41.2087059  38.1700325   6.7029321
  83.2490365   9.6827672  44.4878039  82.9677335   8.8732169  44.9140987
  83.6002318   9.3994114  43.6436448  16.0334909  60.0504780  43.5144091
  15.2086031  60.5331039  43.4608650  16.6779852  60.7064676  43.7800026
  76.5253271  45.1153469  40.6450605  76.0629071  45.5842447  39.9504137
  77.0228691  44.4381189  40.1867485  42.7808375  76.7674117  66.9118110
  43.0096931  77.6066594  67.3112087  43.1477124  76.1118798  67.5050331
  78.4582848  39.9081731  23.3891535  78.4908051  40.5098867  22.6454353
  78.5788293  39.0413737  23.0013919  84.1048856  59.4333458  47.4785423
  84.3354430  59.8599052  48.3038378  84.4899079  59.9928188  46.8040180
  27.1912289  59.6141529  11.3602483  27.5306368  58.7230921  11.4441681
  26.5995407  59.5753002  10.6088328  78.3249385  78.5618830   2.1979152
  79.1880883  78.5382557   2.6110089  78.4822632  78.9479876   1.3362855
  19.0628695  61.4163113  23.7547016  18.9899647  61.3112974  24.7033262
  19.0054405  60.5251932  23.4099650   6.8915540  39.3495393  16.3067532
   6.8347889  39.6792746  17.2035730   6.0130864  39.4770789  15.9486187
  66.0439242  31.3374591  67.5604010  65.4547216  30.5835962  67.5879717
  66.2282051  31.4635086  66.6296053   2.8330454  80.0401115  28.2216835
   2.4628480  80.6948376  28.8137269   2.2390719  80.0328255  27.4711013
  72.7065639  17.2883627  65.0196451  72.0608536  16.8596289  65.5813209
  72.3871414  18.1861851  64.9295724  57.8072454  74.7236300  45.9179831
  58.6031152  74.1941404  45.9675837  58.0812193  75.5269670  45.4754686
  28.6088133  51.0074520   8.8584799  28.9418507  50.4930878   9.5938367
  29.2450142  50.8635521   8.1579280  75.3046168  46.5663052  10.4407191
  75.5200685  47.3343754   9.9116808  74.6822239  46.8907118  11.0915804
  29.2508912  59.4812489  24.5828676  29.4847560  60.3051710  24.1554451
  28.2952666  59.4506168  24.5373249  23.8613009  46.0120249  24.0965486
  23.0369496  45.6084299  24.3681860  23.6730647  46.3848734  23.2352781
  19.0429461  48.4375525  23.6858821  18.3355379  48.2231712  24.2940307
  18.6049366  48.5652256  22.8444076   6.9302863  24.2581797  40.1936722
   7.1851319  24.2167163  39.2719507   7.7506876  24.1474938  40.6742144
   8.0283171  38.7119007  25.2932501   8.3300775  38.0995274  24.6223021
   7.4547774  38.1894135  25.8538675  30.8365703  38.0249977  46.5094423
  30.7352209  37.2973537  45.8958530  30.0740027  37.9613757  47.0844889
   3.4907668  28.3054276  10.6126538   4.3432086  28.5269184  10.9875050
   3.0149453  29.1357394  10.5924835  45.0838393  19.4569798   4.1998711
  45.7233018  19.3602295   4.9055376  44.8930854  20.3946848   4.1764107
  71.9742395  23.8332438   3.0793941  72.8161789  24.2215037   2.8414345
  71.9031883  23.0566502   2.5243407   3.1243506  19.4264338  62.3186610
   3.4137478  20.1897500  61.8188313   2.5255528  19.7828267  62.9749063
  18.1892574  37.0267749  54.7043467  17.3849010  37.3660493  54.3117476
  18.4199572  37.6717138  55.3729773  83.2612816   1.6118310  67.5341079
  82.4580328   1.3468668  67.0859856  83.9652721   1.2320397  67.0083824
  76.1712809  70.6031752  35.8164215  76.3397272  71.3034344  36.4468932
  75.2534140  70.7181025  35.5703664  81.9401325  55.3873730  38.2932448
  82.6969246  55.7868671  38.7220836  81.2201033  55.9946394  38.4635973
   9.4150907  24.3075204  41.7706919  10.0718915  23.9053059  42.3390818
   9.3172073  25.1971889  42.1100092  11.7197788  22.1036935  63.1755972
  12.3026013  22.4195933  62.4851227  10.8635211  22.0347643  62.7533388
  85.2382681  36.0215139  47.0433807  85.6043174  35.2100134  46.6916656
  84.7604912  36.4068556  46.3088942   1.2727730  63.4149504  31.0211277
   0.9386151  63.0537558  30.2000856   0.9539670  64.3174171  31.0330939
  29.1193008  60.5959082  35.2158451  29.1531110  60.7413340  34.2703629
  28.1866384  60.5047560  35.4109526  56.3593206   0.9895842  26.5271187
  55.9657154   1.8249266  26.2751341  56.6222391   0.5890506  25.6984568
  75.8775059  13.3019040  66.8910632  76.1837606  13.0685256  66.0147220
  75.5574445  14.1995785  66.8017617  79.7473080   3.2386670  33.7771654
  78.8468451   2.9415724  33.6462688  79.7233833   4.1732931  33.5719013
  30.8831147  64.0746119   2.2319212  30.5601156  64.5783141   1.4848032
  30.5443050  63.1907966   2.0893994  23.3394051  62.6594400  19.7045040
  24.1442037  63.1720877  19.7801518  23.2255840  62.2634220  20.5684757
   1.0257148  59.9479914  20.6706762   0.8126760  59.5767832  21.5268612
   1.9541246  60.1729250  20.7314396  84.2014058  48.1455994  13.0480564
  83.9463760  47.3363590  12.6049745  85.1578442  48.1149912  13.0708718
  28.3592868  67.3034906  55.8383131  28.2187772  66.6189194  55.1842117
  28.0688739  66.9112301  56.6617346  10.8510828  28.8188505  14.0662646
  10.9542406  28.6436439  13.1309068  11.4555836  29.5396614  14.2430186
  21.9743609  37.3397660  23.7788653  22.1792436  38.1954408  24.1557980
  22.7293658  36.7940998  23.9989686  26.8038583  23.7233782  61.4010715
  26.3750625  23.0070019  60.9329176  26.0892034  24.3112946  61.6457224
  33.2864920   6.8614695  63.5791472  33.8908283   7.3654387  64.1241476
  33.1560747   7.4040053  62.8014085  17.2887743  40.0365210  23.6941123
  18.1266868  40.2040958  24.1254520  16.9252205  39.2842102  24.1611099
  39.6459505  77.4016335   0.2117052  39.1375146  76.6283205  -0.0326547
  40.5578897  77.1162226   0.1556816  72.7387632  56.5284252  43.4930086
  73.1574799  57.3576164  43.7239838  71.9675137  56.4839602  44.0581894
  74.6815241  40.9292221  27.6139069  75.1350154  41.7707729  27.6625514
  75.0027240  40.5304575  26.8051744  42.5028419  63.2578754  34.4370151
  42.0020103  63.9009953  33.9352202  43.3820438  63.6317825  34.4955969
   7.9659933  44.3226051  57.0271921   7.1676499  43.9122915  56.6947412
   8.1086302  43.9126110  57.8802967   8.1134033  37.9468513  43.6931419
   8.0694342  37.0061493  43.8645506   7.4106002  38.3203149  44.2249537
   1.7074790  66.2653906  17.7594137   0.7892981  66.1284334  17.5261402
   1.7959204  67.2153861  17.8363478  22.2352183  54.8356049  29.7561130
  21.9227565  54.8017828  30.6602440  22.5107366  55.7438175  29.6317348
  32.1989942  30.3791142  50.3087664  32.1589112  29.6962690  49.6391773
  33.0288410  30.2238250  50.7598448  26.6286778  44.2490673  32.5495934
  25.6803060  44.1217279  32.5742245  26.9889045  43.3624935  32.5282073
  11.0336757  62.2471571  43.5329151  10.6371152  63.1169367  43.5824394
  10.5453396  61.8002939  42.8414869  17.4101424  22.7016425  36.9357657
  16.9348288  21.9166422  36.6635847  18.2570946  22.3754239  37.2398806
  79.4713462  46.8614197  32.5761938  79.5684333  46.3790321  33.3972335
  78.7372811  47.4554443  32.7327728   2.0889406  38.3402014  29.6643925
   1.7750542  39.2008567  29.9418426   1.3767956  37.7415299  29.8895001
  47.1024198  78.5744672  64.1864822  47.6096303  79.2423825  64.6478501
  47.2649533  78.7482338  63.2593254   3.5244757  51.7457199   3.3236864
   4.0672183  51.3639021   2.6338488   3.2744053  52.6048708   2.9837465
  13.7991038   6.3950560  65.3838236  12.9111376   6.1024592  65.1785601
  14.2610255   6.3645051  64.5460126  74.7007764  53.1707335  21.6968799
  75.0489379  53.5824394  20.9059882  73.7515808  53.2663727  21.6186953
  28.8296294  57.0657921  33.3935308  28.9518762  56.4217997  34.0910721
  27.9527497  57.4187231  33.5443759  61.3952971  39.4819140  24.8374867
  60.7042837  40.0997543  24.5987296  60.9800673  38.8881612  25.4630041
  77.2891326  63.7867403   0.4105727  76.4799274  64.2703819   0.2447167
  77.4454362  63.2972765  -0.3970329  20.0784111  23.0454516  18.0588424
  20.5426574  23.6963081  17.5324464  20.7439518  22.6993513  18.6534023
  64.4753290  41.6348267  15.2888143  65.2599050  41.5318108  15.8273840
  63.8166214  41.0890675  15.7183290   5.6487036  47.6280689  28.7250900
   5.1597369  48.4444284  28.8285232   5.2931094  47.0488548  29.3991041
   5.6188887  18.9319146   9.6458656   6.1645985  18.7460816  10.4099977
   4.7229600  18.7885320   9.9507999  68.0801750  75.0605631  36.9637156
  68.1293238  74.7844028  36.0485387  67.2679711  74.6714830  37.2880149
  20.9755802  53.9093447  47.2448397  21.7263842  53.3248568  47.3492527
  21.1879492  54.6708059  47.7845621  82.1941457  37.3198700  28.2017922
  81.2683875  37.0766521  28.1947994  82.6263345  36.6040492  28.6676741
  19.5707822  36.6892743  26.3645005  19.1404223  36.4675045  27.1902370
  20.1346803  37.4320459  26.5802383  17.2057784  23.2716370  45.3387976
  16.9235158  24.1156745  44.9864340  18.1457281  23.2399940  45.1606846
  13.0786073  49.1732025  36.5647960  12.6954305  48.3373547  36.2987733
  12.4215412  49.5657682  37.1395898   5.0605637  48.4703636  50.2461576
   4.5706439  49.2891693  50.3221369   4.4285941  47.8451729  49.8912191
  26.0921717  72.4135971  48.0249834  26.0081816  72.1109724  47.1207762
  26.9415307  72.0781803  48.3118963  35.0123537  65.2336459  62.1928540
  35.1805360  66.1281805  61.8966207  34.2967421  65.3204493  62.8226135
  41.3846130  79.8932676  69.4396858  41.4761729  79.2857866  70.1737260
  40.5225009  79.6973781  69.0727786  60.2872230  18.2298625   1.8627654
  59.7979213  18.5630596   2.6149589  61.2046362  18.2853603   2.1301694
  27.5761056  50.0482321  14.6253633  27.7473974  49.2089558  14.1981530
  27.9965210  49.9712324  15.4818416  80.3670843  56.8487310  14.3457186
  80.1482798  57.4976635  13.6769569  81.0516403  57.2655678  14.8690367
  57.8893257   6.7020149   2.0174399  57.6621259   6.0482807   1.3561955
  58.6613994   6.3424797   2.4543228  40.3006146   0.1032965  57.1254921
  40.5842349   0.5503028  57.9229736  40.9562907   0.3428405  56.4705563
  29.6466351  68.4842443  32.4560356  28.8161564  68.3641005  32.9165816
  30.1652098  67.7153015  32.6927519  18.9775121  34.6577716  42.9802322
  19.1169167  33.7301707  42.7895641  19.7941959  34.9435067  43.3896399
   1.6217858  53.2345438  60.9015656   2.2842005  53.3499527  61.5828276
   2.0443249  52.6764011  60.2487469  73.4532074  29.3153975  67.4758807
  73.9074961  29.9819920  67.9911489  72.5531582  29.6347401  67.4113474
  75.2690948  16.0173702  10.3931129  74.8373665  15.9428251   9.5420641
  74.6510316  15.6258667  11.0103297  81.2027711   7.5139494   9.8667994
  81.4307136   8.4416409   9.9273291  80.7298989   7.3300476  10.6784668
  15.2489495  32.3434329   4.9477717  14.5241821  32.9671645   4.9913892
  14.8539519  31.5011358   5.1730382   4.7169268  64.2110586  43.3694267
   5.2786040  64.5135832  44.0830326   3.8328838  64.2300081  43.7359524
  59.2419387  52.8892088  46.3753605  59.5518876  52.8890896  47.2809887
  59.5595075  53.7165737  46.0136318   1.9214764  63.8220427  62.5293997
   2.7171960  63.8220904  63.0614373   1.5495601  62.9490111  62.6548097
  74.7019411  54.1795444  16.0108733  74.0098764  54.1102839  15.3532398
  75.4329539  53.6834431  15.6424522   6.1811942  62.3372364  28.6553764
   5.3265679  62.0551300  28.3293962   6.8074900  61.7653275  28.2116342
  20.1983611  35.2340100  54.3969044  19.4712655  35.8441660  54.2733321
  19.7808353  34.4142983  54.6614311   0.8301678  55.0040054  27.7863741
   0.8241900  54.0503120  27.7047181   1.7547436  55.2439070  27.7244210
  22.1279073  14.8164558  38.5757089  21.6898513  14.0546584  38.9551902
  21.8490100  15.5504692  39.1231322  57.7277900  76.7866755  24.5786619
  57.9001666  76.8772793  25.5158448  57.8676368  75.8571053  24.3981791
  82.4960951  40.8737183   9.0101135  83.2643340  41.1650515   9.5011979
  82.6375676  39.9362803   8.8780874  60.8720018  22.2296929  38.6200857
  61.4103557  22.4034166  37.8479266  61.3522626  22.6338291  39.3427587
  17.8157067  47.4613190  18.9468884  18.7187588  47.4952126  18.6313260
  17.8545797  47.8396749  19.8252797  82.2541047  65.5933142  48.7139702
  81.6810543  65.8988047  48.0107498  83.0218498  66.1625767  48.6616516
  80.7005683  15.5598280  65.8020249  79.8382346  15.6065867  66.2148533
  81.2760583  15.2200243  66.4872787  28.2476735  52.4884701  48.8256645
  28.6972308  53.3226919  48.6907530  28.6935282  52.0946598  49.5755720
  75.8303667  15.2955818  15.9614909  75.4492081  14.7451115  16.6455472
  75.4451681  16.1596787  16.1070609   1.3928922  64.4954205  27.6534772
   2.0028768  64.6861410  26.9408917   1.5359542  63.5695744  27.8498769
  49.5393030   6.6229651  65.7789296  50.0052063   6.2796853  65.0164846
  50.0684819   7.3662350  66.0683343  70.7635507  10.8714145  23.6063886
  70.4774246  11.6009658  24.1560507  71.3150415  11.2773555  22.9375839
  22.1553040  34.6581578  46.0127544  22.8543377  34.9449515  46.6004038
  21.4070535  34.5019817  46.5889168  49.7719965  19.8411410  56.4733219
  49.0973386  19.4774287  57.0467234  49.3182764  20.5149978  55.9670830
  33.6646962  26.9090843  50.5841303  34.0007091  27.7437544  50.9107161
  34.3926024  26.2976265  50.6959534  15.6897151  49.9671555  44.9264479
  15.1754296  50.3023863  44.1920376  16.3639057  49.4237804  44.5184755
  27.8320217  66.6741323  35.8341551  28.7208891  66.3979673  36.0574961
  27.8105044  67.6071310  36.0469437  23.3967352  57.0217466  19.1692972
  22.8509355  56.7915869  18.4173942  23.1334305  57.9146671  19.3920064
  25.1331639  50.6348991  29.2133999  24.6864390  51.2807178  29.7607446
  25.7540846  50.2086973  29.8041964  18.2015955  41.5651798  14.6357834
  17.3793292  41.6611671  14.1552663  18.3357906  42.4160433  15.0532269
  77.5843627  20.8842850  48.2340145  77.5550456  21.7986679  48.5155725
  78.4037382  20.8104920  47.7447176  43.8059473  32.4874735  45.3830481
  42.9728413  32.7192426  44.9726200  44.3586636  33.2584167  45.2550602
   0.2711025  47.1767902  40.4565573   0.8827656  47.6619959  41.0103369
   0.8307089  46.6489124  39.8869777  12.9308319  44.5460272  35.1509476
  13.4983575  45.1290846  34.6467733  13.5268331  44.0791702  35.7366610
  48.4885598  18.1204617  17.5019121  49.2606236  17.6246023  17.7744401
  48.3132101  18.7120044  18.2337332  27.8618848   6.8733733  37.3662996
  28.3205004   6.9790500  38.1998086  28.5232350   7.0690291  36.7025471
  40.5533981  29.1991210  18.9114058  40.5219221  28.4295249  19.4797051
  41.4754248  29.2787910  18.6669505  82.4650843  60.3360748  43.2311916
  82.0477326  60.0241613  42.4282217  82.0963750  59.7857285  43.9221334
  10.8622241  25.1071858  29.6868539  10.8587778  24.5390224  30.4571843
  11.4033270  24.6422029  29.0487099  73.3951307  74.2879295   4.3972120
  73.2116343  73.7330008   5.1552421  73.9949371  73.7697411   3.8606104
  78.6583764  31.9495869  48.0785227  77.9819990  32.6254654  48.1225204
  78.1813897  31.1262631  48.1826925  35.6878281  29.2033672  10.6641400
  36.3574958  29.0095305  11.3200390  36.0733867  28.9167285   9.8362422
  75.5775632  70.4818249  19.2133045  75.4524435  70.0812817  20.0736189
  75.1128222  69.9024630  18.6094940  71.5013170  42.6243877  24.7177577
  71.7686844  43.3756018  24.1882133  71.8110561  42.8306246  25.5996633
  69.3259205  36.4504337  38.3938885  69.6882285  35.9482336  39.1237926
  68.5199786  36.8317223  38.7421823  16.6464972  72.0074797  36.9483161
  16.0680068  72.0839643  36.1895466  16.9084501  72.9076481  37.1414828
  11.8156004  68.5400581  27.2288346  12.2984266  67.8355312  27.6609850
  11.4726019  69.0712166  27.9474807  30.5812263  61.8571329  18.9525867
  30.9159946  62.5919819  19.4665468  29.6519351  61.8112564  19.1774046
   4.2216641  39.9271488  46.9956207   4.5347917  40.2530050  46.1518192
   3.3477423  39.5834327  46.8102837  23.7532926  36.3576031  42.4088335
  24.5158887  35.7901335  42.5213194  23.0089450  35.8114004  42.6615047
   6.0964698  79.6607208  12.7743447   5.9519988  80.3016090  12.0782006
   5.7484621  78.8416576  12.4218416  35.7682109  46.6975307  10.8825731
  36.3787699  46.4105320  10.2035439  35.5620718  45.9008980  11.3715601
  69.8486699  58.6895800   5.4771876  70.5818750  58.4224176   4.9228716
  69.7404529  57.9672003   6.0958046  32.7666856  55.4411507  57.1302080
  33.0200149  55.1417208  58.0033588  31.9623567  54.9599409  56.9359779
   2.0935389  28.9805889  39.7978497   3.0113626  29.1959476  39.6321630
   2.1234871  28.1402135  40.2551317   2.6414275  38.2393456  23.0229092
   3.2443386  37.6774931  23.5097861   2.4718438  37.7617526  22.2108865
  84.0518967  43.2779551  41.7718172  83.8827850  43.2513905  40.8300495
  83.9515531  42.3703384  42.0588732  54.4131851  68.3981752  65.1236391
  54.9019623  68.7226868  65.8799648  54.1295052  67.5207520  65.3803158
  16.3645720  62.7581978  36.5917325  15.5847812  62.6783752  37.1410847
  16.7285597  61.8733835  36.5625143  33.7815690  25.3102684  24.9495602
  33.8115644  25.6273675  24.0469098  34.0077353  26.0745859  25.4795647
  11.9384527  70.8600903  45.8096552  12.7672708  70.9445000  45.3383112
  11.5967476  71.7530632  45.8551168   3.5879967  30.1556087  16.3643682
   2.6331410  30.1578331  16.4312828   3.7710541  29.6588397  15.5669081
  33.2914519  35.3840995  30.8966422  33.8359714  35.4598260  30.1130629
  32.6329374  36.0717583  30.7980680   4.9891606   7.3421977  50.5262038
   5.1580229   8.2576058  50.3031847   4.0368190   7.2865889  50.6048558
  20.8055449  55.1454639  39.6707249  20.7079220  54.6675491  40.4943132
  21.7364359  55.0722504  39.4602132  17.9538906  55.7770634  35.5130601
  17.1624136  55.3141308  35.2383018  18.6581326  55.1402140  35.3918028
   3.0841789  25.7334900  23.0254436   3.2835540  24.8217440  22.8128314
   2.2068748  25.8759618  22.6700974  44.0410280  33.3023667  37.2195005
  44.1462326  32.4431515  36.8109560  43.4229565  33.7632489  36.6522193
  70.7303537  63.3587122  41.6698742  70.6344629  62.6648331  42.3222256
  71.5651251  63.7752151  41.8841553  52.2783718   8.2448237  17.6792765
  52.6843724   7.3994201  17.4877143  52.3383817   8.7311499  16.8570125
  84.9108880  65.4911423  30.5102468  84.8467550  66.4326191  30.3498054
  84.0570886  65.2507973  30.8700967   0.3326363  53.5297441  21.0840178
   0.5834004  54.2592955  20.5173564  -0.4414991  53.1551552  20.6637478
  25.7405186  32.9512954  56.2932730  25.2070546  32.5729513  55.5943394
  25.8550334  33.8667798  56.0383129  36.1028075  68.5242891  22.0172453
  36.2735486  67.6647568  21.6321754  36.6671777  68.5570812  22.7896714
  14.8335314  46.5234375  35.5147147  14.4105160  47.2992706  35.8826399
  15.5131018  46.8720675  34.9377656  42.6779270  33.9608383  19.6563530
  42.4012280  34.8262143  19.9576831  41.9134808  33.6108041  19.1988266
  23.7039185  32.0280027  11.8921256  24.1215634  32.8660941  11.6936123
  23.5454988  32.0568919  12.8356826  26.3469529   5.2574092  28.3667874
  25.6162238   5.8436120  28.5633421  27.1224236   5.7332504  28.6642003
  12.7374208  37.0131683  39.0838552  12.6394856  36.0614395  39.1130733
  12.6364243  37.2360396  38.1584573   4.6261811  50.6165791  41.8243837
   5.4351598  50.2127981  41.5101433   4.6600193  50.5121374  42.7752686
  43.2135350  77.9056697  46.5202412  42.3866541  78.1330280  46.0950289
  43.5697610  77.1951966  45.9867987  30.8633399  59.0169334   4.2112765
  31.3114309  59.2555523   3.3997908  29.9340272  59.1373444   4.0160510
  10.4319119  56.4170074  25.6019163  10.5353308  55.7853651  24.8901820
  11.3204753  56.5564489  25.9293962  72.7242089  53.5705709  18.7538457
  72.2546626  53.4160948  19.5735371  72.6399685  54.5121002  18.6033368
  26.9418287  72.0691729  45.0955248  27.2364211  72.9476023  45.3359509
  26.2405086  72.2170258  44.4610786   2.7784449  69.7864389  15.3502941
   3.2403463  70.4241514  15.8945382   1.9868848  69.5771122  15.8461237
   5.6297815  55.6816053  16.3228834   6.4022321  56.2270784  16.1745203
   5.2735126  55.5278301  15.4478657  21.6602302  80.4600620  16.0186720
  22.4556351  80.9923840  16.0324800  21.7000580  79.9489021  16.8269801
  29.5583272  42.3514271  45.0259256  29.9816942  41.5424299  44.7386789
  29.9184299  42.5136805  45.8978367   5.5602702   2.6924174  36.6325855
   5.6704625   2.9191344  37.5559950   6.2918766   2.1056407  36.4410758
  83.7017560  77.8533411  32.5928450  83.4688040  77.1833992  33.2356048
  84.4027596  78.3531618  33.0111814  62.1007897  63.2752562  23.9193749
  62.1709562  63.2362270  24.8732018  62.7662707  62.6632500  23.6050224
  78.9913936  44.5241594  34.3548727  78.7936492  45.4188538  34.6317363
  78.6315699  43.9732647  35.0500512  62.8905059  75.0074291  47.7081871
  62.0740081  74.9077225  47.2186756  63.4705211  74.3379259  47.3454428
  23.4331179  22.1863151  38.9139342  24.1448808  22.1472025  38.2751107
  23.4531903  21.3331318  39.3474174   1.6415519  70.8589602  32.6472473
   1.8621443  70.6461716  33.5540509   2.1926469  71.6129112  32.4372816
  13.8237059  22.0296812  45.9649134  14.4717968  22.4709058  46.5140295
  12.9807901  22.2676277  46.3510513  20.2156878  37.3856902  30.9471369
  19.2847872  37.2404242  31.1161160  20.5656624  36.5129352  30.7681179
  11.3161933  54.7150660  47.7196693  10.4811096  54.2520618  47.7866936
  11.7828667  54.2664623  47.0145464  31.5171051  60.0364256  36.4684582
  30.8080697  60.6120110  36.1817431  31.5206003  59.3239880  35.8292007
  28.5148954  76.9956350   2.5586051  28.4021711  76.8280697   1.6229519
  28.0087852  76.3059950   2.9881144  47.5086829   5.9178584  15.0202477
  47.3233137   6.0646861  14.0927172  47.7839837   5.0023215  15.0674736
  21.4485550  56.2584591  49.1051626  21.7167616  57.0790529  49.5185900
  20.4922462  56.2978268  49.0928793  63.8137779   8.2446139  26.4292312
  64.3983469   7.7795260  27.0277262  64.0981660   9.1573088  26.4776587
  35.3807855  47.4024248   2.4795404  34.9161649  47.7080488   3.2586130
  36.0332274  48.0814838   2.3079807  77.6979360  14.7946780   9.9240279
  77.7901277  14.8432200   8.9725149  76.8993196  15.2874606  10.1127303
  54.9471522  67.2033501  43.1326532  55.0808765  67.8829813  42.4720049
  54.8897768  66.3899660  42.6313066   4.4613621  65.3469706  17.5170195
   4.3424827  64.8164320  16.7292213   3.6122587  65.7673931  17.6530325
  84.3336979  54.5363638  68.9344919  83.4362499  54.3180010  69.1857632
  84.3207780  55.4838965  68.7993914  63.3283791  12.4838107  36.6131139
  62.3996052  12.5800078  36.8237233  63.5876546  13.3414309  36.2762213
  70.4002086   3.8938735  59.7153339  71.2737838   4.1511891  59.4205651
  69.8440341   4.0083478  58.9447496  67.4581608   6.4592212  13.3448362
  66.6523776   6.9247191  13.1206739  67.8928599   6.3144725  12.5044096
  80.0470079  56.8253899  34.2947268  79.2867006  57.4005222  34.2087579
  80.6433887  57.1117640  33.6029506  66.9457564  21.4069121  46.0862637
  67.8454623  21.1896746  46.3303328  66.4192757  21.1201899  46.8324804
  53.2170043  13.2922213  31.7887759  53.2419881  14.2346709  31.9543004
  52.8674826  12.9163211  32.5967145  68.9163360   4.2174475   7.5706947
  68.8893518   5.1237147   7.8775811  69.7835025   3.9034980   7.8270113
  29.1867256  57.6987696  42.6452160  30.1185083  57.7486897  42.4318600
  29.1525054  57.8070688  43.5956526  38.1946516  71.8214798  35.3543615
  37.6118970  72.5279713  35.0759745  39.0272617  72.0138168  34.9230886
  81.9737283   8.2234356  69.9774416  82.6566283   7.7118418  69.5436701
  82.0180313   9.0840266  69.5607320  43.5624990  29.8372977  38.0352306
  43.8759336  29.4710772  37.2082686  43.6263988  29.1128104  38.6575317
  19.3487740  79.6109295  12.4441814  18.3958256  79.5227814  12.4629164
  19.5576251  79.7578812  11.5216756  55.4145655  20.2847617  69.7367239
  55.1128277  20.9089988  69.0767860  56.3324031  20.1271861  69.5154190
   5.7516867  73.5771227  40.6404257   5.4312718  74.4773340  40.5839729
   5.2605468  73.1931877  41.3667917  15.0059032  79.7216463   6.5589422
  15.2172983  80.1320171   7.3974764  14.1259670  80.0371170   6.3529783
  50.5262551   4.2738288  18.8995385  50.8107648   4.3383639  17.9878795
  50.0911150   5.1083129  19.0742838  15.0706184  59.3532228  33.0061865
  15.1716638  59.7001219  33.8925743  15.8989751  59.5585918  32.5727367
  83.2225227  62.1535254  60.9275436  83.0043221  62.1666241  61.8594456
  82.9002571  61.3070345  60.6179714  46.1143303  76.2329626  51.4619827
  45.8567762  75.7460117  50.6791782  46.9057178  75.7909250  51.7694521
   9.4448009  17.6242373  53.1425247   9.3724337  17.9022095  54.0556094
   9.0683356  16.7442725  53.1294951  59.6917710   4.0787738   3.7732103
  59.2169914   3.9244597   2.9565072  59.0770588   4.5696776   4.3185285
  28.6452651  44.9434948  54.8095846  29.5548749  45.1630116  55.0112057
  28.2276726  44.8437214  55.6650925  36.9217682  46.5866947  60.7702446
  37.8194571  46.9178009  60.7977533  36.8427801  46.0433054  61.5542889
  11.8435049  47.7454519  32.9574895  11.5552390  46.8355894  32.8847480
  11.1209333  48.1909895  33.3997750  53.9815983  13.3448451  51.2666750
  54.5108566  13.7293570  50.5679131  53.8924584  12.4241202  51.0205984
  20.0490713  67.5055170  43.7556934  19.2082572  67.2487831  43.3770752
  20.6305194  67.6057863  43.0019712  19.0910196  53.2313251  33.1410480
  18.2795882  52.7303171  33.2235265  18.8083518  54.0993452  32.8531766
   5.9457779  59.1328955  23.8823819   5.8454037  58.5091782  23.1632638
   6.8278092  58.9720249  24.2176056   8.9645594  66.3500166  30.3678751
   9.5617658  65.6038427  30.3149629   8.1018716  65.9801054  30.1803517
   1.5278545  14.8469088  64.5877973   1.0434189  14.7915528  65.4115025
   1.0608497  14.2578385  63.9952287  49.7738552  62.9934549   3.0146536
  49.9839354  63.7575960   3.5514802  48.9963627  63.2540655   2.5208795
  45.8254051  63.2339668   9.0442878  45.5213308  63.8876772   9.6739167
  45.1163626  62.5922012   9.0040523  23.1383896  43.8737345  27.1377516
  22.3552203  43.9226055  27.6859212  22.9197001  44.3888235  26.3611627
  55.2770926  57.8197861  23.7112403  54.7261192  57.0968723  23.4111524
  55.1265312  57.8596258  24.6556854   0.9894999  14.6745436   6.9762838
   1.1056193  15.4409449   7.5378656   1.3301142  14.9479239   6.1245322
  25.9213305  69.2670631  17.2088695  25.8636737  70.2172565  17.3090756
  25.0306153  68.9549208  17.3683357  51.1865902  74.7072744  65.9887695
  50.4470825  74.1212416  66.1497974  51.8316936  74.1610289  65.5396652
  18.6753750  62.4485683  47.1669483  18.2051980  63.1832552  47.5611591
  18.6817122  61.7754364  47.8474522  41.1216879  75.2310896  47.0503998
  40.7640600  75.5960369  46.2409878  40.4378700  74.6427345  47.3705006
  30.3464842  64.3583822  39.1456103  31.0161328  63.9095545  39.6617103
  30.4175806  63.9717150  38.2728767  14.7876740  54.7801065  31.5778732
  14.6578300  54.1275835  32.2660470  13.9234281  55.1723671  31.4536047
  47.5278613  12.6476138  19.1985500  47.3237440  12.1939509  20.0163245
  47.8957972  13.4867328  19.4755459  53.9791665   5.7020419  25.7130837
  54.0887961   6.3254111  24.9950123  53.3786425   6.1370890  26.3183427
  33.8855910  67.2161293  25.0731111  34.5263243  67.6676464  25.6224966
  33.0444860  67.5995302  25.3216624  14.5404756  44.7865105  14.7452068
  13.7815404  45.0312710  14.2157376  15.0397956  45.5979109  14.8375857
  39.0128374  50.1923037  15.1933730  39.8715925  49.7771120  15.1134634
  38.4127045  49.5870447  14.7577894   5.4598558  60.9829044  19.0964556
   5.4285347  61.8846321  19.4160378   5.6795537  61.0651827  18.1684494
  58.6825895  68.8381386  51.5718889  58.0544233  68.2398415  51.1673212
  58.5858822  69.6544695  51.0814905  29.6074560   3.2333434   3.6320868
  29.9964907   4.0095294   4.0351000  29.5678690   3.4423888   2.6988306
  39.0478954  10.4443209  32.6273489  39.8170123   9.9552291  32.9197264
  38.3659509   9.7802680  32.5262880  44.6191072  73.2596970   6.6426688
  44.5649385  72.7186966   5.8548760  45.2403688  73.9516449   6.4157885
  37.4993777  38.2435107  15.6499124  37.2064805  38.8731575  16.3086915
  37.2204161  37.3934865  15.9903109  36.3269877  60.5657721  48.9205742
  35.6566882  60.0240374  49.3370485  37.0838499  59.9861670  48.8342953
  78.3239771  64.3993473  42.7538919  78.2639022  63.7398911  42.0627069
  78.1923814  63.9086771  43.5651636  59.8701748  15.2366393  56.0927629
  59.8434004  14.3389838  55.7615089  58.9507184  15.4927199  56.1652422
  10.5026948  60.3016043  24.6278429   9.6502268  59.9751806  24.9159026
  10.9517121  59.5288563  24.2850971  27.0810461  61.5315866  25.0023985
  27.7724218  62.1897984  25.0730371  26.3736820  61.8671799  25.5530739
  18.9528790  42.9499934  44.1306791  19.1546336  42.0581934  43.8474664
  19.1750136  43.4966681  43.3769998  79.8789167  44.1192913  10.9074259
  79.1118622  44.6918535  10.9130502  79.5607376  43.2962656  10.5364490
  25.6517792  73.9608669  28.8384151  26.1336184  74.5802450  29.3865299
  25.1025677  74.5116615  28.2805395  53.2987118  47.0160770  38.7574315
  52.6507902  47.4387407  38.1937099  53.3022499  46.1016703  38.4744573
  33.6049819  62.3588848  43.8778210  34.1706347  62.6911545  43.1807804
  33.7616181  62.9489088  44.6150923  27.1036458  78.2098579  18.3196115
  27.4711037  77.3866129  17.9979372  27.1459770  78.8009548  17.5679171
   6.7422786  36.8247578  63.6584029   6.8407503  37.6638434  64.1083703
   7.5266447  36.3311026  63.8977930  24.4721055  56.5301180  10.3204942
  24.5106554  55.6182051  10.6088614  24.1467857  57.0088530  11.0828686
  22.0699453  41.1409807  46.4952898  21.4202094  41.8370247  46.5932560
  22.3915267  41.2379456  45.5989552  16.0121953  74.6235180  56.8265438
  15.5942571  74.2357016  57.5954103  16.9226968  74.3324423  56.8764734
  40.6158781  68.8620758  26.4043021  41.0730839  68.0750751  26.1079407
  40.4551029  68.7093353  27.3354602   7.1215826  58.9280510  28.8912821
   6.2951440  58.6296797  28.5115385   7.7057165  58.1734276  28.8166690
  83.2063160  16.8345111  39.7050071  83.1828460  15.9672683  40.1094532
  82.6520500  16.7519610  38.9289880   6.0385305  28.7767625  43.4350967
   6.9400150  29.0982509  43.4493351   5.5806452  29.3738008  42.8433895
   8.5814279  59.8229361  15.4623950   8.1161314  59.3785620  16.1710978
   8.4229916  59.2767859  14.6924281  47.5681019  72.8726816  41.6674995
  46.9484901  72.7692509  40.9452724  48.0137062  72.0273924  41.7236996
  27.4652600  77.9827595  24.5675850  27.0904016  77.6099682  25.3655434
  26.7421412  77.9824305  23.9404225  78.0661766  19.1408322  57.5728521
  78.9467637  19.3725560  57.8679845  78.0515424  18.1839201  57.5910339
  62.3528585  22.3166888  44.7826338  62.2191105  22.1817344  43.8444805
  61.7681656  21.6849177  45.2012396  83.7143082  20.9649725  11.5166989
  83.8405914  21.5522929  12.2619000  83.9508242  21.4920969  10.7535210
  25.7829547  55.4401731  35.0732040  25.6034946  56.2398720  34.5787263
  25.1984572  55.4900122  35.8295846  30.7651472  75.1884699   3.0227271
  30.0748682  75.8470058   3.1006849  30.8891273  74.8646688   3.9149237
  72.6041565   7.7488845  51.5830946  71.9187603   7.1002047  51.7433167
  72.1747169   8.4273665  51.0620594  28.6441422  41.2658358   8.1199813
  27.9690599  41.7136002   7.6100749  28.2826138  40.3947115   8.2832778
  51.0976729  26.7234366  18.6154926  51.2628970  27.4800628  19.1780233
  50.1710639  26.5237277  18.7487078  43.2326698  74.8797607  42.2103357
  43.7791109  74.0938950  42.2033978  42.3372030  74.5482540  42.2772121
   2.1276918  50.3085756  14.7734153   2.4495943  49.6010494  14.2148304
   2.5494418  50.1567698  15.6191778  10.9400380  77.3978186  30.4653430
  10.3833926  77.7488232  29.7702384  10.7031071  77.9056644  31.2413502
  18.4230018  56.0388660  29.4194794  19.2549789  56.4733744  29.2317319
  17.8100264  56.7556190  29.5830631  44.0826845  65.7170630  62.8326797
  43.4439135  65.3515530  62.2206306  43.6399031  65.6974363  63.6810875
   5.9211230  34.7432995  37.2519898   6.4344704  35.3447151  37.7914381
   6.2389964  33.8735151  37.4942040  75.6979761  19.7965472  44.1017723
  76.4415893  20.3980773  44.0639019  75.3580007  19.7793811  43.2071495
  17.6201150  79.9237063   5.3688374  17.5519857  80.8480813   5.1298323
  16.7511460  79.6973541   5.7003298  13.9299285  46.5970564  51.4789820
  13.2140553  47.1676159  51.7586613  13.5552633  46.0717201  50.7719612
  56.8841839  70.3474188   7.1305537  56.7430878  71.0429716   7.7728415
  56.3007736  69.6417475   7.4096406  58.9162540  73.7453651   8.9893776
  59.3542528  74.0602350   8.1986535  58.4904528  74.5218611   9.3526626
  24.5976019  38.5029697  44.3623066  24.3055773  37.6588750  44.0181255
  24.3989325  38.4618783  45.2977562  40.1265430  63.8158989  17.6631653
  40.2403355  64.5086241  17.0124614  39.2023492  63.5754061  17.5978470
  41.6058263   9.1458648  41.4087772  40.8483419   8.9981215  40.8425426
  41.4233288   9.9807303  41.8399715  52.1992168   7.2676795  35.2302098
  51.9193205   7.8010505  35.9741235  52.2630319   7.8862613  34.5025301
  67.2357688  17.8249305  24.3671274  67.5153813  18.1823581  25.2099156
  66.4617524  18.3377402  24.1344142   8.9532453  45.0400734   8.1352818
   9.0042651  45.8823061   8.5872483   9.8344302  44.6739578   8.2108080
  71.5901718   5.1497023  55.2223015  70.8586082   5.0111811  54.6207523
  71.3398704   5.9215300  55.7300997  15.0321904  27.1585200  64.2708233
  15.3529635  27.8155253  63.6530194  15.0815239  27.5883696  65.1246533
  15.0598526  49.7243452  34.5766854  14.4885194  49.8453760  35.3350782
  14.5051849  49.9289322  33.8238788   1.0411614  38.6111613   3.5408869
   1.0124081  39.2293473   2.8106442   0.9742969  37.7499743   3.1284323
  81.8075720  14.6670315  56.9880650  81.3990251  14.1174338  56.3192854
  82.3168055  14.0566895  57.5213561  28.7135196  71.1017513  26.8506932
  29.0008211  70.2052927  26.6773391  29.4082975  71.4753103  27.3928809
  29.0434377   7.3569243  63.9196157  28.8404777   7.6932757  63.0467463
  29.3478113   8.1227153  64.4065905  59.1328716  61.6877222  28.8040400
  59.2143869  60.8130264  29.1841602  58.6026335  61.5586615  28.0176401
   1.1467083   1.2471907  60.5022144   0.4254349   0.7696097  60.9119940
   1.5106829   1.7825263  61.2073135  63.0121622  16.8213885  52.4332714
  63.7324819  16.5077536  52.9800844  62.2927580  16.9700473  53.0469370
  23.5688138  36.6467309  11.0476995  23.4294891  37.5179815  11.4188361
  22.7306294  36.1995983  11.1649752  36.4461398  52.2284365   2.7484995
  35.5611539  51.8694067   2.8127214  36.3647795  52.9575682   2.1336982
  73.7939596  55.1497793   2.8166673  74.5467806  55.6409836   3.1456187
  74.1075754  54.2479753   2.7486223  34.3388534  61.9028902  37.4298048
  35.1758456  61.6293478  37.8051019  33.9294839  61.0882807  37.1381593
  59.1793713  16.2094252  47.4825859  58.8385043  16.4272349  48.3501101
  58.7893281  16.8621486  46.9011688  54.9176416  10.9562819  20.6048036
  54.4302878  10.7400172  19.8098516  54.2434558  11.1889308  21.2432265
  80.1387371  54.7565746  36.3985324  81.0698296  54.7909689  36.6178846
  79.9888469  55.5384016  35.8670115  68.7705717   2.0242160  40.6030989
  68.2004985   1.7182105  39.8976803  68.5255966   2.9410212  40.7283688
  72.3980917  45.6443596   4.1826400  71.6128434  45.8929157   3.6949527
  72.8514196  46.4717245   4.3444887  31.5219164  55.3452921  12.0101857
  31.2193823  56.2445545  12.1367979  31.1818123  55.0969553  11.1505997
  12.7351561  15.4324887  57.0839259  13.3817521  15.9961197  57.5087378
  12.7887240  15.6632731  56.1565110  23.5482430  78.9390230  37.4636388
  24.2278910  78.7199879  38.1010818  22.9861283  78.1647110  37.4372458
  23.9708176  16.0172818  61.0064647  24.7471180  16.4736722  61.3309577
  24.3176594  15.2577612  60.5384246  17.8659034  48.9646769  43.5162020
  17.8429711  48.8211346  42.5701046  18.3409369  48.2088900  43.8616848
  21.9414020  55.3144121  11.4874613  21.8629026  55.9068537  10.7397425
  21.5319300  55.7874680  12.2118807  47.3303175  64.4093180  30.0974107
  47.8533745  64.8438501  30.7710743  46.5141869  64.1772318  30.5404663
  85.3241874  69.5461988  20.5249929  85.3393837  69.1635323  21.4022422
  84.7909790  70.3357553  20.6173015   2.7884253   7.2017806  24.3731475
   2.5694760   7.7921050  23.6521721   2.8186806   7.7672046  25.1449084
  78.9573822   2.3561709  57.5023270  79.0949735   3.1325476  58.0450439
  78.4896574   2.6814692  56.7331362  15.2255750  43.8564587  12.2793269
  15.3493881  42.9709959  12.6211739  15.2523911  44.4181681  13.0539203
  25.4235554  64.2811012  20.3823280  26.2195277  64.8127460  20.3786421
  25.3623390  63.9477348  21.2775111  84.9380729  49.9111605  39.5874524
  85.2111411  50.3785086  40.3769159  84.0162427  49.7027922  39.7392535
  42.5798082  50.1477242   5.5157167  43.0001593  50.1120377   6.3749385
  42.6175356  51.0717630   5.2688146  52.8473997  59.2356110  25.9130287
  52.1940279  59.8599148  26.2285948  53.6277866  59.7661781  25.7526326
  49.3421984  63.5482264  64.7815275  49.7536802  63.7441349  63.9397860
  49.5136356  64.3223000  65.3178596   4.7564128  30.1132870  22.1306205
   3.8656098  30.0699735  22.4782205   4.7460535  29.5298910  21.3718247
  66.5749964  18.7754863  42.6212788  66.1796388  19.6184390  42.3991108
  67.3451004  19.0021174  43.1426334  28.9771676  80.3557777  24.2104268
  28.4545398  79.5626879  24.3291688  28.5865927  80.7885647  23.4512305
  81.3268219  44.2794991  36.0487103  80.6462566  44.5210028  35.4204273
  81.4263649  43.3334684  35.9421420  27.5968027  67.9909134  24.1072559
  27.0506096  67.7475214  23.3598161  27.4886942  68.9388609  24.1843033
  70.4377184   9.6395915  15.1662326  70.2959976   9.5222895  16.1055875
  69.5594797   9.7581809  14.8044801  53.1747708  12.1980994   9.5347112
  52.3705086  11.7420810   9.2868292  53.3925280  12.7320807   8.7707257
  30.3854084  77.4303389  30.5280709  29.7021294  77.5251436  29.8644638
  29.9128938  77.4334145  31.3605094  67.8142318  23.9472335   9.4905037
  67.4248919  23.1247180   9.1936660  67.1947798  24.2859118  10.1368833
  42.3931143  22.2970622  23.9632821  41.6609904  22.3108523  23.3468103
  43.1732175  22.3262637  23.4093714  25.7452154  62.5113678  41.6035843
  25.7154608  63.4283304  41.8765879  24.9667835  62.1185160  41.9984722
  34.6304900  71.5992551  64.3901697  34.6681196  71.1508302  63.5453430
  33.7266213  71.4830069  64.6829823  39.9890590  59.5113325  54.3128633
  40.5654526  58.9283991  53.8187075  40.4327345  59.6315956  55.1524591
  84.9511966   2.7369063  42.6393890  85.4414997   1.9477217  42.4091148
  85.5228147   3.2049506  43.2480049  38.7785515   2.6859038  63.8024282
  38.8368747   1.7488902  63.6157465  39.3129394   2.8074878  64.5872068
  48.6334467  67.9680395  20.5538988  49.0213156  67.5250101  19.7992384
  49.1597557  67.6775026  21.2987590  83.6690525  78.8398600  20.6060600
  84.4573164  78.3010197  20.6733322  83.9372259  79.5916891  20.0777912
  63.0913115  35.6380987   8.3379340  63.5457850  34.8639584   8.0056775
  62.2490263  35.3063059   8.6488956  38.6552525  70.7125139  22.3937631
  38.9707685  71.3433266  21.7466474  37.9515767  71.1715460  22.8524160
  11.5062197   3.5616343  18.4800529  12.3372086   3.0867045  18.4687197
  10.9520873   3.0896228  17.8584623  15.3581849  73.1653807  65.5863870
  14.8810664  73.6658690  64.9244920  14.9453965  73.4093878  66.4148167
  84.8031537  36.2897942  69.6377664  84.9958555  37.0893166  69.1480039
  84.0215770  35.9329531  69.2158235  42.8999472  64.2427540  46.5521765
  43.8505793  64.3449879  46.5065575  42.6620483  63.8397837  45.7171583
  13.3784666  58.1436846  63.5129741  14.0237656  58.6137507  64.0410433
  12.7665701  57.7781985  64.1519055  47.8818083  49.6098042  31.1037874
  48.1453943  50.0374460  31.9185734  47.8911304  50.3104353  30.4516673
  32.4742750  17.0461600   4.6338782  32.9258222  16.4002078   4.0906644
  31.5450067  16.9010775   4.4559941  37.0164967  52.6814747  52.4824381
  37.5683594  52.0726490  51.9915056  37.0341229  53.4886408  51.9682360
  24.2591190  52.8200388  35.9982109  24.9151707  52.5474215  36.6396999
  24.6516204  53.5753441  35.5603957  19.4400716  62.7828360  35.3975725
  19.8471379  61.9273567  35.5342579  19.6678770  63.2843065  36.1804295
  40.5743286   0.4174369  35.4962039  41.5137777   0.2784007  35.3764749
  40.3262517   1.0048812  34.7823429  49.3527937  33.8483667  12.8675044
  49.2013836  34.3404603  12.0605648  48.9728594  32.9864454  12.6972806
  22.6790588  36.7182131   7.3527041  22.6043385  36.6436882   6.4013424
  22.0551985  36.0769005   7.6929226  32.2000074  63.5723114  48.2090235
  33.1356740  63.4479189  48.3680344  31.9898009  64.3961954  48.6486340
  14.8813772  33.5791230  48.7184763  14.3900502  33.5700202  49.5399094
  15.5430520  34.2595553  48.8426924  44.4346762  47.0679235  63.9830732
  43.9539909  46.7642927  64.7531271  44.9893761  46.3268661  63.7394094
  33.9819264  55.4227448  46.8240976  33.3042669  55.9491873  47.2482014
  34.7972512  55.8899069  47.0063972  43.9090976  11.1625331  36.9774103
  44.1349516  11.6421550  37.7743888  44.5485530  10.4514354  36.9364786
  20.6361794  62.8276110  21.4459801  20.1375818  62.4634027  22.1774054
  21.5224171  62.9364967  21.7908859  33.8017273  72.6272106  34.9040031
  33.2209802  73.0310822  34.2591357  33.5060453  71.7183447  34.9565887
  24.8120022  40.0930214  28.7548804  25.3727388  40.8643293  28.8378835
  24.5837474  40.0617075  27.8258228  44.8773861  56.6477299  13.7724185
  44.6249676  56.7326260  14.6918249  45.1776791  55.7426834  13.6890781
  68.1190730  79.6248484  34.0753102  67.4070765  80.2376747  34.2589879
  67.6863803  78.8643789  33.6871147   7.9783678  57.2441387  17.0188129
   8.2804012  56.4909840  17.5265169   7.4332535  57.7411270  17.6287997
  45.5340466   5.7818549  18.7100518  44.9615392   5.7571833  17.9433322
  46.2259302   5.1505034  18.5127556  61.7777443  49.2348957  25.6233382
  61.5510225  49.4640732  24.7220588  62.6985121  49.4820690  25.7089400
  45.6579161  65.9882879  54.3136358  45.5909014  65.9252787  53.3608675
  46.5876722  66.1451626  54.4784880  57.2719860  64.9202251  10.8606160
  58.1820345  65.0963640  11.0994005  57.3176241  64.6078491   9.9569732
  13.3247352  56.6308928   3.2983050  12.9515195  57.1275759   2.5701243
  12.9297638  55.7622337   3.2230788  38.8328877   0.7867453  60.1943270
  38.8950816   1.7414067  60.2256969  38.3700791   0.6036160  59.3767056
  72.1131674  30.1886628  59.1878483  71.7210058  30.9693024  58.7966416
  72.8060547  30.5272124  59.7548756  33.9184117  59.6983051  42.5490427
  33.3250856  60.2982426  42.0970774  34.1710520  60.1658010  43.3451891
  39.6299300   5.7712882  38.9892602  39.6957419   6.6594928  39.3399715
  39.2744026   5.2541297  39.7120166  66.2809753  62.4289179   7.2798443
  65.8078337  61.8533850   7.8807825  67.1921635  62.1421957   7.3411489
  10.9089339  37.8157568  28.7285256  10.6000292  36.9098234  28.7187982
  10.4352021  38.2225657  29.4540000  28.5511684  56.6369963  14.8747778
  27.7281213  57.1195841  14.7977483  28.5763335  56.0805845  14.0963125
  56.9368553  42.7258205   2.4443160  57.1987915  42.0929337   1.7756782
  57.1476889  43.5781240   2.0630556  48.0436763   9.8875850   8.0332959
  47.7210030  10.5361216   8.6590070  48.7042746  10.3555339   7.5225437
  38.4160908  26.0818618  46.6267109  37.9165848  26.4236968  45.8851719
  39.2418297  25.7861750  46.2433529   9.1697562  65.0764847   4.8109841
   9.4289321  64.3026876   5.3112864   8.2133645  65.0411987   4.7936156
  73.6111669  63.5617182  61.7844466  74.4384924  63.0809042  61.7601791
  73.8569037  64.4479964  62.0496926  23.5665822  74.1586637  39.8317719
  23.2272863  74.0866327  38.9396286  24.4316912  73.7508774  39.7926617
  49.0112767   1.6996329   4.6214804  49.0296397   1.6698973   5.5780423
  48.0848882   1.6125148   4.3968830  16.5245636  21.8331950  23.2724214
  17.0462950  21.6709178  24.0583563  16.2628277  20.9619754  22.9745841
  39.2811480  56.3276217  65.0698612  38.5139075  56.1360667  65.6091962
  39.9954310  55.8495066  65.4910916   0.9701341  40.6160660  17.6313439
   0.8707707  40.9263726  16.7313042   0.4088348  41.1946507  18.1475010
  83.2969348  72.5808547  61.8197707  82.9598204  73.2408831  62.4255339
  84.1602603  72.9072783  61.5660939  56.5200481  23.7583583  38.3519912
  55.9661421  23.2478183  37.7614284  57.2188601  23.1555217  38.6059189
  40.0448132  52.1251059   3.9229274  40.4065180  51.6862011   3.1530145
  40.8114481  52.3713207   4.4405055  33.4297013  68.3872461  22.1754837
  33.6189651  68.1491470  23.0830741  34.2586350  68.7280798  21.8394327
  27.5496968  78.2737067  10.2268305  27.2211750  77.7875688  10.9831181
  28.3944901  77.8687813  10.0303784   6.9522872  73.1468508  47.6234565
   6.7328873  72.7748320  48.4776840   6.3734475  73.9041922  47.5362239
  21.4723309  18.4095805  11.9241321  20.9300431  17.7968066  11.4274704
  20.8453854  18.9398139  12.4160874   3.8240345   1.2980216  12.8186417
   3.3265027   0.6847041  12.2777748   4.2990550   1.8411486  12.1896756
  12.3482092   6.6078131  49.0951443  11.7711504   6.1917727  49.7355747
  12.8132781   7.2801822  49.5929956  33.9050010  36.3934272  39.6599674
  33.2515916  36.2910216  40.3519249  34.7257802  36.1082499  40.0614977
  51.3826999  41.7327826  11.2345004  50.9669814  42.3459952  11.8406188
  52.2746644  42.0646994  11.1322236  64.8169708  67.2570467  33.9807749
  65.2310133  66.6757727  33.3428693  63.8859081  67.0399427  33.9336777
  75.5114812  25.0444575   1.3062897  76.1005563  24.3968220   1.6933193
  74.9771935  24.5439549   0.6896296  84.5777235   9.4435542  14.8340297
  84.8392257   8.7251132  15.4099560  85.3291807  10.0364726  14.8343921
  60.9848356  72.5719881  38.7331486  61.7358780  72.2095919  39.2030883
  60.2270985  72.3164558  39.2592335  39.5100617  71.0345411  59.0905380
  40.0286245  70.5616856  59.7414827  38.6014867  70.8431196  59.3230915
  74.8823652   4.1824382  38.4477448  74.7843942   3.6500304  39.2371583
  75.4622612   3.6704486  37.8839898  60.6448412  63.7190437  68.1544399
  60.6743193  63.2438660  67.3240376  60.9888697  64.5875645  67.9457474
  71.2916050  29.7250216  10.5906713  72.0852146  30.2467482  10.4714262
  71.4340314  28.9460509  10.0529444  64.1682419   3.2991069  22.5403976
  64.3566260   3.5991042  23.4296370  64.1652665   2.3441260  22.6053858
  39.9333191  69.1146231  54.1537046  40.3727722  69.7294331  54.7411728
  40.5522823  68.3907795  54.0579748  48.1823587  76.9008970  66.1047840
  47.7978420  77.2499418  65.3007030  47.7561903  77.3922968  66.8070173
  72.1518812  41.0642855  41.9490576  72.3395834  41.9957011  41.8329906
  71.2057409  40.9930651  41.8226385   1.9810256   2.4456256  37.6193714
   2.3776682   1.6657489  37.2311592   2.2058686   2.3915713  38.5482192
  67.5460768  76.3651037  21.6080523  67.8404045  77.2115231  21.9444728
  66.7946577  76.1378527  22.1557355   9.0801346  53.6598110  59.7992373
   9.0175033  53.5047626  60.7417154   9.7671592  54.3203545  59.7103071
  68.0441050  36.9489501  56.3273546  68.9497355  36.9224951  56.0185406
  67.8954772  37.8666613  56.5552768  50.8845854  62.4802351   8.0177921
  50.9180927  62.0865154   7.1459585  50.1739359  62.0179558   8.4622079
   9.2657709  65.7996893  18.8237679   9.9980205  65.1871729  18.7540138
   8.7494558  65.4728365  19.5605290  76.9506273  29.6731608  48.5977268
  77.4122724  28.8981288  48.9177847  76.0772428  29.6082633  48.9840174
  81.7536554  15.5717604  34.8111439  81.4862213  16.4442389  34.5221901
  81.0457430  14.9961512  34.5217299  63.5964441  53.8028240  39.7054458
  63.3212805  54.1172266  40.5666447  63.6654472  52.8536177  39.8078179
  49.1570473  52.6506424  54.4403887  49.6158791  53.4875488  54.3676043
  48.2739544  52.8856325  54.7252798  32.2126913  24.3148518  69.5602322
  32.6422310  25.0017428  70.0700426  32.1704316  24.6672940  68.6712837
  10.9120572  42.4431133  25.9608126  10.7779384  42.1320534  25.0655556
  10.4248738  41.8243408  26.5048766  43.4327364  75.8122253  36.5119433
  43.3016062  76.7293167  36.7527437  42.6114321  75.5547762  36.0931158
  55.0232792  72.1359825  29.5043659  55.8576059  71.8244791  29.1535068
  54.8986387  72.9942846  29.0993834  13.9108694  79.7972107  62.8198147
  14.1039073  80.6933212  63.0954218  14.3571901  79.2472076  63.4636497
  34.9901843  62.6028681  12.9463708  34.3208647  62.0466852  12.5477445
  34.7176886  63.4954643  12.7336478  42.2060880  39.1661876  20.5296087
  42.3665199  40.0884860  20.3299570  43.0686304  38.8156932  20.7518840
  51.8902859   1.4665168   2.6545998  52.0356092   0.9418719   3.4419161
  51.7232189   2.3499720   2.9829517  77.6187307  72.0793371  57.6215217
  77.3175365  72.9493623  57.3596666  77.4634678  72.0461778  58.5654638
  41.4882073   1.7984145  32.4301720  42.0938072   2.4563544  32.7716303
  42.0533714   1.0916655  32.1182036  77.3472128  12.0279830  44.2716265
  77.8100738  11.9685023  45.1073599  76.8063507  12.8135436  44.3527555
  56.3565271  28.9647217  11.9544926  56.3053530  29.6823855  12.5858250
  57.0970743  28.4362717  12.2520962  76.0945663  17.2353213   5.9028530
  75.9879503  16.9661944   4.9904746  77.0076904  17.5156920   5.9647268
  31.3091317  50.9149478  46.1543402  30.5779448  50.3703997  46.4460120
  31.8134537  51.0849402  46.9499526  69.8175144  48.9297009  49.8129272
  70.1498461  49.2620611  48.9790678  69.9359751  49.6562958  50.4246902
  45.2068949  54.1322279  27.1047211  46.1303759  54.3797970  27.1508598
  45.2183914  53.1786346  27.0224738  63.8471827  10.9175437  22.6937795
  64.6075878  10.5723613  23.1616116  63.4162244  10.1428931  22.3326373
  70.1240635  72.5291252  35.1605487  69.9259472  71.9082117  35.8615828
  70.7518959  72.0690298  34.6034384  18.5477265  16.1485904  24.1493487
  17.9157647  16.7409079  24.5568037  18.5114010  16.3638823  23.2173824
  41.3531590  76.4533043  13.7037969  42.2229195  76.0586691  13.7671149
  41.4037657  77.2342205  14.2550099  66.4896297  67.7856398  24.3388605
  66.7475510  68.2570410  23.5467196  67.3013210  67.3910570  24.6577549
  26.0863066  57.8185177  18.9331841  26.4270449  57.2973680  18.2061827
  25.2543688  57.4016142  19.1574693  24.0740705  69.0435266  37.5443840
  23.5580325  68.2480574  37.4133635  24.8818183  68.7395477  37.9583549
  25.4276052  22.3077243  19.9692440  25.3132430  22.9677241  19.2854631
  24.8871330  22.6189845  20.6953549  54.2267227  52.1263361  39.2108893
  53.8817501  53.0081654  39.3509126  53.6596823  51.7515469  38.5369253
  37.0124570   1.1602156  30.7604790  36.9934699   0.8400386  29.8586130
  37.6690749   1.8566649  30.7536125  82.1975050  10.8861773  31.8577266
  81.8825922  10.4005854  32.6201296  82.7279386  10.2536242  31.3732243
  79.0817747   5.7759898  50.3222656  78.7279758   6.5194838  49.8341274
  79.6647558   5.3379576  49.7021961  67.2056374  13.2218402  44.6369267
  67.3764453  13.6915057  43.8205528  66.9493756  13.9045852  45.2569342
  83.6352548  13.0040877  26.8732047  84.2081794  13.6796801  27.2359157
  83.7050256  13.1146567  25.9249759  34.7993851  59.6278620  12.3990512
  33.8547707  59.7765541  12.3563182  34.8948097  58.8502836  12.9490435
  39.0432549  64.6090746  28.1215239  38.2347488  64.8181534  27.6537251
  39.4850612  63.9700031  27.5623941  51.2507248  50.1594496  17.3796153
  50.4327774  50.6302309  17.2197342  51.4915514  49.8008108  16.5254438
  50.6915674  22.7526706  25.5064011  50.7229886  22.0040267  24.9107623
  51.0141096  22.4094432  26.3397050  73.3390627   1.6660445  42.8842068
  73.4348974   0.7177203  42.7963352  72.4048433   1.8258040  42.7502680
  74.2525587  10.3500789  25.5077887  75.1888618  10.3606551  25.7064104
  74.2061052  10.5046122  24.5642877   2.7816104  65.1027489  13.3224893
   2.1532058  65.7964611  13.5227489   2.8064536  65.0708485  12.3661435
  13.5034060  61.4074183  42.7620792  12.7424479  61.5662241  43.3206081
  13.7381256  62.2722054  42.4255085  28.1719851  63.7530470  34.8620796
  28.8839078  64.2625904  35.2490735  27.4869061  63.7525749  35.5305815
  76.5804109  50.8992331  14.9705017  75.9430036  50.8951419  14.2564094
  76.0627327  50.7167476  15.7546842  15.3961062  79.7076130  43.6970663
  15.5565131  78.7705803  43.8087463  14.6236551  79.7528887  43.1335974
  61.1519489  25.7705920  59.0153074  61.6403637  25.5272143  59.8017216
  61.2026987  26.7260497  58.9879513  64.9883852   7.5731318  13.0580497
  64.7709856   8.4420436  12.7204704  64.8388133   7.6382964  14.0012431
  49.5236588  70.2738857  57.5257492  48.7438631  70.7231188  57.8518486
  49.3867826  69.3559313  57.7599764  70.1621208   3.8442557   4.0983576
  69.8119220   2.9850428   3.8630933  71.0903368   3.6857264   4.2701513
  84.6943721  15.4228633  50.1701069  83.9029417  14.9435752  49.9248409
  85.2902994  15.2948516  49.4320583  48.7392950  79.6786499  52.2952223
  48.6752558  79.0156889  51.6077566  49.5291471  79.4433498  52.7820492
   1.2712582   0.9467356  54.3922281   0.9433325   1.8349879  54.5326090
   0.4846438   0.4214042  54.2456007  25.2797802  19.9227946  48.9622593
  25.4714402  19.2711013  48.2878685  24.9162777  19.4161456  49.6884918
   2.4131306  12.2276252  30.0215936   2.2675951  13.0213683  30.5363941
   3.3646830  12.1686976  29.9361134   6.5208912  68.0074549   7.2197181
   5.7336509  67.4647760   7.1751553   6.2555450  68.8458824   6.8417448
  61.9677744  21.2952369  31.2073970  61.2676630  21.6406577  30.6535435
  61.5882406  21.2707084  32.0857954  46.4317557  13.9538329  50.9479523
  45.5475232  14.1633265  50.6471539  46.4342115  14.1985457  51.8733358
  35.8364010  75.8056688  39.6530938  34.9339581  76.0699844  39.4743037
  36.1252952  75.3789997  38.8464165  58.8975010   4.0961402  30.5515146
  58.2328424   4.5926135  30.0740480  58.7645230   3.1896823  30.2742505
  53.6425161  69.0014887  36.4200926  52.7708244  68.6616850  36.6223717
  53.9495802  68.4569645  35.6952238  34.5360390  15.0154059   9.8087275
  34.7008965  14.0817492   9.9404144  34.6463433  15.4028933  10.6770086
  28.6954331  73.7621546  46.6432905  28.8190913  72.9450798  47.1263313
  28.9626503  74.4461584  47.2572660  29.1721573  64.4220183  51.2075076
  28.4748783  63.7794898  51.0764358  29.9815026  63.9193842  51.1150560
  21.1291957  58.4778500   7.9723716  20.3392506  58.7275314   8.4518296
  21.8494844  58.8121128   8.5068661  85.3364620  20.2853053  30.8115673
  84.6304140  20.7762282  30.3911805  85.0927887  19.3671363  30.6939530
  53.1266499  76.9616365  31.3548398  52.7303839  76.6704798  32.1760798
  52.8482103  76.3107729  30.7105708  46.0010895  22.9323142  26.0139132
  45.3750476  23.6543887  26.0678625  45.8688125  22.4396079  26.8238401
  50.6803951   9.8171275  31.6024470  49.7950015   9.8960822  31.2473750
  50.8218035   8.8741057  31.6858172  53.3846006   5.1916640  10.4235578
  53.7216553   4.6886008   9.6822393  53.3727059   4.5686667  11.1501753
   5.8624071  52.6306725  12.7271760   5.4616702  52.9557943  11.9209886
   6.5373260  52.0204401  12.4299705  33.7231073  11.2816184  10.4492688
  34.6098355  11.5909617  10.2641976  33.4819371  10.7698672   9.6771407
  63.6363579  79.5220947  24.1881776  63.2340242  80.2132416  23.6621809
  64.5742751  79.7101164  24.1536832  81.6839210  33.9140532  34.2490492
  81.0889808  33.9918635  34.9948511  81.1713664  33.4600995  33.5801325
  61.9539795  48.1749480  38.9622021  62.3169002  48.2802146  38.0827475
  61.7152199  49.0621989  39.2305565  84.3752093  45.0563355   8.8279143
  83.4802217  45.3736706   8.9484301  84.9246616  45.8246632   8.9828625
  43.4206438  62.4128532  30.5455613  43.9005184  63.1254530  30.9676456
  42.5976467  62.3576832  31.0312200  21.7457485  69.9625397  20.8874702
  22.1394897  69.8498297  20.0223136  21.9067216  70.8804178  21.1061430
  47.4220800  53.4894085  22.9605365  48.0876541  53.9328051  22.4345708
  46.5903473  53.8290071  22.6302028  53.5898638  77.2334576  16.9920838
  53.4388781  77.7024794  17.8127265  52.8199387  76.6737938  16.8909264
  17.0548773  51.5370703  55.7899714  17.0971024  52.3535013  56.2878561
  17.6855326  51.6566658  55.0798988  20.3630551  43.2694285  46.4712429
  19.8962649  43.6062281  45.7064533  20.6566914  44.0526049  46.9366884
  51.4097595  77.2722816  54.7687149  51.1728144  78.1739664  54.5517969
  51.7996693  76.9272518  53.9654970  56.7881536  61.3837099  61.2914085
  56.3702774  60.6120396  60.9091425  56.0604048  61.9143581  61.6154909
  28.9367676  75.7834053  17.2552192  28.4152317  75.0051069  17.4513972
  28.9835930  75.8056784  16.2994242  78.1943251  70.6490374  11.6936481
  77.2925199  70.3582621  11.5578938  78.5625667  70.7070351  10.8120203
  42.3167467  62.0125532  60.9379244  41.8571997  61.4783239  61.5857315
  42.4363375  61.4296484  60.1881552  36.2451935  72.6591492  40.0246620
  37.1701360  72.9055500  40.0266933  36.2453651  71.7299557  39.7948050
  20.6205177  70.4762650  15.6650412  19.9338996  70.6053877  16.3193464
  21.0253906  71.3383293  15.5693948  70.3926477  27.8771823  39.6217179
  70.6581220  27.6497977  38.7306237  69.6862087  27.2641127  39.8249793
  81.5578184  14.4549029  45.0399160  81.5286932  13.5399669  45.3197098
  80.8767566  14.5225089  44.3707275  35.3488490  12.1242087  20.7365680
  34.9462876  12.8959410  20.3383279  34.8221258  11.9555228  21.5178108
  41.6889572  77.1422386  20.1164150  41.6852331  78.0994320  20.1180935
  40.7694912  76.8993378  20.0077438  72.4000797  33.5256045  36.1922288
  71.7746744  32.8072779  36.0967994  73.0951128  33.1663745  36.7436957
  53.5287771  25.9948294  33.6270118  53.2680521  25.3710311  32.9494166
  54.4042358  25.7108157  33.8899565   3.4457430  78.4495497  20.0472546
   3.6006656  78.4716320  20.9915757   4.0371022  79.1130829  19.6919429
  11.9745564  65.7127714  11.4155781  11.5924263  65.0725746  12.0158744
  11.7142045  65.4104328  10.5454981  15.4354787  73.1559515  15.3518975
  15.7096112  74.0730381  15.3574717  16.2322402  72.6690769  15.1412845
  33.1793666  75.4852247  33.4465361  33.6483288  75.8312941  32.6872325
  32.5990844  74.8154116  33.0847955  54.1951513  78.5831881  33.7710428
  54.9798775  78.0352831  33.7865210  54.5194578  79.4603443  33.5669518
   8.3154216  57.1573279  66.1053691   7.5333944  56.6318629  65.9364051
   8.7942472  57.1475146  65.2765969  62.5090361  46.8427515  46.7876339
  62.2815657  47.7385139  47.0368195  62.2517920  46.3118029  47.5413895
  33.4755820   5.9823554  24.5287657  34.0957883   6.5658229  24.0915751
  32.9124087   6.5675967  25.0352883  25.2620292  72.7568197  57.1616745
  25.9334278  73.4359694  57.2266102  25.5715394  72.0581532  57.7381277
   4.4174394   2.2326033  56.9507551   3.6382446   1.8580859  57.3616266
   4.0795359   2.9261344  56.3841200  30.0302267  79.5452595  17.8925550
  30.7154131  80.2024841  17.7708507  29.4964528  79.8858452  18.6104107
  51.2044430  74.8105145   0.1317047  52.1512842  74.9427843   0.1788902
  51.0504103  74.0042162   0.6240331  51.0669241  15.7615702  14.5017064
  50.6737361  16.0198729  15.3353238  50.5640635  14.9947875  14.2270970
  46.1544046   6.5804904  21.1767149  46.1074254   6.3533347  20.2480483
  45.5666813   5.9584182  21.6054821   2.0579632  17.2730964  35.0847173
   1.5293940  17.0028727  35.8355999   2.6624878  16.5446513  34.9427843
  27.5584259  60.0266383  47.2917399  27.7105656  60.9277270  47.0068989
  26.6732731  60.0367854  47.6559267  35.7939339  65.2549076  44.3182373
  34.8463798  65.3901958  44.3097401  36.0275221  65.1385117  43.3973026
  80.7580003   7.1250766  28.7439632  80.8519420   6.2071746  28.4892702
  81.5423784   7.3119967  29.2597580  51.6514111  74.6795893  49.8221970
  52.3565674  75.2583456  49.5323181  52.0188761  73.7988138  49.7484541
  27.7614537  57.8400443  63.7015489  28.6718789  57.5672457  63.5877994
  27.6968136  58.6652014  63.2207606  62.7646837   4.9969428  58.5476446
  63.4290061   4.7264426  57.9138184  63.0756459   5.8409350  58.8750887
   6.0974136  44.0766451  30.0154218   5.1866475  44.3343184  29.8727903
   6.0464540  43.1639407  30.2993212  27.0404553  70.7040167  24.1124392
  27.5691438  71.4008379  23.7236428  27.1390200  70.8270121  25.0565720
  71.5545759   5.0662558  20.8321738  71.7844257   4.2677729  20.3569627
  71.2743339   5.6779139  20.1513124  21.7537451  60.4884720   1.1369476
  21.1619043  60.3477669   1.8759717  22.5724649  60.0697613   1.4026710
  64.8790407  70.6391811  36.5257955  65.2523327  71.1608601  37.2362399
  65.4188204  70.8507299  35.7641387  29.6330976  76.1381865  34.8798490
  30.5778289  76.2357378  34.9989939  29.4460845  75.2452612  35.1695776
  10.4104653  41.5606711  67.8158522  10.2535167  42.4474165  67.4913843
   9.8874989  41.5021346  68.6154202  67.2847161   7.7407306  33.5368013
  66.5971741   8.2148021  33.0690718  67.0063696   6.8253367  33.5083055
  26.8617153  75.6680250  30.6099534  27.3685050  75.8316946  31.4053202
  27.1957874  76.3045025  29.9778724  50.2158880  66.6660309  32.8026485
  49.3889427  66.5166187  33.2609820  50.3041983  67.6186657  32.7723169
  27.8757962  22.4641936  38.2080507  27.6736744  23.1604045  38.8330889
  27.0231446  22.0976203  37.9738498  41.8767444  51.4398215  68.1685889
  42.0564262  51.5744040  69.0990910  42.7374772  51.4732859  67.7511552
  66.7366299  17.3148959  46.9519377  65.9665308  17.5589793  46.4385128
  66.8642912  16.3848822  46.7648602  46.0651312   1.0379069  27.9244113
  46.7217466   0.5610793  28.4320807  46.5629205   1.7126601  27.4627423
  58.3765444   7.0735877  63.1502438  57.8261122   6.2970774  63.2516813
  59.2527279   6.7260020  62.9837608  80.0599012   1.2271350  19.3086612
  79.4085369   1.4361899  18.6391425  79.7607002   1.6950267  20.0882697
  23.8637751  29.3876477   1.2416973  23.0196302  29.5680018   1.6553679
  23.7280052  29.5993586   0.3181305  71.5765858  68.6501551  19.5389819
  72.2873402  68.2884693  19.0095973  71.8220186  69.5650816  19.6764731
  69.4638071   6.7059653  34.8775911  69.3066463   6.8937915  35.8029318
  68.7636575   7.1684687  34.4170403  44.0789032  68.6356878   9.1089439
  43.5351133  68.0428362   8.5902435  44.3296528  69.3277502   8.4970570
  52.8942260  37.9074138   1.5344337  52.6424608  38.3643954   0.7319284
  52.3523507  37.1183818   1.5408105  34.9975228  62.6131868  19.2035568
  35.2352190  62.1631765  18.3928621  35.3378296  63.5010290  19.0932977
  27.0971750   5.7783549  14.8456657  26.2629721   5.8837645  15.3030765
  26.8904411   5.2201503  14.0960634  52.4082837  16.0729640  28.8610125
  51.6650877  15.8438723  29.4190502  52.6161608  15.2633326  28.3946395
  67.8888831  26.6688197   8.3235234  68.1056914  25.8188670   8.7066799
  68.2235965  26.6202681   7.4280679  21.2728810  72.8359413  14.9663961
  21.7969179  73.6279869  15.0859189  21.3976574  72.6027536  14.0464592
  53.8391447  54.7766924  60.7848263  52.9555798  54.4089127  60.7678127
  54.2985201  54.2656183  61.4511681  76.4754528   3.7448998  11.1544838
  77.3886866   3.4587021  11.1364022  76.2876887   4.0037985  10.2522888
  56.6220412   1.6966574  37.9109073  56.2528739   2.5469535  37.6722980
  56.6605601   1.7121070  38.8672066  13.5314902  16.9350951  17.6701868
  14.1108807  16.9164031  18.4318888  13.0943736  17.7850478  17.7225626
  31.3990679  42.9556868  69.0832792  31.8987408  43.7683699  69.1614743
  31.1008349  42.9444621  68.1737945  39.3234842  60.5017395   5.3508940
  39.0897148  60.0091381   4.5641794  39.5457523  59.8307915   5.9963837
  61.7333684  15.9055465   7.3356867  61.5864739  16.5624278   8.0162501
  61.0180459  16.0405295   6.7141354  46.9447932  14.2483466  39.2356491
  46.6807184  14.8751109  39.9091911  46.6523943  14.6425097  38.4138393
  83.8369951  41.4925044  59.8667908  83.9684639  42.3801749  59.5336294
  82.9596099  41.2523597  59.5688677  81.2021551  10.0618499  28.8456893
  82.1058998   9.9542849  28.5491943  80.7232103   9.3530600  28.4161925
  60.2256037  67.7781105   0.8775755  59.4218517  67.2582912   0.8790302
  60.9257365  67.1369410   0.9998429  69.1422329   0.6360572  35.6434417
  68.2902298   0.7742255  35.2296424  69.2169342  -0.3146226  35.7262325
  72.1983680  38.0051177  29.4417357  71.7932090  38.8332599  29.1843557
  73.0041513  37.9624694  28.9268303  82.0121202   8.4991877  14.6528053
  82.8127441   8.9759772  14.8716772  82.0150957   8.4522193  13.6967623
  37.6827153  33.4003299  36.3224673  37.2805413  34.2175238  36.6168833
  37.5655945  33.4044116  35.3724670  34.1407879  20.0639861  25.3390265
  34.5938786  19.2214339  25.3713322  33.2460507  19.8655265  25.6152272
   7.7490195   0.4347747  37.4814963   7.7712115  -0.1811177  38.2138991
   8.6443337   0.7680362  37.4215913  38.6260366  79.2817354  33.6376047
  38.0629444  79.3401909  34.4094467  38.1611657  79.7778988  32.9638505
  19.8256197  62.7204630  68.3602976  20.4973927  62.1153853  68.6746778
  20.2781477  63.5601256  68.2801523  78.3670196  13.0178588  62.9575396
  78.1709823  13.7825435  62.4161959  78.9277038  12.4717181  62.4065447
  13.5238703  36.3519709  14.8031735  12.9572972  35.6285994  15.0714207
  12.9191264  37.0356887  14.5149803  17.7372527  77.2506237  11.3418365
  18.5337770  76.7625189  11.1331844  17.0461905  76.5883780  11.3516951
  30.3660496  25.7914775  29.0929270  30.8097084  26.4524501  29.6244383
  29.5279034  26.1923735  28.8626599  47.3173523  69.0351391  28.1080198
  47.5754118  68.1996441  28.4973598  47.2795486  68.8597155  27.1677899
  63.0176258  72.3407984  46.3296032  63.4014082  71.4838457  46.1436558
  62.6438665  72.2507334  47.2062016  38.0375775  21.9766085  41.5382338
  37.4350937  22.1990626  40.8284664  38.8711174  22.3674815  41.2762070
  73.2385931  41.8526595  16.9410622  73.6270485  40.9932177  16.7776692
  73.1923732  42.2627204  16.0773814  63.0545139  69.0112877  38.2095838
  62.2689962  68.7625742  37.7224159  63.6719418  69.2996979  37.5373960
  16.5168293  21.4863723  27.9734898  16.9445189  21.3076155  28.8109589
  17.2380122  21.5754264  27.3504376  54.4052968  16.1274188  43.3936405
  54.8714957  15.2919810  43.3631945  53.9311823  16.1069720  44.2249250
  68.8721657  78.0526543  38.0614185  68.5009050  77.3526525  38.5984397
  68.7604761  78.8437986  38.5885334  27.4070843  23.6082404  22.1920705
  27.4079236  23.1088107  23.0086493  27.1877011  22.9649394  21.5180826
  49.7025547  33.9362376   3.0871800  49.3421659  34.6259158   3.6445796
  49.0408668  33.2447665   3.1036291  23.6586188  72.1478701  25.7545900
  23.5981654  71.8849897  24.8361826  24.5714187  71.9834185  25.9912062
   6.7045697   1.5065043  16.5671420   7.5754937   1.1125510  16.5168619
   6.8235596   2.2814124  17.1163154  73.1545353  61.5947723  17.9412162
  73.1268787  60.7699823  17.4562526  72.2951651  61.6563416  18.3582497
   7.8942688  29.9553817  65.9914684   7.1328839  29.5090144  65.6209517
   7.5631913  30.3742831  66.7859077  14.0182932  16.6834967  23.1229472
  14.4631489  15.8379882  23.0642605  14.0555056  16.9097274  24.0522861
   6.3415440  38.4513896  21.3484931   5.4680403  38.7939494  21.1591029
   6.1852749  37.6996749  21.9200945  59.0630779   5.7380526  51.5132284
  59.8895106   5.2832072  51.6755486  58.9078102   6.2445014  52.3104954
  38.6680555  74.6332312   1.3788830  37.8751945  74.7058058   1.9102369
  38.6096549  73.7656355   0.9787662   7.8162670   4.3629330  15.3047454
   7.7135932   5.2990663  15.1334417   8.0949241   3.9951319  14.4661129
  26.3897467  28.7530518   0.2522944  26.2006640  28.9949536  -0.6543273
  25.5609059  28.8837814   0.7129090  20.3396034  47.6226759  40.6688166
  20.1880813  47.7175379  39.7284579  19.4867885  47.7958393  41.0675049
  56.0526539  35.8681941  33.6015630  56.0005976  35.0643754  33.0844593
  55.1834823  35.9583545  33.9922619  20.4948772  58.0443792  57.0085475
  21.3298619  57.5783400  56.9656632  20.6843210  58.9092152  56.6446755
  12.0042837  18.1383312  26.1946607  11.1107719  17.8290081  26.0457087
  11.9501400  19.0878820  26.0867071  11.0373271   6.6671348  63.1773424
  11.1466002   5.7966375  63.5601282  10.7297826   7.2108293  63.9026308
  28.3175039  33.6752295  45.1683092  27.5032091  33.6369562  45.6699991
  28.5514903  32.7588010  45.0212049  68.0607740  74.5451034  50.3027916
  68.4891562  75.2212186  50.8277559  68.7635438  73.9353854  50.0778723
  78.5815472  34.4786334  33.0611825  78.6455263  34.8529243  33.9398432
  77.6840604  34.6656823  32.7859330  31.5381009  52.0525830  60.5721674
  31.7997188  52.8481977  61.0356167  31.9101525  52.1525101  59.6959123
  81.6389756  31.5636349   9.1011852  81.8561749  30.6967974   8.7581843
  81.0136123  31.9209003   8.4706980  18.1484687   0.3286517  58.2144356
  17.4050581   0.8860222  58.4444618  17.8189230  -0.5642428  58.3162737
   7.0617777  49.3371296  54.7153473   7.9139501  49.5957184  55.0662994
   7.2703820  48.8076305  53.9457083  35.8767862  62.8761677  68.6198150
  36.0075790  62.7736621  67.6771495  36.5947450  62.3826437  69.0163003
  46.3265181  25.4577637  24.4934678  46.0668564  25.1787829  23.6154151
  45.4997873  25.5809355  24.9599195  34.5620918  38.0885482  32.7766275
  33.9150858  38.6606693  33.1892943  34.2788625  37.2030878  33.0046082
  45.0669391  56.4917772  62.6020685  44.5750565  57.2709124  62.3427788
  45.3226060  56.6607170  63.5088894  69.8364855  23.1399250  24.7778773
  69.1372443  23.0370831  25.4234123  70.2910579  22.2975564  24.7809196
  37.4146689  48.3420460  67.6122643  36.9792730  49.1384552  67.9162285
  38.2296342  48.3085261  68.1132028  63.2695175  26.6865778  27.0844746
  63.8972331  26.2587237  27.6668382  63.7554933  27.4186420  26.7048144
  63.4358359  53.7530184  19.4262338  64.0873576  53.7025166  20.1256633
  62.8710939  54.4839573  19.6772861  71.2904693  27.1597028  29.9872112
  71.7232240  26.4570665  30.4722452  70.6291772  27.4961591  30.5919600
  10.2088833  46.4675379   3.4507406  10.7351160  45.6909275   3.6409777
  10.8495188  47.1706820   3.3439451  71.8963696  17.6726961  10.4773593
  72.3286129  17.3035812   9.7071958  71.0156072  17.2982717  10.4601729
  41.0108165  69.6201760  21.8695259  40.0915197  69.7656710  22.0930362
  40.9906391  69.3051250  20.9658861  15.3911042   7.0457637   5.3591543
  16.2247157   7.2803253   4.9513504  15.6379521   6.5964895   6.1675173
  57.2545576   6.1643499  14.8754370  57.9730272   5.7408303  14.4056845
  57.3123264   5.8165979  15.7653594  68.4554402  69.2604048  15.5185032
  68.4289018  68.3054204  15.4590678  69.2475776  69.4470997  16.0223830
  84.2427770  73.4900779  11.7117906  83.7785594  74.3177790  11.5867138
  84.9283043  73.6937172  12.3480427  46.1395931   5.7427663  36.1005902
  46.2559891   4.8125875  36.2941170  46.4258957   6.1906737  36.8966079
  65.4764444  43.5153626  68.1417519  65.2273876  43.6838774  67.2330133
  65.6159384  44.3848087  68.5170341  66.5698592  77.6424755  66.1375809
  66.8418417  77.2510702  66.9676781  66.9993404  77.1087898  65.4690313
  78.3821065  33.4378099  65.9904861  77.9187984  34.0444851  65.4129744
  78.7227644  32.7620864  65.4043293  23.3595300  23.4539557  34.0629005
  22.4216890  23.3910871  33.8819766  23.7584066  22.7990079  33.4900355
   3.1732568  20.0111222  22.8522420   3.1994131  19.9225509  23.8049746
   3.5981485  19.2177832  22.5261879   0.9613580  10.0774622  31.2040854
   0.0492483  10.0883770  30.9139681   1.4374134   9.6670055  30.4821944
  72.2199966  21.9911575   0.6985199  73.1563212  22.1889925   0.6787845
  72.1596635  21.1658502   1.1796218  80.7990984  42.5874281  13.9279592
  81.0715119  43.5050297  13.9334154  80.2284242  42.5024605  14.6917284
   2.5632262  26.4624572  36.1482143   1.8026549  25.8814359  36.1615133
   3.2555383  25.9606338  36.5784597  59.7640375  35.2967093  69.6643216
  60.2295885  35.4506133  68.8422465  60.2190916  34.5543692  70.0619287
  57.6176793  62.6254110  39.0697489  57.3541982  61.7083149  38.9939699
  58.3882577  62.7005176  38.5068998   1.8922852  16.8376136  23.9934278
   2.5823849  17.2207141  23.4519219   2.3327965  16.1484146  24.4906068
  25.0257635  54.1798401  12.3483634  24.1940498  53.7080622  12.3920739
  25.6918120  53.4924364  12.3573923   4.0674999  21.0221219  11.9984019
   3.1567588  20.7636285  11.8571091   4.3573847  20.4847527  12.7355802
  47.9816896  55.0165920  58.2814512  47.5937433  55.8678441  58.4841833
  47.4553031  54.6800892  57.5562510  76.8784857  12.0697212  16.0064876
  76.2575817  11.3479280  16.1051130  76.6722584  12.4479508  15.1517093
  22.7410531  39.3261719  25.4438162  22.3803473  39.7283244  26.2340045
  23.6530495  39.1382861  25.6656122  44.5504236  35.3540993  15.4092336
  44.8683214  35.0592089  16.2625861  44.5636225  36.3095331  15.4658270
  11.7376423  50.0907898  22.1988893  11.2465322  50.7763052  21.7460036
  11.8234468  50.4110479  23.0968332  25.8517575  65.4398441  49.1667032
  26.3071823  64.8211908  48.5956669  25.4014850  64.8883772  49.8065233
  62.8776623  42.8383207   5.4849088  62.2080852  43.1998730   4.9042380
  62.5145866  42.0025587   5.7780093  79.3326164   9.9921376  30.9511065
  79.9828375  10.0851810  30.2548409  79.8423786  10.0237811  31.7606568
   5.6549883  51.9363594  26.8489552   5.3263533  52.1009636  27.7327752
   5.4127705  51.0280323  26.6686583  21.1762333  54.2818785  27.4982715
  21.7432165  54.9405766  27.0971751  21.5147257  54.1844273  28.3883047
  46.5535879  17.9062593  46.7569780  46.8092537  16.9838870  46.7667437
  45.5966663  17.8894043  46.7413092   7.5795904  71.7521418  23.4886575
   7.9062596  71.3564862  24.2967272   6.6547766  71.5070702  23.4588122
  34.4203758  34.2133498  35.6617117  33.7223148  34.1929960  36.3163352
  35.0583100  34.8355985  36.0111046  15.8043396  13.4057963  43.6829329
  16.2672472  14.2406607  43.6125803  15.1884615  13.5334778  44.4044733
  82.9035334  40.5006075  15.6726289  83.7632383  40.7189512  15.3128159
  82.3844327  41.2957239  15.5519962   9.9608719  73.1197023  15.9581935
   9.6265054  72.8953075  15.0898159   9.1789609  73.3284807  16.4693272
  19.5781524  76.0980539  62.3350570  19.8755837  75.2662019  62.7035532
  19.9333317  76.7622976  62.9257003  25.2885175  19.0164256  26.1938953
  24.5770216  18.4198380  26.4264607  25.4396343  18.8572860  25.2621913
  58.8973651  55.5640211  13.3947220  58.5430536  56.3717368  13.7665978
  58.1251797  55.0557592  13.1464615  75.4260243  38.9630413  21.7591095
  75.4429914  39.3162942  20.8696389  74.6011675  39.2800379  22.1270180
   2.5650880  30.0163269  24.0259576   1.8196765  30.5778480  24.2387676
   3.2825533  30.3583145  24.5593643  34.1199064  15.3719699  23.9356685
  34.1912007  15.4663157  22.9858017  33.7372780  16.1983871  24.2303944
  66.2885339  39.3234594  42.6993141  65.8023102  39.4740854  41.8886790
  66.0690553  40.0727814  43.2530079  12.8190207  37.4097586  44.1528988
  12.0507503  37.0070601  44.5576572  13.1879365  37.9653645  44.8395109
  64.6080519  40.0197887  34.1257381  63.8509251  39.5649695  33.7567830
  64.9521400  40.5400515  33.3996773  27.2949028  30.6205583  46.9152117
  27.1392941  31.5645885  46.9439363  26.7450523  30.3089476  46.1963272
  17.8404689  55.1479101  43.7023401  17.0668709  54.8350286  43.2334232
  17.9854190  56.0310650  43.3628464  66.8846215  45.0690794  32.0409393
  67.8068448  45.3082418  31.9485402  66.6665424  44.6331453  31.2171459
  27.4208403  35.0412822   8.9517748  26.8724823  35.4060340   9.6463901
  26.8010283  34.7715664   8.2740450  79.9066480  51.9295399  57.9413292
  80.7352431  52.3956089  58.0528626  79.2462833  52.6212983  57.9010472
   3.4127375  54.7921419  43.9442682   4.1284698  54.5198679  44.5185757
   3.8379985  54.9941444  43.1108522   5.5334234  27.0378852   0.4502170
   6.1142468  26.3404226   0.7542266   4.7823203  26.9991803   1.0423130
   8.9477110  34.7257805  17.6581228   9.5398027  34.1235328  17.2076178
   9.0764487  34.5376086  18.5877728  18.8020504  63.2531118   4.3742275
  19.0536344  63.3453608   3.4553000  19.5254648  62.7696991   4.7732425
  78.6836613  15.0981927  17.0463276  77.8191305  15.0858414  16.6356385
  79.2510850  14.6435714  16.4237666  21.8909922  69.9354965   1.9704778
  21.6492405  69.1597910   2.4765095  21.5990343  70.6722445   2.5073153
  45.4779355   1.8016837  64.5426432  46.3472311   1.4974520  64.2818717
  45.6425051   2.6116345  65.0254792  21.5719309  13.4536908  63.9259938
  21.7416230  14.3740199  63.7249378  21.8194619  13.3598969  64.8458657
  23.7179756  55.5956602  36.9306540  22.8542328  56.0057163  36.8855762
  23.7894440  55.2863741  37.8336859  20.2227759   4.0490317  29.2792892
  20.9455347   3.5235003  28.9362574  20.4665542   4.2277092  30.1875186
  78.2807345  51.3230753   9.7718793  78.0267669  51.1920834   8.8583297
  79.1963173  51.0462475   9.8079967  41.2742758  15.2362621  24.5786119
  41.4283323  16.0817158  24.1570592  42.0349216  15.1092112  25.1456285
  25.1589251  28.6598158  39.5680141  24.9899197  29.1958499  40.3428268
  26.0073185  28.9646745  39.2462683  24.4478655  67.2377491   9.4480664
  24.1692686  67.2381020  10.3638256  23.6474061  67.4152803   8.9541268
  84.6801352  60.8537292  45.0726938  84.1106589  60.6239557  44.3384409
  84.7636318  61.8059444  45.0221872  26.7624092  36.9517374  34.7288918
  27.6143432  36.5533829  34.5506954  26.2117124  36.6775680  33.9955473
  10.1387084  20.9067321   9.3902415  11.0191941  20.6502962   9.1159862
   9.6410912  20.9644866   8.5745978  22.9491758  28.2379794  55.9058475
  22.0407128  28.1410265  55.6203222  23.2768297  27.3409581  55.9708786
   0.2466480  36.7428041  13.3806276  -0.4927376  37.0458388  13.9076090
   0.5959458  37.5380468  12.9783690  16.1512029  51.3525772  24.0049958
  16.0210288  50.5743361  23.4631252  16.4397633  51.0099173  24.8508978
  18.0926347  71.4740229  14.1945446  17.8839242  71.6016817  13.2691383
  19.0136349  71.2133074  14.1986024  35.5715275  44.0764236  23.6854625
  35.2195525  44.0843201  24.5755649  34.8059177  44.1985273  23.1240678
  24.3491650  23.9906073  18.0534279  23.6824870  24.6145797  17.7663183
  24.5876241  23.5125136  17.2592020  33.9173288  60.0424080  64.2772368
  34.6334738  60.6735377  64.3482581  33.7740380  59.9477117  63.3355722
  10.9493995  21.5220904  13.5350955  10.4157627  21.6029358  12.7445722
  10.5486846  22.1287894  14.1576529  48.2894284  67.4811034  69.0799321
  48.2184262  67.5534181  70.0317518  48.0233569  68.3408360  68.7538994
   1.3902107  28.0158496  13.2463849   1.3542175  27.3807836  13.9616668
   0.9388208  27.5849485  12.5205743   9.9831527  17.7416980   7.9565495
  10.4696810  18.2364225   8.6159205   9.0931046  17.6893818   8.3048433
  38.0436552  52.8573398  64.9256656  38.5553545  52.4618976  65.6313715
  37.2728217  52.2956161  64.8449585  33.4850621  18.2735980  66.4404106
  34.2819905  17.7635181  66.5851688  33.7562060  19.1827512  66.5675068
  81.8890328  22.2945237  24.0233922  82.2099192  21.7926908  24.7726774
  81.0344179  21.9109750  23.8265324  19.9039853  10.8858097  25.0303483
  20.0521135  10.1413989  25.6135654  20.2363062  10.5946529  24.1812181
  25.4047060  41.2615871  11.1289907  26.2691641  41.5981102  10.8929932
  24.8916054  41.3339758  10.3241813  16.4161909  34.0786529  17.3617947
  15.5791163  33.6394691  17.5123084  16.4913535  34.1308689  16.4089799
  48.8804261  70.5394752  40.5418015  49.8136906  70.4822988  40.7466888
  48.6518494  69.6672280  40.2206039  72.2113682  42.5524855  33.3683109
  72.9400839  42.8631783  32.8310275  71.6930212  42.0071077  32.7766061
  60.8899141  51.8939447  31.9615221  60.1530005  52.2108698  32.4837756
  60.6717516  52.1431780  31.0634565  58.8881231  14.5799387  11.4267409
  59.1277529  15.3139997  10.8610880  59.2290403  14.8202240  12.2882926
  28.9011431  28.8289785  62.3632717  28.6288857  28.8755822  61.4467955
  28.8148165  27.9035282  62.5920105  31.4956307  32.0624971  61.6396761
  30.6833696  32.4480581  61.9680166  31.2921047  31.8047762  60.7405710
  27.7312970  35.6176186  57.5626659  28.1473875  36.1272669  58.2579041
  28.3159351  35.7156825  56.8111229  12.5453701  22.5989983  65.8475435
  12.3785963  22.6435015  64.9060348  11.8213501  22.0779107  66.1946631
  81.6239638  64.6405172  29.6749806  81.0302831  63.8957453  29.5796561
  81.7767609  64.7058916  30.6176424  23.6780095  22.9621863  22.4316335
  23.7110448  22.2411799  23.0603552  22.9890680  23.5379386  22.7634501
  69.4091309  10.7528555  10.7710636  69.6703113   9.8335576  10.7171381
  69.1499199  10.9809661   9.8783112   0.9644786  51.7304134   5.5961823
   0.4132556  51.0014868   5.3114957   1.6856259  51.7453527   4.9669325
   1.6838533  18.5704684  19.0034068   2.1718834  17.7495170  18.9393950
   2.3177764  19.1997504  19.3474674   1.4812723  19.7447131  53.6818347
   1.2563815  19.2512534  54.4706032   2.4259224  19.6242306  53.5851404
  70.9300007  45.2595568  38.3206391  71.2392415  45.0221682  37.4464250
  71.6393472  45.7846546  38.6912203  59.4549228  43.8534594  30.3659606
  59.5331336  43.2662344  31.1178112  60.3394819  44.1953993  30.2360845
  74.5282222  36.2578154  57.9886389  73.9518739  36.7693400  58.5564423
  73.9338566  35.7984996  57.3953485  13.7464023  32.6870513  11.5040517
  14.4578433  32.2977591  12.0125151  13.0137968  32.0809174  11.6141522
  -0.1026783  30.5889151  59.9173072   0.5620065  29.9312232  60.1219324
   0.0066677  31.2581847  60.5928442  37.8916669  16.4986610  33.0689001
  37.3312235  17.2289145  33.3313155  38.5332942  16.8901289  32.4761963
   3.7353253  13.4999084  16.9930053   2.8010696  13.5334945  17.1986020
   4.1198832  14.2079759  17.5097156  60.2522046  55.9314172  58.8904104
  60.7259614  56.0180108  59.7176275  59.4168407  56.3722532  59.0455386
  32.3615050  33.9035606   2.1786076  31.9019008  34.7404408   2.1105865
  33.2821584  34.1437292   2.2832382  38.2298703  44.5368217  66.9577191
  39.1585702  44.7581817  67.0266295  38.1474007  43.7030359  67.4205712
  46.4675862  46.6764949  67.7036953  47.0900614  45.9695332  67.8738773
  45.6414444  46.3616972  68.0706078  18.9325702  44.8301935  39.6993756
  18.8071167  45.6912661  39.3005705  18.3396280  44.8255730  40.4507971
  76.3462336  46.1656480  64.0314451  76.2703926  45.4335414  64.6434090
  77.2054226  46.5447073  64.2167756  84.1781703   9.5202420  66.2022841
  83.3559290   9.3797705  65.7327971  84.2474429  10.4713700  66.2847031
   6.5655184  30.0387168  46.6761827   7.1670258  29.3783903  46.3321066
   6.5688509  30.7325435  46.0167646  73.6577810  49.5655489  27.4960637
  74.0161658  50.4520798  27.4528980  74.0674306  49.1056633  26.7633152
  31.0446286  10.8236432  31.3476443  30.4347038  11.4277291  31.7710876
  31.8853402  11.2809658  31.3647604   5.6716812  38.5755849  54.8037434
   6.2487507  38.1208062  54.1902304   6.1352766  39.3866515  55.0122643
  67.6215483  34.0274000  10.9585905  66.8902994  33.4979987  11.2767756
  67.2403015  34.8906088  10.7981062  66.1568291  53.1059329  60.4474327
  66.5888054  53.3741109  61.2584255  65.6580598  53.8763802  60.1756403
   8.4798753  22.7980852   4.6619183   9.1498220  23.4236622   4.9377024
   8.8786328  22.3271537   3.9301753  35.5393887  61.2509060  16.7343736
  35.7169008  61.0863638  15.8082819  34.7088718  60.8054686  16.9018805
  28.7171365  32.4837565  16.5625751  28.7172223  32.5828981  17.5146270
  28.0025769  33.0459547  16.2632871  19.5585412  55.6580023  65.0142715
  20.4475809  55.3231077  64.8972845  19.6345932  56.5992181  64.8575536
  17.3041999  40.7060051  17.7389598  16.8121457  41.5270472  17.7366531
  16.7637789  40.1043320  18.2509863  17.8007782  14.4588578  14.5816994
  17.3079777  15.1472819  14.1350985  18.4388959  14.1618025  13.9330125
  64.0328483  70.1909799  13.7940705  64.8364995  69.8078842  13.4424829
  64.3168912  70.6718344  14.5714569  18.6634219  51.6676569  43.7245131
  18.0197513  52.2217751  43.2830620  18.3261597  50.7780790  43.6189890
   0.8770580  63.6243248  17.2098672   1.4681473  64.2803383  17.5793159
   1.1557715  63.5370827  16.2983084  70.3314305  66.7936420  45.9379721
  70.7670618  66.0010052  46.2513065  70.5343724  66.8248415  45.0030518
  22.9636908  46.5385294  19.0434599  23.7437153  46.0428429  19.2926323
  23.1104589  46.7711210  18.1266212  23.4371225  12.1586773  55.2683577
  23.6330620  11.2687037  55.5612466  24.0630142  12.7090094  55.7391271
  25.0683165  17.9713321  41.4666843  24.9674225  17.1414709  41.0004425
  25.7237625  17.7895272  42.1401596  36.4218020  43.3546543  14.7980797
  37.0871711  42.6712608  14.8786807  35.5967832  42.8768206  14.7129261
  13.7063844  57.1081750  67.8944558  13.6566765  57.9956906  68.2495289
  12.8485972  56.9612674  67.4958969   4.4545028  39.7697473   8.5698617
   5.2086526  39.7940445   7.9808795   4.5768842  38.9709425   9.0828574
  48.6256725  76.6954093  54.4537995  49.5696742  76.8520264  54.4775734
  48.4990436  76.1079340  53.7087688   8.7575728  39.4011950  21.8347287
   9.3081737  38.6200976  21.8891263   7.8983259  39.0707564  21.5725493
  76.7954142  34.7177625  57.9129076  76.5541352  33.7961555  57.8198624
  76.0111631  35.1359653  58.2682753  18.9991939  33.1382561  49.5406914
  18.9352798  33.9448237  50.0521564  19.9371302  32.9503775  49.5059299
  67.0918469  18.3987734  49.3970737  66.1960677  18.6929009  49.5623002
  67.1471147  18.3227513  48.4444985  79.9176301  24.1293907  56.8596697
  79.7068150  23.4382772  57.4874830  79.5021768  24.9136233  57.2182941
  81.0524638  16.3474965  17.8822923  81.8499679  15.8884275  18.1458724
  80.4321511  15.6491601  17.6730800  21.1002088  28.0138946  16.2650561
  21.0995698  27.9009676  17.2155702  21.8836164  28.5339952  16.0861778
  73.8515107   3.1005595  57.5353143  74.0321104   3.9306424  57.0942066
  74.4897381   2.4897120  57.1668539  69.6919323  20.4240417  12.7138054
  70.4052580  21.0028791  12.9827738  70.0767387  19.5476937  12.7268565
  67.3450613  68.5215998   2.1315904  67.6745224  67.7584982   2.6063165
  68.0484056  68.7468815   1.5226665  82.2217018  47.0265007   3.7484854
  81.4427490  46.8008280   4.2569494  82.5745274  46.1834288   3.4639293
  12.0055389   9.7694862  48.4454584  12.2798610   9.3171948  49.2432117
  11.9708705   9.0820688  47.7802610  83.7137079  45.4438400  12.2142768
  83.2428380  44.6106911  12.1949911  84.6099517  45.2182531  11.9650996
  27.0113181  73.8502340  68.5539649  27.1036241  74.0227585  69.4909530
  26.2700937  74.3916969  68.2826089   2.4634404  48.7304783   2.5287193
   2.2624126  48.1872272   3.2907560   1.6302425  49.1440010   2.3028634
  83.7279440  21.0535717  33.1920815  83.7932765  20.5612445  34.0103555
  84.5897916  20.9593511  32.7864051  78.2375861  74.5278454  22.0187545
  78.8881941  74.9872684  22.5496721  78.1678707  75.0506449  21.2199712
  40.5275106  16.9846547  49.6657991  40.8498621  16.2084675  49.2077017
  41.2880564  17.5632179  49.7211456  29.5658135  35.9524608  31.6139936
  30.4608464  35.8560872  31.2886333  29.4532490  35.2240658  32.2247338
   5.2177912  17.3523867   7.2252923   6.1501276  17.2364438   7.0421588
   5.1757401  17.4990070   8.1702608  76.7326776  78.5772135  56.8556356
  76.6917125  79.4463211  56.4566278  75.8662836  78.4500554  57.2421932
  21.9994617  60.9659433  13.5076749  22.1906185  60.4920816  12.6982629
  22.4941278  61.7817402  13.4301460  27.6476550  29.1624165  11.4090085
  27.7626848  28.6938167  12.2356975  27.5074530  30.0733185  11.6675282
   9.2245239  37.9663539  32.3351908   9.2790246  38.8289642  31.9238949
   8.4245491  38.0011868  32.8596520  68.9840583  10.5955575  55.4679904
  69.4501368  11.4306948  55.5073044  68.1901351  10.7876084  54.9689564
  82.7856882  49.8360872  11.5069079  82.2527031  49.0412951  11.4852989
  83.6822028  49.5202684  11.6198373  82.2465087  65.5991888  32.0742941
  82.1235878  66.4844131  32.4170732  81.9108192  65.0265408  32.7639461
  32.3296475  29.6397758  16.9963729  31.7388916  29.7051001  16.2460589
  33.0889106  30.1680851  16.7501187  62.1974991  67.1197815   3.8568169
  63.0724792  67.2344608   4.2276129  61.7168693  67.9007919   4.1311330
  37.6476336  34.9778962  20.7759047  38.0450249  35.6298923  21.3531494
  36.9391274  35.4476428  20.3359175  26.3697401  71.3322000  59.3523094
  25.6615577  70.7600145  59.6477959  27.1472580  70.7739405  59.3588576
  42.5181285  68.0826087  41.9371986  42.3545066  67.4067862  42.5950146
  41.9064561  68.7849540  42.1581078  60.8872105  52.2219801  27.2077823
  60.8160735  52.6572943  26.3582683  61.3633300  51.4124250  27.0229506
  32.2428966  30.7898974  22.2956133  32.4489212  31.5701509  21.7808414
  32.8397012  30.8314562  23.0428267  24.8111582  36.0060263  37.6587296
  24.6926117  36.2701559  36.7463636  25.5227327  36.5608644  37.9781795
  18.5328114  27.0166683  16.2524474  19.2361617  27.6494789  16.1072505
  17.8801572  27.2265100  15.5844343  26.9569230  11.6665161  23.5832858
  26.0015559  11.6357040  23.6338472  27.2315502  11.9960833  24.4389725
  24.5236850  28.4533501  27.2113085  23.5884595  28.2920456  27.3360801
  24.5609617  29.1594696  26.5661430  34.7999358  26.1179256   8.3074415
  34.0701795  25.8394551   7.7541411  34.4620919  26.0519147   9.2006022
  19.8723447  47.9334354  10.2748942  20.1316833  47.4366999   9.4988614
  20.0820398  48.8420391  10.0588012  10.3753979  60.5786042  60.8279452
  10.7772357  59.7113304  60.8788726  11.0363752  61.1241727  60.4016874
  29.7417543  62.8696255  60.4229966  28.9499435  62.6818971  60.9270063
  30.4535866  62.7947669  61.0585454   2.4631383  17.4468875  11.1390626
   2.8935480  16.6335881  11.4027357   1.7347942  17.5422943  11.7527759
  79.2860062  69.7224121  59.8362258  78.4924061  69.8875956  59.3271611
  79.7204763  70.5738978  59.8855648  79.6636892  31.0177422  34.7942042
  80.3888036  31.1221862  35.4102659  80.0712098  30.6685185  34.0016127
  37.4037933  44.4958878   9.3523628  37.3490191  44.2871857   8.4197986
  37.2241020  43.6661291   9.7944504  34.2135477  30.3568983  47.6416063
  34.1016769  29.6397805  47.0175409  34.6006417  29.9442887  48.4137106
  10.7243764  43.7577486  17.2601688  10.9645557  44.6829557  17.2098303
  10.1386273  43.6214924  16.5154767  42.8815174  18.8600934  13.6766779
  43.2077503  18.1583190  14.2399871  42.6432419  19.5620751  14.2822170
  79.9513204  34.2585945  16.6916418  80.7117082  34.6654415  17.1069944
  80.3227485  33.5991025  16.1056864   5.2373123  23.5823917  18.4808445
   5.7370299  23.0090046  19.0619993   5.8630687  23.8423467  17.8047645
  12.7249086   4.5548767  13.4716356  11.9318867   5.0895256  13.4329331
  13.1680346   4.7231427  12.6400363  60.9211923  43.0095816  17.5720799
  61.3061215  43.2807064  18.4054792  59.9780012  43.0021095  17.7350605
  67.4141968  49.9391127  45.2423382  67.6509131  49.4570541  44.4499922
  68.0760862  50.6271887  45.3108072   1.3812451  46.4382458   4.8452485
   1.0980874  47.1085930   5.4670936   1.4480713  45.6393337   5.3682232
  38.6279745  62.4782614  58.9948854  38.7714977  62.7513365  58.0887589
  38.5324497  61.5270905  58.9461181   7.6490736  49.2548323  38.5637593
   8.0857480  50.0537920  38.2684422   6.7375004  49.3663597  38.2938910
  36.0526640  50.7541518  57.3422608  37.0086903  50.7434075  57.3884067
  35.7708246  50.2279924  58.0905614  26.9391775  23.6423230  53.9340973
  26.1634946  23.8156152  54.4675016  27.0844769  24.4559479  53.4512615
  40.6080610  71.4739732  56.4658830  39.9248857  71.2963657  57.1123800
  41.3689179  71.7320614  56.9861898  12.1741855  24.9058652  24.9892116
  12.1682394  24.1217566  24.4402385  12.9567075  25.3841829  24.7151637
  59.6376974  73.8990884  42.7695713  59.9702818  73.1456403  42.2817836
  60.4127938  74.2758207  43.1861410  34.9266267  51.5405941  16.3333750
  35.2883673  51.4609623  15.4507458  35.1753974  52.4207354  16.6156733
  76.8145350  25.8085749  62.1321765  76.8782107  26.7584536  62.0326504
  76.6313700  25.6769631  63.0624244  43.3522320  28.1113672  12.2525346
  44.3035984  28.1444860  12.1523452  43.0581427  28.9973974  12.0411289
  11.8237889  15.6671727   1.5909339  12.1229565  14.7945762   1.3353848
  12.6135802  16.1096096   1.9019186  66.1506271  55.6165123  18.0895209
  65.8301497  55.4602814  17.2011971  66.3963747  54.7492266  18.4114766
  45.4905111  44.6343662  64.7872958  45.3680486  43.8418187  65.3098885
  45.1037080  44.4231258  63.9375940  54.6220779  27.0623279  25.5802059
  54.8588276  27.5503016  24.7914958  53.7007713  27.2765851  25.7268929
  26.5427351  47.6592350  40.7301474  26.3006616  48.2482100  40.0154829
  25.7669210  47.1151018  40.8652925  11.8548432   9.8930285  67.1524930
  11.8709221  10.5278561  66.4362735  11.4936009  10.3780911  67.8944177
  19.1678607  26.1648822  18.6392558  18.3420992  26.3297892  19.0943992
  18.9145076  26.0236311  17.7270651  37.4215627  76.3164568   6.4964110
  36.7793298  75.6068182   6.5100044  37.8444743  76.2732124   7.3540270
  45.6772804   8.4843332   0.2398826  46.4604664   8.7752348   0.7070327
  46.0122538   7.9462403  -0.4773906   7.7473748  39.8110294  11.3337815
   7.0145953  39.5340800  11.8838418   7.5827903  40.7387114  11.1648083
   8.4640753  45.7749748  30.1202750   7.6003331  45.4249907  29.9018931
   8.3040196  46.3659191  30.8560729  46.1343908  60.2639484  22.3648071
  45.5001974  60.7262325  21.8167853  46.1430359  59.3710709  22.0199585
  54.8375082  37.7381277  11.8606806  54.9978352  37.3280144  11.0107780
  53.9983130  38.1864405  11.7557955  69.0929452  39.3878529  52.4686870
  68.6043302  40.0595114  52.9444632  69.7688262  39.8732874  51.9956443
  57.1868229  24.0351248  23.8583040  56.3078737  23.9984608  24.2355871
  57.5966787  23.2124209  24.1255212  38.2886624  16.1759663  20.2434897
  39.1512060  16.5703809  20.1143074  38.2106805  16.0759866  21.1922550
   8.3684486  25.8187008  30.5103016   8.1519830  26.7510748  30.5175567
   9.0701944  25.7407618  29.8639965  31.4002824  73.8098574  58.8742685
  31.3855624  73.0713749  58.2654476  30.4860187  74.0860891  58.9378786
  11.7862058  74.6621466   7.5085521  11.5632749  75.2441502   8.2350534
  12.6881826  74.8921728   7.2854859   0.3159729  28.1680560  17.2714639
   0.5319853  27.4186230  17.8263688  -0.6403445  28.1678987  17.2303712
  72.1733791  62.8417043  59.5227060  72.1571619  61.8858008  59.4755981
  72.4070389  63.0328135  60.4310623  17.5139511  14.6534026   6.1256558
  17.0171678  15.4671621   6.0406053  18.4265733  14.9163508   6.0064453
  16.4637852  52.1851349  31.0392022  16.3112938  53.0077648  30.5741715
  15.9227991  52.2509956  31.8261123  58.4166908  34.5507145  14.1320336
  57.6698112  34.7015882  13.5526884  58.7979460  35.4189825  14.2623734
  79.8721997  45.0512908  63.0749604  79.3036429  44.3556712  62.7446756
  80.5313555  44.5941374  63.5972247  26.7160726  49.9177361  11.0921788
  26.1578608  49.2123795  11.4194417  26.9376206  49.6531868  10.1993394
  15.8153677  38.6477876  18.9026546  16.4411914  38.1499529  18.3765972
  14.9610209  38.2909298  18.6598074  55.2696371  66.7928362  19.2173755
  55.7744694  67.2272491  19.9048781  55.8973932  66.6595221  18.5071790
  70.1727511  44.2344141   8.3800638  70.5609573  44.2628050   9.2545474
  69.3207289  44.6584702   8.4823638  35.1664400  32.6289701  33.0529070
  36.0809374  32.8445816  32.8700495  35.0366974  32.8893447  33.9648318
  84.1483420  35.2500367  26.2721825  83.7985716  35.1848483  27.1607995
  85.0849186  35.0784564  26.3702464  32.1425080  44.6507359  16.4995348
  32.7381968  45.2077532  17.0006537  31.2801385  44.8201990  16.8787897
  23.8277149  57.7204609  12.5813878  23.2616210  57.6386642  13.3489013
  23.5790658  58.5571289  12.1884561  49.3375520   9.5197556  64.6316353
  49.9348257   9.1892550  65.3026519  49.8426614  10.1891205  64.1700653
  78.9446635  26.2006927  58.2230473  79.2797644  26.4738441  59.0770578
  79.1766603  26.9185829  57.6339483  57.0455313  46.5888643  16.8212008
  57.5075054  47.4271345  16.8104172  56.1376381  46.8130875  16.6170406
  28.7865663  52.9738760   3.1472594  29.4708276  52.4048090   2.7948675
  28.8990951  52.9242277   4.0965241  64.4867516  30.2016521  50.8235359
  63.7166405  30.7360649  50.6297207  64.7060394  29.7861910  49.9895477
  34.2953467  37.1468663  10.0960541  34.9767947  36.5011382  10.2828538
  33.4740615  36.6715813  10.2218461  75.1782144  68.3372498  29.2684388
  74.3460251  68.3500910  28.7956500  75.7314075  67.7412701  28.7634444
  18.3952212  53.6400414   3.7391016  19.0677047  54.1889524   3.3357462
  17.7736652  54.2619085   4.1174915  10.1671667  72.3960666  51.3331578
  10.8945197  72.7874951  50.8494494   9.4435269  73.0118160  51.2172613
  14.7912598  54.0445471  15.9469521  14.8992407  54.2169619  15.0116205
  14.6801269  53.0955553  16.0043025  28.1355572  77.7549314  21.0436678
  27.9644489  77.9899502  20.1316810  27.2819519  77.8197432  21.4719105
   4.2871836  55.8079100  54.7408152   5.2207428  55.9455824  54.9012756
   4.1620469  56.0581017  53.8254070  13.7125006  19.3299792  46.6083202
  13.6846199  20.2143786  46.2432251  13.4314957  18.7648175  45.8886943
   1.7116585  28.9233732   3.5482165   1.1736257  28.7262797   4.3149671
   1.1045681  28.8718247   2.8099647   1.4878200  57.3213482  67.2170019
   0.6930807  57.1463966  66.7130041   1.2038234  57.9119349  67.9147053
   4.5284477   1.7088625  43.4703693   4.0539995   2.4835703  43.1687674
   4.6877923   1.2008355  42.6749120  31.2291527  24.3399763  42.6411581
  31.3607907  23.4146023  42.8475189  32.0856810  24.7419143  42.7861977
  15.6124985  28.3503270  46.4700842  15.4772854  27.4321175  46.7042732
  15.3881049  28.3960104  45.5406809  27.1770310  43.5138798  13.3596647
  27.3456192  42.6196432  13.6565626  26.4186788  43.7969112  13.8705730
  60.3558111  75.6379700  34.7908020  59.5385599  75.5711651  35.2846313
  60.0778532  75.7512379  33.8818765   8.3029228  42.0980358  22.1554947
   8.1537741  41.2246037  21.7934108   8.1782907  41.9908810  23.0984783
  26.6962600  38.9816380  39.4417310  25.8526468  38.5834098  39.6561122
  27.1587706  39.0280151  40.2784920  70.1148404  30.8415794  43.6419582
  69.7176613  29.9849176  43.7988377  70.0264956  31.3029003  44.4759893
  26.0868309  50.5759887  54.1534743  26.3028609  51.4588349  53.8532302
  26.9342364  50.1738487  54.3443117  20.7634544  33.8702202   5.6931883
  20.4609823  34.7333765   5.4108715  20.8957767  33.3846688   4.8789626
  15.1821208  57.1724415  39.2017555  14.4721341  56.5928650  39.4778657
  15.1574850  57.8963184  39.8275590  60.6667519  25.3270221  37.7681589
  61.0276413  25.1125097  36.9079399  59.7567701  25.5668497  37.5930977
  20.9491387  12.5440476  49.9631939  20.8111515  13.3481047  50.4638765
  21.3000574  11.9221852  50.6006703  24.6495509  50.0268888   6.9765252
  25.2995610  49.4718742   7.4074292  25.1583815  50.7476568   6.6052866
  70.0099863  12.1682048  43.2481718  69.2943252  12.8038311  43.2545137
  70.4557325  12.3010433  44.0847683   6.3881624  40.3200340  18.9646304
   5.5156100  40.6515884  18.7525964   6.3135964  40.0093603  19.8669350
  69.4367773  59.4945543  55.6536708  69.5812780  59.9733309  54.8375056
  68.5321981  59.6964507  55.8928511  24.2170015  25.0947612  41.0279655
  23.9090002  24.2667048  40.6596088  23.9552397  25.0597136  41.9480133
  81.9955508  19.5047638  60.8216295  81.6255514  20.3259680  61.1456064
  82.8810159  19.4814084  61.1844483  34.9575109  60.2081923  45.4404745
  34.5431609  60.5888777  46.2148294  35.8924711  60.3717499  45.5642900
   5.8395481   3.6191493   3.7387496   6.4747363   3.8620347   4.4123775
   5.1095259   3.2358849   4.2249677  72.8224541  64.4728327   8.2276070
  73.7724520  64.4581795   8.1113213  72.6403655  65.3343153   8.6030042
   5.6894279  56.9222975   9.5997894   6.0603642  56.2597370  10.1825809
   5.0674164  57.4015713  10.1471782  60.3973992  15.6935284  61.3522569
  59.9563546  14.8974249  61.6487822  59.8628176  16.4072583  61.7001769
  65.1223189  51.4920788  69.8284415  65.4786736  50.6062584  69.7608764
  65.1452524  51.8284480  68.9325834  60.6420755   0.5361318  41.4195108
  61.0477209   0.1026876  40.6686401  61.0025454   1.4227858  41.4077520
  54.7881317  54.4449091  17.4328983  54.8897696  54.6940708  16.5143013
  54.0839672  53.7965536  17.4287045  32.1077061  22.2084355   8.3402443
  32.9781294  21.8854094   8.5731512  32.0761561  23.0940461   8.7020850
  69.0284110  56.0611343  17.7699053  69.0718020  56.3444614  18.6831820
  68.3004225  55.4400873  17.7461290  49.5051241  29.3844986  32.6244020
  49.5885181  29.8858619  33.4355187  48.6503315  28.9591503  32.6925564
  32.5067210  65.5408955  29.6041346  32.5242066  64.6057034  29.8074460
  31.8486667  65.6236982  28.9139605  27.4410009  43.4920692  36.6212964
  27.6296377  42.5608063  36.7370605  27.4054480  43.8417292  37.5116372
   7.5809216  35.8479810   8.3639711   7.8556907  35.0950480   8.8872540
   6.6244805  35.8240438   8.3936256  57.1231794  30.7945061   9.6776968
  56.3377619  30.7559013  10.2234602  57.8180742  31.0670352  10.2769339
  35.7871556  58.1482315   7.4498302  36.4156222  58.7696075   7.8174657
  35.7686472  57.4262905   8.0780733  67.6899726  61.3977580  54.2935905
  67.2727925  62.0856218  54.8122761  67.3202331  61.5013771  53.4167859
  55.0691582   6.9489306  34.9449706  54.1359879   6.7721993  34.8258495
  55.1789571   7.8568596  34.6624088  24.8632407  40.3187227   8.4107620
  25.3521991  39.5489883   8.7017345  24.7337532  40.1796722   7.4726099
  60.1979376   9.0445063  55.9478388  60.1043628   9.4627450  56.8037293
  60.1696111   8.1062768  56.1353550   5.4024941  32.1920037  15.7281137
   4.6069193  31.7671895  16.0487783   5.5442256  32.9215765  16.3313282
  42.1403980   6.0307479  15.3000247  42.9448986   5.5199271  15.3898883
  41.6096020   5.5340469  14.6773100  16.5015209  47.4348927   5.0358528
  15.6240916  47.0700026   4.9209380  17.0067310  46.7240667   5.4304713
  62.8546278  10.0026438  58.1482980  62.0099000  10.4402134  58.2541380
  63.4034989  10.3708241  58.8406977  13.0071533  63.6896658   9.6032691
  13.4633493  64.2581272   8.9828134  12.4171507  63.1670380   9.0601373
  35.7153153  21.1553335  13.5812104  35.9900069  22.0352197  13.8392353
  34.8271680  21.2710714  13.2435262  53.7303257  42.9381609  11.7428386
  54.2644978  42.4830961  12.3938417  54.3021250  43.6262178  11.4024591
  80.0600258  20.3873847  47.2519073  80.0673048  19.6293709  46.6674409
  80.5177776  20.0884173  48.0376014  12.7761042  50.1919270  51.4480925
  12.4533403  49.7375298  52.2262812  12.0577180  50.1288128  50.8186722
   0.1750499  65.5216841  66.1989981   0.2864915  66.3101225  66.7302019
   0.4958850  64.8112755  66.7545295  18.7286019  20.5047202  10.6790996
  18.3148170  21.0760236  10.0320852  19.6315932  20.4131031  10.3750515
  81.6105539  53.6947887  68.7058620  80.8661491  54.2724352  68.5372858
  81.2169392  52.8866653  69.0348530  17.3067713  38.4942341  21.2206888
  16.6619265  38.7226534  20.5511880  17.3044360  39.2405820  21.8200135
   2.6667991   6.1649487  66.1276248   2.7315297   6.1439917  65.1728464
   2.9963174   5.3113816  66.4088235   9.0885568  49.2535877  25.9434891
   9.0929294  48.4905672  25.3655505   8.9255816  48.8929653  26.8150520
   1.8500151  35.1993299   6.2799519   1.8673706  34.4795179   6.9106668
   2.3977564  34.8964643   5.5557388  33.2668614  43.7767649  10.7338738
  33.9485741  43.9760590  11.3755763  33.3885264  42.8482342  10.5357337
  47.5384778  57.7653889  55.5607900  47.7174718  56.8429868  55.7434568
  48.3375592  58.0862086  55.1427266  44.4355154  34.9934053   4.7978538
  44.1521025  35.9016156   4.6926880  43.9263725  34.5070100   4.1494521
  62.4952507  53.9827061  37.3621106  62.9770184  53.9398193  38.1881189
  62.1894836  54.8882532  37.3099113  45.2679777  59.2553663  55.9987688
  44.6967649  59.1915941  55.2333403  45.9447241  58.5953808  55.8482456
   2.3397263  21.7853301   6.9629729   3.1964215  21.7321818   7.3866248
   2.4407633  21.2829440   6.1544961  17.2560730  11.1556742  58.3750949
  16.8195858  11.8922303  58.8031099  16.8964377  10.3805850  58.8065276
  33.9181828  74.7943878  25.8727193  33.0496907  74.4781828  25.6237841
  33.9894128  74.5897770  26.8050766  36.1626530  67.2004175   0.4647661
  36.9519758  66.6736126   0.5899836  35.9779406  67.1361256  -0.4722394
  48.9552546  38.7842274  16.6896605  48.5298777  38.8940072  15.8392286
  48.5324383  38.0150008  17.0714331  66.2342085  53.3348703  38.0678487
  65.6082083  53.4567547  38.7816429  66.0766269  52.4420166  37.7609181
  78.3789412  74.3198539   5.4811275  79.0038697  73.6134387   5.3178138
  78.2853261  74.3414057   6.4334953  48.6124453  72.4287751   8.5279026
  48.9000520  71.5173724   8.5813418  47.7499303  72.4324801   8.9429751
  41.6476154  47.7597046   7.4701762  41.6328192  47.2626209   8.2880533
  42.1041250  48.5714102   7.6914549  12.6369380  29.0053105  19.3559694
  11.7610072  29.3359470  19.1568387  13.0952548  29.7548842  19.7358680
  12.4690190  48.7004492  64.5904777  13.2666626  49.2295954  64.5904926
  11.9168463  49.0995238  65.2628446  18.0144730   8.9043162  68.7775049
  17.3929015   8.8875124  69.5052408  18.6629238   9.5610020  69.0314874
  45.1298189  75.8521891  16.0426235  45.6466722  76.2994623  16.7127252
  45.0658607  74.9488831  16.3527560  21.8444490  66.3108921  12.6007509
  21.3467169  66.6140461  11.8414128  21.4751077  66.7961979  13.3385170
  55.3557143   1.0001033   3.3221933  56.1115250   0.6508105   2.8499895
  54.6895179   0.3169291   3.2467324   7.1407183  12.4866813  31.0828876
   7.7946766  13.1754916  30.9640956   7.5326165  11.8920844  31.7225003
  66.0608912  49.9743128  20.1065183  65.1834631  49.9549389  19.7244489
  66.6054058  49.4972944  19.4802701   9.4557005  62.7056551  52.6721621
  10.2259326  62.9335546  53.1927729   8.8982809  63.4825468  52.7163982
  59.3344069  77.2149134  21.4648223  59.9105024  77.6903439  22.0634151
  58.6439943  76.8623543  22.0263052  11.2964788   6.2308810  60.4158089
  10.7262507   5.4621193  60.4071150  11.2876096   6.5253804  61.3265363
  71.3130331  64.6727085  18.0869699  71.5740490  64.4829798  18.9881372
  70.6927443  65.3975630  18.1648362  18.6980247  50.8600712  29.9971128
  19.3138981  51.0092974  30.7145143  17.9329312  51.3884449  30.2244496
  17.3544800  68.6686039   8.4688991  17.0579791  67.7942276   8.2163417
  17.1326149  68.7378311   9.3974543  15.4021159  25.4527829  59.7710452
  16.0857382  26.1201737  59.8300800  15.7579747  24.7026227  60.2473358
  12.5965348   3.5831044  69.4393058  12.5905791   4.0146611  68.5849312
  13.3739653   3.9295886  69.8772347  33.2140470  68.7715387  15.4469645
  33.4278941  67.8540754  15.6165600  32.4187088  68.7377882  14.9154270
  49.2478037  28.5338831  16.3465405  48.6341524  27.8523493  16.0723603
  50.0586128  28.3272481  15.8816469  12.6888981  58.8081667  60.9026030
  12.9098931  58.0334685  60.3856549  12.8438464  58.5432837  61.8092791
  10.5461254   6.0642693  66.9736356  10.3399363   6.8485901  66.4651481
  11.2844720   6.3234589  67.5249024  19.7489348  31.5808079  40.0688491
  18.8873616  31.2927458  39.7672806  20.0280419  30.9004424  40.6815753
  16.4866650  24.6380687  27.0294261  16.4101279  24.2458200  26.1596465
  16.8984985  23.9585805  27.5632048  84.4055939  36.2791872  16.9906402
  84.2210865  35.3405571  16.9565034  84.7038269  36.4969325  16.1075342
  23.2165170  62.4311495  48.9207077  22.7104521  61.8208742  49.4570780
  22.7673578  62.4363852  48.0754519  64.2978907  53.3167791  46.6752529
  64.8269320  52.6879549  47.1660995  63.8462353  53.8264465  47.3479176
  69.5568332   6.9481890   8.3003014  70.0611314   7.4011081   8.9761597
  68.6505613   7.2108310   8.4613150  21.8524122  41.9000387  18.7274408
  22.4428177  42.3931885  18.1578302  22.0953369  42.1679688  19.6136868
  70.3937308  63.7421057  57.4542746  71.0645203  63.7639449  58.1367669
  70.7115988  63.0929873  56.8267104  62.6706696  16.7390037  15.8217239
  62.4292564  15.8127487  15.8195460  62.5727510  17.0098913  16.7345560
  78.5622415   1.4654296  49.5132399  79.4221506   1.8490641  49.6853209
  78.7541446   0.6123679  49.1237783  39.7998905  76.0832691  11.3377500
  40.5490160  76.0740471  11.9335365  39.0698576  76.3898325  11.8756151
   8.6704230  42.7457666   3.5969746   9.5987970  42.6678610   3.3772379
   8.6461252  43.3812904   4.3123418  82.8987543  21.5156529  56.7836187
  83.2177774  21.5485976  57.6854882  83.4336583  20.8413193  56.3648293
  71.9460067   0.4573100  22.1230459  71.1352167   0.9645026  22.0830441
  72.6412735   1.1147063  22.0973587  45.4634038   0.3100369  56.8408987
  44.5909301  -0.0798252  56.7858789  45.6154756   0.4253933  57.7788756
  65.4379329   4.7339862  38.6752868  66.0416755   4.5915931  37.9462767
  65.1262054   3.8579982  38.9026976   3.7715426  10.1016972  69.2979303
   3.5081783  10.1808760  68.3810874   4.2310825  10.9198926  69.4866412
   6.4297858  41.2315104  50.3873966   5.8588925  41.4021418  51.1365292
   7.2419467  41.6935847  50.5950448  53.8752413  58.8988352  11.8740702
  54.1138887  59.2139053  11.0022855  52.9298258  58.7567234  11.8268859
  69.5517651  25.1188300  57.5534019  68.9711491  25.7867548  57.1887228
  69.8425845  24.6138022  56.7940590  31.8274069  63.2462740  36.4301276
  31.5580797  62.3282337  36.4600921  32.4647450  63.3321667  37.1391082
  44.8162699  42.0703173  15.9249806  45.2662373  42.6349163  15.2965009
  44.0000248  42.5310135  16.1192405  18.9217480   7.2925799  20.4146838
  19.6459635   7.8200858  20.0778270  19.3149432   6.7592948  21.1055040
  21.6592368  10.1438754  16.8483710  22.2935208   9.5505755  16.4459729
  21.9552525  11.0183089  16.5954351  52.9974127  52.4289179  17.2871447
  52.2191191  52.9534483  17.0991075  52.8147221  51.5779495  16.8887615
  32.7896476  26.1937332  13.3940649  32.1978879  26.6129160  14.0188360
  33.6643147  26.4618397  13.6756837  39.9604249  58.6021948   7.2462046
  39.4267344  57.9090071   7.6346642  40.4714918  58.1596899   6.5685391
  49.8081970  60.5136633  35.5234671  50.0708485  60.9540749  36.3317275
  49.0201187  60.9786797  35.2425313  30.4577484  18.0438445  55.5974505
  30.7461777  18.5542653  56.3540957  30.1754418  18.6995099  54.9597690
  46.3070044   2.8116553  10.7495737  46.3066098   3.5246795  10.1109624
  45.4543826   2.8751223  11.1799669  35.8384132  79.1711092   0.5197351
  36.4100051  79.2124653  -0.2469497  34.9522924  79.2158508   0.1605425
  60.9668112  51.2960434  19.5168221  60.8518219  50.3761911  19.2783189
  60.6114817  51.7825603  18.7729990  73.8630463  75.4294348  10.6214225
  74.2812086  76.0357285  10.0100458  73.4205485  74.7916937  10.0613213
  58.4262037  79.8210526  34.9693990  59.2938900  80.1725864  35.1688337
  57.8179884  80.4485893  35.3599119  32.2073102  55.7180262   1.9832377
  31.4082122  56.1110926   2.3341976  32.7274966  56.4624166   1.6807118
  19.5212593  10.3053687  61.2950430  20.0058642   9.7243617  61.8814072
  20.1987734  10.8025811  60.8367947  35.1546288  47.2463942   5.1403874
  35.5801558  46.4272833   4.8869783  35.8780909  47.8388691   5.3448588
  18.4573829  41.1609936   9.0646029  18.6444747  40.2430725   8.8680035
  18.3815062  41.1910248  10.0183177  39.9758983  41.5191126  18.5157168
  39.1397691  41.9781542  18.4356856  39.9453330  40.8455515  17.8363001
  32.7368641  79.6372223  10.8002245  33.2802939  79.5409775  11.5823066
  33.3143473  79.3956280  10.0760865  58.4837157  74.0183835  68.3457055
  59.1188342  73.6847501  68.9793809  57.8079183  74.4348936  68.8805412
  38.4821486  77.0494890  46.3950396  39.3290901  77.3858166  46.6879654
  38.1086016  76.6323471  47.1713686  22.4254179  62.9218197   0.3792435
  22.4486446  61.9651175   0.3588924  23.0547190  63.1909704  -0.2899108
  48.4031439  78.2382250  38.3076906  48.1251240  78.9311171  37.7086592
  48.6359549  77.5065899  37.7360821  13.3462151   3.8010638  24.7788548
  13.2744177   3.1252806  24.1047716  12.4406155   4.0424388  24.9734330
  70.2655935  46.9913483  32.3306441  70.3243923  46.0377884  32.3897862
  69.9367666  47.1566963  31.4470363  57.4900866  22.7519226  20.8955979
  58.4029388  22.4795938  20.8019376  57.4119473  23.0166149  21.8121481
  19.6890712  47.0622540  16.5871131  20.2317977  46.3099003  16.8230021
  19.1817987  46.7643023  15.8320415  21.4547253  30.3197789   6.6191739
  21.0541940  30.8347511   7.3196101  22.1323657  30.8917761   6.2588185
  40.0852194  31.0705349  37.2241721  40.5129996  31.7806647  37.7026639
  39.6073332  31.5096543  36.5205869  12.9168046  59.6869659  20.2804852
  12.6540673  60.2983952  19.5924771  12.1395099  59.1495657  20.4329562
  36.9291806  75.3842115  16.9325209  36.7597556  74.6926928  17.5723100
  37.4753881  76.0153866  17.4010360  53.1066656  72.6906919  23.3859086
  53.7049198  73.0280781  22.7192044  53.3055878  73.2047987  24.1684413
   5.1218509  43.9422178   1.5020828   6.0243033  43.8635445   1.8113014
   4.6506595  44.3364286   2.2361207  36.3872933  54.0488911  18.1065750
  36.4713764  54.2725992  17.1796894  35.8218312  54.7317266  18.4674311
  17.8107968  12.8219674  38.7713561  17.2468605  12.1528218  39.1592345
  17.5825348  13.6266968  39.2366872  35.8854079  71.4593744  20.5560112
  35.3567696  72.2061586  20.8372331  35.6002498  70.7388878  21.1179852
  39.1786909  66.4870501  42.2396612  38.7249565  66.3005924  43.0616045
  38.8178682  67.3255968  41.9517756  25.4646516  73.2183695  12.3091638
  26.0197377  72.4386072  12.3000765  25.8292985  73.7799311  11.6251254
   5.0607187  68.3138227  14.2741251   5.4229283  68.9641333  13.6723495
   4.2650807  68.7212372  14.6164763  30.8672810  45.1458549  10.4912496
  30.4500413  44.5832157   9.8388839  31.6877937  44.7003126  10.7021594
  10.3743547  58.6625500  30.0591698   9.7897595  59.2260952  30.5660191
   9.8540919  57.8800602  29.8768082  51.1032495  10.7863562   8.8530689
  50.3665337  10.6414264   8.2593733  50.9352026  10.2001422   9.5908666
  31.1087370  12.3254912  15.0903416  31.0492477  12.0040458  14.1906941
  32.0453078  12.3132556  15.2876163  24.0733632   0.5463736  26.9592476
  23.7364205  -0.3147084  26.7117858  24.9404152   0.3685897  27.3237419
  14.8587096  66.5289307  34.2548895  14.3394244  67.1698380  34.7404957
  15.7669556  66.7821503  34.4198155  46.1705274  45.5535941  58.0207071
  46.4535994  45.7360332  58.9167080  45.2202875  45.6668328  58.0419872
  78.8743941  22.1061585  58.9751861  79.6943847  21.6434643  58.8026688
  78.4532157  21.5970156  59.6677289  69.1872987  19.6933787   8.2829875
  68.9134750  19.4502108   9.1673619  68.4276805  20.1423686   7.9120129
  57.1388054  47.1826315  21.8864775  57.9971170  47.0036364  21.5024281
  56.8109655  46.3232040  22.1513081  82.3353664  47.8683398  69.2956163
  82.5375740  48.7397501  69.6361782  81.4011041  47.9023478  69.0901208
  12.3503685  60.1248121  35.3880310  12.4233055  60.6607389  36.1777759
  11.9364262  60.7006836  34.7451758  50.9218893  12.7237265  14.0724754
  51.2736449  11.8579619  13.8652241  51.6006074  13.3335536  13.7831855
  37.5939894  60.4364109  28.8412428  36.9625354  60.5517197  28.1311679
  37.5456619  59.5048237  29.0558100  60.0220823  24.9053478  13.7320793
  60.2803373  25.5689740  14.3717170  59.6578121  24.1939449  14.2588139
  17.6360446  60.2853994  64.4933495  16.7682677  59.8815696  64.5042482
  17.7053624  60.7269983  65.3397635   5.9756484  76.7168484  13.0109036
   6.2976160  76.3743506  12.1770775   6.6893783  76.5551073  13.6278820
  66.8522835  35.5143785  24.9669170  67.8087759  35.4848027  24.9449825
  66.6178703  35.0776839  25.7858062  51.8582726  68.2352114   2.6252529
  51.3072681  67.5822210   2.1937132  51.2409782  68.8847017   2.9619139
  71.5489721  60.4486704  30.7847548  71.6510153  60.5659533  29.8402619
  71.6892624  61.3218069  31.1510658  66.3295221  75.0938940  42.5042820
  65.8858347  75.9420347  42.4995136  66.4583111  74.8961735  43.4319448
  20.5635348   6.9065068  67.0483491  21.5164032   6.8172953  67.0306021
  20.4111996   7.8514454  67.0372653  41.2209415  38.8595486  28.8172960
  41.8316698  38.1562877  28.5966921  40.5368185  38.8006282  28.1504059
  56.7978287  49.5362759  18.9984000  56.0419178  48.9665508  19.1406727
  56.4302635  50.3285456  18.6066854  73.0068333  79.0860133  67.2069568
  72.5461132  79.9010257  67.0076377  72.3435862  78.4039669  67.1013707
  84.4129953   4.9137919  20.4108644  85.1318988   5.1781218  19.8368037
  83.6221132   5.1836055  19.9440336  20.5144873  12.2652934  66.3662967
  20.0675955  12.0011399  65.5620942  20.1665249  13.1359885  66.5587449
  63.8174772  75.3546524  20.6464291  63.8131285  75.6150675  19.7253454
  63.9362526  76.1742067  21.1264825  33.8808957  78.4289954  65.8030102
  33.6563626  79.3546031  65.7078100  33.0965367  77.9615042  65.5158386
  16.8761706  39.5883799  31.7310691  16.7951500  38.6958528  32.0673180
  16.5536916  39.5355701  30.8313727  38.6159301  52.3931551  12.9302275
  39.1835093  52.4683094  13.6973238  39.1945648  52.5620794  12.1866715
  38.4759450  56.6825962  13.3561146  37.9523087  55.9055614  13.1605184
  38.5228205  57.1552467  12.5250685   8.7652746  22.9550765  67.7349621
   8.6924305  23.5384295  66.9795624   8.2144490  22.2046540  67.5120673
  42.0536900  43.5568714  64.3874931  42.8184509  43.3863878  63.8376713
  42.2569609  44.3798637  64.8320103   7.1991670  68.5416555  31.6370630
   7.0441079  68.3856869  30.7054734   7.6502872  67.7536535  31.9400048
  26.8225670  55.7890987   8.9313751  25.9209156  55.9301758   9.2200905
  26.9048190  54.8382044   8.8588136  77.3028461   6.3277838  57.6557956
  78.0519859   5.9197686  58.0900142  77.2259919   5.8622525  56.8229661
  48.9083242  50.2954817   4.0992036  48.9030790  50.9062147   3.3621782
  49.7035360  49.7773123   3.9752251  25.1362896  65.4967594  33.3737087
  24.9490142  64.6123171  33.6882257  24.4031429  65.7053185  32.7947164
  31.5834847   0.6055615  47.0181308  32.5182286   0.4335616  47.1317014
  31.2592640  -0.1485946  46.5258298  76.5130264  56.7913406  63.5769174
  77.0988256  57.0467429  64.2895475  76.2431795  55.8996300  63.7966118
  16.0579577  23.0216048  66.5322268  15.3273096  22.6866648  67.0520395
  16.6599741  22.2809241  66.4601213  27.8921032  66.3313007  12.1136487
  27.6993060  65.3937340  12.1194541  27.2838902  66.7048502  12.7514327
   7.4833074  32.5720284  64.8910314   7.3773256  31.6493151  65.1225514
   8.0159798  32.5597832  64.0958307  19.9276960  66.1327839  23.0741048
  19.7755730  67.0511818  22.8513026  19.3858325  65.9812593  23.8484788
  57.4061251  73.9226580  15.4051852  56.7297840  74.5998478  15.4197180
  58.2310390  74.4081450  15.3980327  52.2652531  55.2325439  15.2620852
  51.6481829  54.5156479  15.1154065  52.2958136  55.3313351  16.2136829
  15.7846093  37.8305078  38.3880138  15.5125618  37.4830341  37.5386119
  16.6756344  38.1485033  38.2424569  83.8972027  69.6788959  61.3929603
  83.0727560  69.4658928  60.9557549  83.8171560  70.6061749  61.6165170
  57.9670572  26.8718028  18.7207568  58.2677460  26.2189388  18.0886269
  57.2811222  26.4259219  19.2176616  37.5672236  49.7899268  54.0617261
  36.6166964  49.7881434  53.9489267  37.8941813  49.2426798  53.3476922
  42.5473399  72.3989277  60.2290205  43.0201930  72.4815469  61.0571608
  42.0718092  71.5717988  60.3062204  79.6303949   7.7193682  33.7652612
  78.8425932   7.2023623  33.5970211  80.2606735   7.0889609  34.1139174
  43.2695007  76.9085121  11.8464887  44.0615892  76.3718081  11.8743372
  42.5784826  76.3328505  12.1741080  40.1648188  21.3328171  14.8464024
  40.9577036  21.1880827  15.3627467  39.4529152  21.0324383  15.4113817
  69.9803833  37.3735640  59.9261162  69.8867456  36.9152472  60.7612279
  69.0836898  37.5876019  59.6685133  34.9801040  59.0128517  36.6489410
  34.7608781  58.1143713  36.4021516  35.3796744  58.9326239  37.5150466
  67.8981814  15.4660075  22.3274779  68.3671388  15.3314727  23.1510162
  68.4768591  16.0271304  21.8112350  42.7343607  20.5988264   7.6615834
  42.9266453  20.5724764   8.5989004  41.7809200  20.6693554   7.6145661
  49.4276811  71.1444092  15.3895426  49.0929438  70.9724522  16.2696648
  50.2769090  71.5618896  15.5336094  41.8527269  72.4391747  22.1394849
  42.1371222  72.7727985  22.9903936  41.8218660  71.4892101  22.2528338
  45.8304644  77.8337240  35.4639125  46.3950634  78.4947538  35.8645344
  44.9408245  78.1360865  35.6465292  20.8707881  55.2804804   6.4133489
  20.6591439  56.1077023   6.8459433  20.1158476  54.7186470   6.5883917
   0.2403553   0.4257911  46.7501307   0.8830651   0.8135073  46.1561394
  -0.5790750   0.4350226  46.2554789  26.3385764   4.3943284  57.7795050
  26.3354245   4.5821259  58.7180958  25.9615412   3.5173056  57.7094564
  66.7909479  28.0933046  11.8410039  66.0828876  28.7014675  12.0531905
  67.3084593  28.0385566  12.6443791  29.8764110  73.0079842   1.7293850
  30.4622340  72.7265692   1.0266414  30.2258253  73.8544893   2.0079117
  34.1721177  61.0123777  21.1583066  34.4909453  61.5233278  20.4143238
  33.5332346  61.5834379  21.5848637  26.6163588  79.9073124  28.3258986
  26.7196703  80.5928421  28.9859009  26.9665289  80.2931595  27.5229454
  68.4013493  61.5222244  59.5148811  68.9681751  62.0778279  60.0498978
  67.6862723  62.0986442  59.2453632  25.8263770  11.0178778  58.8795314
  26.5181532  11.5002654  59.3322835  25.0138703  11.3472054  59.2637286
  52.6795530  65.5171490  30.7814169  52.8450871  64.9829865  30.0045633
  52.0993662  64.9807739  31.3217115  61.1101961  43.1724072  22.5574613
  60.8082867  43.1041098  23.4632301  61.9383621  42.6926184  22.5442147
  21.9541860  59.2132568  19.7941518  21.3431549  59.8685694  19.4573402
  22.4904108  59.6893024  20.4282451  25.9885874  15.1519558  64.4401673
  26.8521729  15.4693005  64.7042504  25.7451096  15.7079957  63.7000499
  33.8104859  28.2928059  54.5915160  34.2729226  27.4569008  54.5311556
  32.8942480  28.0723069  54.4238279  69.5704603  27.9476142  32.0281291
  70.3220415  27.6471853  32.5391078  68.8398933  27.4135613  32.3400354
  55.1725864  59.9948645  14.4370520  54.5523834  59.3007660  14.2138660
  55.7927227  60.0054789  13.7079787  34.0339992   9.6857398  37.1199441
  33.9454869   8.7572139  37.3349977  34.2965976   9.6944373  36.1995101
  52.5046015  60.2278852   3.0726790  53.2524157  60.3171921   2.4818909
  51.7773056  59.9786329   2.5024593  24.1836262  50.8178568  13.5407352
  23.8322711  51.4017868  14.2129016  25.0184202  50.5156565  13.8985491
  81.7081699   0.4290049  55.4860163  81.4752779  -0.0128514  56.3025665
  82.0163450   1.2926715  55.7604980  44.0075571  48.2152759  66.9740010
  44.5434863  48.7679116  67.5428655  44.4369800  48.2631956  66.1198745
  36.6292420   2.3364489  13.8250160  36.9305954   1.4279311  13.8210797
  35.6800077   2.2734778  13.9309454  64.8529432   6.0114262  65.6665245
  63.9054004   6.0814259  65.7826877  64.9713443   5.2263949  65.1317928
  73.4313823  24.7690606   8.6801070  73.1216420  24.0033579   9.1638321
  72.8310050  24.8426723   7.9382443   7.1090585  76.8561535  56.2680576
   7.4611789  77.7303939  56.1008856   6.2029057  76.9005255  55.9628448
  80.9752412  24.1451335   1.0918152  80.2476777  24.6092606   0.6777278
  81.1039613  24.5969939   1.9257715   2.0505753  20.3749201  48.2850179
   2.3332634  19.9322865  47.4847708   1.0944381  20.3490803  48.2480440
  46.9705009  44.3312263  16.2871659  47.1642447  44.3932772  17.2224975
  46.0786200  43.9857149  16.2497187  33.1514466   8.6952060  25.7802415
  32.8472081   9.5254748  26.1467314  32.6678401   8.6042826  24.9592113
  82.8114063  69.5689730  69.6115975  82.6007444  70.3984027  70.0404294
  82.6926929  69.7449784  68.6782378  40.6062222  74.2499542  27.3050547
  39.6691060  74.0612745  27.2556043  41.0146666  73.5801411  26.7566490
  10.0440398   8.6219285  54.2696807   9.1703096   8.6472294  54.6597895
  10.6397381   8.5900996  55.0182531  42.0638990  49.4197702  20.6728578
  42.3851681  49.3309259  19.7755718  42.2886658  48.5886526  21.0911369
  52.5399113  33.1062102  34.0668893  52.7502203  32.2920823  33.6095071
  53.0060387  33.7835503  33.5768199  47.9128122  58.8173532  30.4956603
  47.1179342  59.2611122  30.7914305  48.6104774  59.1920233  31.0333586
  69.8886490  51.7459774   8.9808077  70.0952530  52.6711226   8.8479531
  69.3046618  51.7374897   9.7391737  62.0470247   0.2633612  43.7854433
  61.3553581   0.1367133  43.1359863  61.6238126   0.0817721  44.6245766
  31.0619450  31.9573355   8.9900422  30.1942873  31.5537333   9.0125561
  30.9143639  32.8211617   8.6050004  23.4476700   9.4772360  55.7735226
  22.8752127   9.1075728  56.4457390  23.0495825   9.2083523  54.9455974
  83.9802138  12.6210949  53.9244685  84.3547408  12.2775242  54.7355923
  84.1332118  13.5648463  53.9709220  42.9453915  42.1726342  12.4953594
  42.1294420  41.9934006  12.9626217  43.1326311  41.3626118  12.0209732
  14.6195829  51.0774803  42.5359869  14.1687572  50.3206301  42.1615934
  14.0761399  51.8259573  42.2896481  44.2007446  66.3660860  16.6765726
  43.9607430  65.7066727  16.0255730  45.1312828  66.2130928  16.8406558
  42.0895562   0.5350821  20.3829384  41.2917385   1.0476153  20.2524781
  41.8902931  -0.0329644  21.1271524  20.9920597  17.9703748  29.3978429
  21.5519428  17.5274754  30.0354981  20.5615687  18.6637926  29.8979235
  42.5240993  75.6327391  32.6098514  42.4306297  76.5753555  32.4721193
  42.2199297  75.2398205  31.7917275  21.4085045  54.9990962  32.1776209
  20.5990639  55.2121089  32.6420173  22.0372763  54.7998354  32.8712878
  18.5871180  13.9827292  36.2827516  18.3955821  13.6157744  37.1458197
  17.9257782  13.5987132  35.7070780   3.6167296  17.6076930  38.6143756
   3.5427388  18.4416907  39.0782690   2.7212914  17.2708934  38.5828519
  52.4268040  18.7183612  16.5877390  53.3418164  18.7198394  16.8687689
  52.4528489  19.0369170  15.6854761  26.4194894  63.5164022  30.6465507
  25.8453202  63.0188227  31.2287688  26.8300843  62.8536081  30.0912571
   2.1592291  33.8929503  48.4154272   1.2741574  33.5406153  48.3219290
   2.7179535  33.2596915  47.9648256  71.1069545   2.8204577   8.4849840
  71.5463409   1.9749205   8.5757411  71.8096170   3.4335749   8.2691449
  37.8037143  28.4267426   5.6454527  38.1365919  27.5905108   5.9712505
  37.0212007  28.5940552   6.1707234  35.3862596  38.2502484  36.2736630
  36.0230017  38.9372182  36.4708114  35.2181697  38.3414817  35.3357649
  66.5097761  38.7548447  11.9903183  67.4300480  38.5870194  11.7874241
  66.1938095  37.9333830  12.3666084  49.7694310   6.9044822  19.0808856
  49.1451272   7.1362346  18.3933020  50.5615147   7.3945754  18.8603210
  45.0547457  25.3965950  16.7014492  44.1980982  25.8232737  16.6832197
  45.6814671  26.1133575  16.6029608  74.6217394  59.4241238  22.0564342
  74.8880577  59.8192739  22.8865933  74.5118999  60.1664305  21.4621711
  62.9406023  70.9177542  53.6765766  63.4525394  71.3433981  52.9888391
  63.5746431  70.7383680  54.3708706  38.8848486  53.4925387  57.1418378
  38.6864939  53.1052516  56.2892589  39.6660557  54.0237544  56.9876835
  67.0210132   2.0673793  22.0832253  66.1510548   2.4602549  22.0121312
  67.0251069   1.3735621  21.4238048   8.3072184  60.4770517   5.8465487
   8.5203360  59.6551752   6.2885141   7.4890517  60.7625151   6.2531841
  40.0866928  49.0521071  49.9420068  40.7551232  49.5334551  49.4544158
  39.4765034  48.7442896  49.2718253   3.6130818   4.1180651  30.4957891
   4.3836602   4.6815532  30.5659795   3.9677580   3.2502406  30.3026009
  55.5401125  27.1136258  68.3425649  54.6465292  26.7973635  68.4756609
  55.4559412  27.7961943  67.6768005  49.3398323  29.6265957  67.8433720
  49.6119681  30.3091786  68.4567641  48.7274113  30.0654433  67.2529623
  73.9464721  36.1878245  47.5506496  74.3028411  37.0430796  47.7910280
  74.3819294  35.9699385  46.7265558  20.1387366  19.4757502  18.9432740
  20.5687102  20.2131312  19.3764305  20.8266839  18.8162368  18.8538015
  81.8360138  56.0117865  53.7203455  81.8020535  56.8242407  53.2153749
  81.7737389  56.2941456  54.6328306  73.6162853  66.9356155  45.4217768
  73.7526512  66.9147062  44.4745684  73.2291698  66.0845518  45.6268692
  28.7410363  27.3999160   5.5789864  29.0584668  28.0002826   4.9044257
  27.8879078  27.7529090   5.8315647  34.7314062  23.1961892  68.0381026
  34.6041336  23.0182002  68.9699569  34.1493216  23.9332602  67.8533557
  17.5725451  25.1223919  62.0028493  18.0363121  25.9508870  62.1242986
  16.9213143  25.1074002  62.7042094   0.8508363  42.6873324  47.2274670
   0.2203741  43.3019755  47.6029167   0.4717698  41.8241904  47.3933539
   5.3268870   7.5002520  60.8868933   4.5233735   8.0116885  60.7918453
   5.7347926   7.8408091  61.6830492  79.7726679  77.0923948  53.2310724
  78.9081573  76.9483662  52.8462219  80.3387737  76.4569521  52.7929258
  65.8216104   5.8043998   3.7278092  65.4350934   4.9453109   3.5580862
  66.5475640   5.6265109   4.3257871  78.7109575  10.8618968  36.6271281
  78.7146625  11.6378062  37.1876526  78.3204326  10.1765673  37.1693754
  58.4503651  62.8314686  17.1272910  59.0728569  62.9095507  16.4043534
  57.6240683  62.5928354  16.7071486  62.9495907  64.2635775  38.2188678
  63.8800001  64.3362617  38.4316635  62.5163364  64.1711426  39.0673828
  14.6882534  46.8192101   8.6297446  15.1705515  46.5862989   9.4230753
  15.2465904  47.4600172   8.1894547   6.7288493  65.5164957  21.8834400
   7.4789618  65.9813833  22.2541761   6.6032504  65.9133768  21.0214996
  26.7503231  28.7587281   6.9373408  26.7256754  28.9591189   7.8730002
  26.4950340  29.5765372   6.5104380  29.0231729  72.1756935  20.1527333
  28.7225366  72.2003365  21.0611629  28.5048175  72.8480291  19.7105777
  39.6592975  79.3546057  41.1817837  38.7622476  79.3088198  41.5125990
  39.9968243  78.4643793  41.2808084  26.7405518   8.0075591  22.8974199
  27.2105607   8.2798140  22.1092558  25.8365448   8.2823127  22.7441192
  28.9945572  36.8159266   4.1952982  28.4640997  37.6017018   4.0633574
  29.8581951  37.1482821   4.4400540  45.4840612  78.9206219  14.2113638
  45.8921814  79.3316841  13.4493303  45.3857470  79.6325493  14.8436022
  46.7017563   6.2873690  12.4890041  47.0107945   5.6536334  11.8416226
  46.9890698   7.1352713  12.1502721  54.1330004  71.2531948  26.9967413
  54.9629116  71.0243559  27.4152136  53.6584473  70.4240894  26.9366312
  80.2363309   0.6113379  26.7891765  79.8561582   0.7505553  27.6565385
  79.9300823  -0.2577550  26.5301180  77.8305054  49.2712021  34.8045063
  76.9415092  49.4842720  34.5207477  78.0638409  49.9749804  35.4098821
  70.7960538  24.9831603  69.2048109  71.1284963  25.4501841  68.4382570
  70.4834143  24.1471646  68.8589760   4.9355038  10.1628440   5.9807873
   4.5476778  10.7124751   5.2998114   4.1996869   9.6610492   6.3315111
  22.3291421  58.5052776   5.1483256  23.0892587  59.0658092   4.9925780
  22.1904683  58.5472202   6.0944980  76.0386419  63.8592434  33.9088297
  75.5808020  64.6918726  33.7932897  76.9663191  64.0950251  33.9161944
  23.8309803  31.6514657  36.7280230  23.0063095  31.3880322  37.1363745
  24.0834275  30.8999608  36.1916075  76.9823217  38.0663180  27.1149850
  77.2344589  37.2485900  26.6860604  76.8757010  38.6903811  26.3970637
  66.4283562  56.2295866  37.4081087  66.1989307  55.3230858  37.6126957
  67.1891117  56.4142609  37.9589081  45.7875252  51.5995550   8.1101990
  46.6212511  51.8267965   8.5218936  45.9754992  51.6013956   7.1716398
  81.6695604  16.3909095  12.7656913  81.0799036  15.9793322  12.1339190
  81.8729410  17.2442954  12.3827946  18.4092653  24.2667532   1.1745303
  18.5533237  25.1319146   1.5579063  18.9877069  24.2432356   0.4122414
  38.2229534  14.6556800   5.8019364  38.4764943  15.5376952   5.5299109
  37.3437938  14.7606509   6.1656564  66.7186213  59.5307255  23.6707854
  66.7490768  59.0041065  22.8720522  66.9366884  58.9160538  24.3713951
   6.4945134  17.4217074  25.3665376   6.4619454  16.5620749  25.7862926
   7.0865353  17.3032897  24.6237612  85.1149425   3.7173980  29.3629384
  85.1142797   4.4239848  28.7172031  84.1888389   3.5601943  29.5469141
  33.9862227  64.2124462  24.6018982  34.0880990  65.1568460  24.4837165
  33.5863638  64.1210508  25.4667640  40.8148766  61.9547462  11.4315796
  40.1366282  61.8429708  12.0977020  40.5601788  62.7485800  10.9612763
  30.0157118  80.0788116  42.6956034  29.7618198  79.2085600  42.3882961
  30.7485437  80.3273964  42.1322250  43.6523857  28.4895537  60.4151836
  43.4854784  27.9030774  61.1530313  43.2573738  28.0474398  59.6636972
  29.0695453  79.7346592  38.4450030  28.7788367  80.6257153  38.2507539
  29.0548062  79.2880249  37.5985193  34.0272069  77.4435234  25.1997304
  33.8638592  77.9116011  26.0185409  34.0603828  76.5212011  25.4536080
  60.3352976  71.6756964  18.2032418  59.6566153  72.0770121  18.7459886
  61.1022472  72.2350550  18.3262682  78.7876312  34.8445962  68.3455345
  78.9285485  34.4075367  67.5056816  77.9402272  35.2793667  68.2500728
  58.4533605  14.9904197  30.4159570  59.2007026  14.7188418  30.9488297
  58.7165532  15.8331340  30.0460935  10.8152953  59.2504332  66.1534232
  10.4898038  59.4875262  65.2850482  11.0486331  60.0859187  66.5580860
   5.9561696  47.6431105  60.5582503   5.2909103  47.4489615  59.8979709
   6.4070955  46.8100951  60.6960759  68.3607877  44.3650866   1.1619938
  68.0663420  44.3356514   0.2516820  69.1832794  43.8754606   1.1636359
  78.2084760  23.5435622   4.7468072  77.4623260  24.0309661   5.0960058
  78.8882217  23.6354773   5.4144347  27.1468201  39.7945426  63.6472062
  26.2793818  39.9337122  64.0272239  27.3233929  38.8643096  63.7876472
  37.2000861  67.0541096  13.9035761  38.0615449  67.4600601  14.0001404
  37.3879695  66.1535358  13.6391914  46.5129519  58.5297537  12.7885425
  46.2733650  58.6196566  11.8661821  45.9904480  57.7910328  13.1008184
  54.9632892   1.8825667  10.6623638  54.4513783   1.1454528  10.3294408
  55.7595954   1.4826815  11.0119605  34.9778223  66.8794012  16.6880453
  35.1390767  67.4499512  17.4395120  35.8144951  66.8525171  16.2238348
  78.5167408  77.5203562  46.9567871  78.7508488  78.0248404  47.7358389
  78.3441544  78.1813622  46.2863255  36.4417067  10.9005997  66.2560246
  37.2270050  11.4325926  66.1274863  36.4494410  10.6834767  67.1882418
  28.4057435   3.8298266  42.5131369  28.5064038   2.8904193  42.6668167
  29.2294606   4.0952246  42.1041250  23.0760384  77.5925159   5.9310609
  22.7790046  76.6879702   6.0300487  22.3326063  78.1217194   6.2200063
  82.2051582   1.6446059  48.9861441  83.1478128   1.5073245  49.0798664
  81.9364509   2.0366996  49.8169804  46.4029455  69.6333361  20.5354929
  46.1281490  69.3858576  21.4183688  47.3004580  69.3083763  20.4640818
  42.6221362  30.0009940  65.7995052  43.4984103  30.3428862  65.6220749
  42.5627652  29.2069218  65.2683199  26.0480031   3.9017527   6.0718375
  25.1921471   3.4879344   6.1836058  26.5553769   3.6111014   6.8296838
  35.4003951   0.4284900   8.4761554  35.2773753  -0.1111848   7.6952273
  36.0800466   1.0556643   8.2292467  66.2365246  73.0899763   7.1251720
  66.3334417  72.5756216   7.9265958  66.0443640  73.9763403   7.4312127
  41.2546492  69.1452789   4.3660277  41.8376780  69.2933321   3.6214536
  40.3937483  69.4258547   4.0556091  38.9855075  68.7641621   8.9546514
  38.7757111  68.5608292   8.0431300  38.5184407  68.1001663   9.4617867
  39.2920732  77.0631933  17.2884130  39.2788434  77.6021481  16.4974737
  39.7792411  76.2789440  17.0357275  61.7514229  78.3510542   9.2430079
  62.0525980  77.4861574   8.9646471  60.8831263  78.4402037   8.8501477
  38.8719463  57.2004795   3.5234827  38.8740230  56.6232395   4.2870408
  38.2216215  57.8711653   3.7320283  54.5243788  61.2881899  25.1076984
  54.9926376  61.0944986  24.2956328  54.0712261  62.1128225  24.9320269
  53.3586311  75.6344175   9.0774661  54.2327452  75.7933283   8.7212330
  53.5175657  75.2536678   9.9411786  72.8389072  73.7659264  18.5457885
  73.5364819  74.1605854  18.0224633  72.5383377  74.4731188  19.1165471
  64.1332197  63.4767294   9.0159261  64.6443415  63.0694723   8.3165485
  64.6118927  63.2644129   9.8171914  24.8131394  77.8783560  19.3348396
  25.5643916  78.1578255  18.8116300  24.2708349  77.3765373  18.7263048
  71.5020647  26.6144106  66.9001040  70.8494273  27.3064921  67.0064980
  71.9393053  26.8224070  66.0743967  71.0483417  20.6414836  24.5784688
  71.9362363  20.9810965  24.6904135  71.1696348  19.7829955  24.1728687
  34.9893165  55.9841824  19.5876682  34.8189759  55.5191040  20.4067659
  35.3737879  56.8171692  19.8606944  13.9690247  21.7697356  57.9364404
  13.8713875  22.7218745  57.9478428  14.0557328  21.5268014  58.8582310
  83.4767303  12.9806845  13.9361119  82.6912746  12.4924128  14.1828644
  83.8247594  13.3092730  14.7650480  25.5759215  61.5278387  12.5841916
  26.2278914  60.8894730  12.2949517  25.6960773  62.2751665  11.9982767
  25.1770010  56.8649600  51.0222468  26.0966626  57.0851824  50.8740470
  25.1521769  55.9085009  50.9939310  39.9603470   2.3400252  15.5024791
  40.2396878   2.4328082  16.4132977  39.2538174   1.6949599  15.5331707
   4.2789992  13.6529200   0.0629878   3.8191851  12.8458350   0.2941039
   4.3547877  14.1303771   0.8891380  63.3133230  15.4454654  23.5483789
  64.0133271  15.7147353  22.9536366  62.5137887  15.7856887  23.1468511
  49.5253048   2.5507777  10.6714582  49.4375620   3.2552188  10.0293660
  48.6852488   2.0929377  10.6410062  67.7653933  58.5488653  15.7241178
  68.4461784  59.0730238  15.3021908  67.4672270  57.9486275  15.0407124
  42.5769615  71.8600368  53.5539722  42.9293776  72.6576948  53.1592798
  41.6315222  72.0061636  53.5859728  24.9738526  45.2314281   5.4726696
  25.6980109  45.7496357   5.1215440  24.7134066  44.6622753   4.7484738
  24.8272934  39.5847580  64.8504866  24.1937533  40.0188944  65.4217858
  24.5913210  38.6580203  64.8917532  62.7456474  64.2305279  12.4850023
  63.1200647  63.6638784  11.8105006  63.1869364  63.9659309  13.2921481
  74.1705999   6.3878291  19.5025671  73.4293613   5.9460681  19.9168754
  74.2163477   7.2388118  19.9384141  38.0220723  62.1434069  22.8921032
  37.8205681  62.0767879  21.9587255  38.9282751  61.8435144  22.9634929
  65.1277161  68.7667751  10.3137243  65.3595114  68.2799101  11.1045873
  65.0804996  69.6791506  10.5993438  21.1212595   1.9405310   3.0258954
  21.2573536   1.4319651   2.2264743  20.8081730   1.3013881   3.6659771
  39.5796490  40.2190685  11.4922249  38.6584687  40.0722170  11.7069232
  40.0442743  40.0695419  12.3156321  13.6812401   1.0043397  62.1264258
  14.3572676   1.6492429  61.9182989  12.8685045   1.3986364  61.8098411
  14.5532456  50.0150797  56.3072643  14.9881401  49.6399424  57.0730159
  15.1476660  50.7026980  56.0071418  34.0833259  67.5159407  46.6882706
  34.0681005  67.4982023  47.6451874  33.2984757  68.0070734  46.4453077
   7.9953152  56.4358234  11.3830411   8.9409572  56.5738297  11.3287580
   7.7034873  57.0420408  12.0638990  33.3813787  64.9889040  45.6782293
  32.8528929  64.5382071  46.3368750  33.4941792  65.8735323  46.0259962
  76.6532755  28.9211106  22.1628618  75.6990242  28.8517141  22.1342349
  76.8294621  29.8536158  22.0378613  18.1503907  13.3482144  64.0512440
  17.8053227  12.6093314  64.5524559  18.7353554  12.9486392  63.4075132
  47.1997356  45.3378057   5.8163184  46.8245554  45.4958916   4.9500149
  46.7476749  44.5562220   6.1341161  80.2810229  53.7855196   5.3455967
  80.0996901  53.6165524   6.2701505  80.9504701  53.1426811   5.1114440
  53.9047670  72.6450157  34.4575930  54.6627235  72.1348000  34.7429276
  53.7742043  73.2894278  35.1532316  68.2899580  10.2166217  34.2007160
  68.3480129  10.4151099  35.1353073  68.1656322   9.2682212  34.1645551
  47.9770279  61.6897058   6.5980935  47.8118801  62.5596428   6.9616431
  47.9656601  61.1067677   7.3572272   9.9063166  10.2449935  57.9123735
   9.1990431  10.3348391  58.5510588   9.5871981   9.5893615  57.2922611
  63.8732195  77.9270029  17.4625325  64.5495319  77.4411631  17.9345441
  63.2926178  77.2510386  17.1129549  41.1040974  60.0500154  56.9281149
  41.9603729  59.9472046  57.3433876  40.6200838  59.2633295  57.1792889
  40.3493500  57.6105404  19.1204119  40.8052254  57.2769117  19.8931348
  39.9373341  58.4219790  19.4171369  62.7206802  74.9962854  12.1175134
  61.9539213  75.1249456  12.6758647  62.4281025  74.3784714  11.4474869
  63.7497234  59.6114445  34.4928551  64.2639112  58.8281631  34.2971158
  64.2023277  60.0163507  35.2327418  12.2772511   5.0776713  36.8997550
  12.9652270   4.5638411  36.4767909  11.4625319   4.7371238  36.5303087
  54.3436003  58.5734797  32.6803994  55.0850773  58.2165241  33.1693077
  53.6318254  57.9532003  32.8380775  83.9484694  39.4317985  22.7573705
  84.2772160  38.5424042  22.6264715  84.4539050  39.9665046  22.1451139
  27.4538269  28.1368086  66.5193189  26.9124403  27.8026841  67.2345072
  26.8587962  28.1856129  65.7711301  76.1301041  48.9050341   9.3317413
  75.9091997  49.3654919  10.1413155  76.6180229  49.5473385   8.8163656
  49.8637152  66.7009354  18.3853400  50.2661896  67.5467014  18.1880462
  50.2590704  66.0954380  17.7582049  16.0620499  53.9598274  23.6757541
  16.2768793  53.0273390  23.6523557  15.5020261  54.0573454  24.4458818
  18.5348978   2.9796622  59.7877238  19.3762579   3.1522820  60.2102760
  17.9701987   2.6702378  60.4959616  71.5251303  35.1334071  14.9646246
  71.2032652  35.7252622  14.2846680  71.2660551  35.5496407  15.7867324
  70.2497768  61.6782475  43.7859344  69.9900675  62.2579050  44.5020199
  69.5608187  61.0145473  43.7531567  52.3971367  30.0251627   4.0912366
  53.1269979  30.2500343   4.6682695  52.1348476  30.8588290   3.7008023
  80.2071762  47.5900412  11.8222058  79.5718861  47.7601910  11.1267316
  80.2266693  46.6362619  11.9006979  38.0802727  72.6578951  15.7325208
  38.2800865  73.1997967  16.4958382  38.3594489  73.1857061  14.9843848
  20.4706597  61.1992407  32.6071334  21.2550354  61.6970682  32.8376794
  20.7911777  60.3142023  32.4333143  60.8332872  72.9622364  51.1523581
  60.6127644  72.5712824  51.9977903  61.6402483  73.4499502  51.3172054
  15.8774614  71.4143181   8.1834441  16.3606036  70.5880165   8.1777430
  15.4109609  71.4132404   9.0192723  66.2272892  13.3561175  22.4738550
  65.7425007  13.6295073  21.6950941  66.8676552  14.0535395  22.6144457
  67.8943205  73.2314157  31.8258381  67.8436852  73.5291052  30.9175158
  67.6270628  72.3129034  31.7921090  57.8717518  35.1551342   3.6499405
  58.2617474  35.4919481   4.4565934  56.9339514  35.1125789   3.8369009
  80.6070296  37.1627495  66.4219153  80.6789319  36.7592356  67.2869242
  79.9674980  37.8654549  66.5378368  61.7292356  61.5011883  20.9317446
  60.9683609  62.0342493  20.7012153  61.3577223  60.6783819  21.2498546
  80.3246403  75.6657028  58.4131432  80.4046440  74.7313833  58.2211113
  79.4337797  75.8900452  58.1443119  65.1563597  77.2223711  38.4310126
  64.7507381  77.9665041  38.8759542  64.4381046  76.8093872  37.9516578
  74.4877819  19.6930430  54.3280778  75.0825182  19.1153643  53.8497398
  74.2414443  20.3637288  53.6911068  83.3335605  60.9087563  24.2990780
  83.9701686  61.5598774  24.5940423  82.5231690  61.1443853  24.7507119
  48.3275652  67.3976755  54.6752834  48.2835627  67.4521494  53.7206459
  48.6091232  68.2696056  54.9522161  69.5842695  66.4831781  12.7316034
  70.1821756  67.2273636  12.8017664  69.2054987  66.3969469  13.6064339
  20.9328976  12.3884032  56.6813884  20.6349745  13.2847092  56.8366740
  21.7767039  12.4894068  56.2409053  73.8444853  78.7072468  14.1411448
  73.2694149  79.4196081  14.4205654  73.7925911  78.7184048  13.1854177
  35.5150178  22.0353740  18.5066998  36.4604393  22.1125071  18.3784020
  35.3383580  22.5443785  19.2978609  72.8622484  51.6273546   0.9863150
  71.9805908  51.7790508   1.3267526  73.0683708  52.4212837   0.4929321
  23.3634575   9.2536967   8.2062286  23.9536103   8.8402217   8.8363016
  22.9340228   9.9508136   8.7020582  55.6017146  12.7360194  15.5806208
  55.3489313  12.4430697  14.7051144  56.5069995  12.4412864  15.6797206
   4.0472498  29.1782353  28.5941658   3.4640589  29.2443059  29.3503103
   4.9252453  29.2913649  28.9582548   5.4504204  74.8239374  18.5733402
   5.8282590  75.5346346  19.0913951   5.4619211  74.0676355  19.1599464
  83.3604375  46.4291022  66.0496503  83.4332792  45.9091399  65.2492988
  83.1156079  45.7963679  66.7248848  24.3991470  54.6453428  54.5909595
  25.3351641  54.8388100  54.6426725  24.3437648  53.8819075  54.0162182
  54.8015451  77.3463583   1.9179218  55.7056761  77.2040987   2.1981773
  54.7582197  78.2805443   1.7138335  26.5892410  47.4203587  16.0913002
  27.0577145  48.2206154  16.3286841  26.8809772  47.2273874  15.2002990
  32.7978230  79.8819876  27.0138502  32.3330832  80.2414036  26.2581563
  32.3490930  79.0574694  27.2010446  24.7333630  12.2783606  29.4260573
  25.1120766  11.5701239  28.9052725  23.7965020  12.0835440  29.4499397
   2.3986243  78.3592129  42.9566145   2.6720809  78.9224529  42.2325897
   2.5469779  77.4692440  42.6369572  53.7169543  40.3492854  67.5301806
  53.2311526  40.4187224  68.3520112  53.2230082  39.7130749  67.0129866
  77.1178922   4.6075862  29.8431492  77.6407823   3.8750689  30.1690722
  76.2455091   4.2376273  29.7078252  28.8316219  32.0295019   6.7899647
  28.4636658  31.9019623   7.6643648  29.3732040  32.8146668   6.8701973
  69.3143806   2.3135035  10.6069350  68.4190092   2.5895064  10.4110730
  69.8119745   2.5393908   9.8210549  56.3938865  10.5244010  39.6524453
  56.7169914   9.9420016  40.3399372  56.6534290  11.4001029  39.9388337
  32.6667833  79.5149469  30.0231433  32.5357938  80.4418945  29.8235345
  31.7991257  79.1994190  30.2758145  11.7193325   3.7572806  45.0462580
  12.2405013   3.1677764  44.5011997  12.3584469   4.1825812  45.6179905
  76.9044408   8.4181731   6.4346176  77.4400863   8.0078357   7.1135390
  77.5002966   9.0226977   5.9921902  52.3134265  11.0177272  36.6906214
  52.8345213  11.6588824  37.1739578  51.9629273  10.4363196  37.3654175
  10.3290217  23.0872889   0.1179161  10.3805154  23.7790652   0.7774773
  11.0799997  22.5234051   0.3031101  11.8289717   9.0986293  28.2070136
  12.7704199   9.0058081  28.0610824  11.7342576   9.1105120  29.1594434
  22.6648655  51.8504927  59.8201254  22.8982869  52.7380393  60.0921736
  21.9014731  51.9663546  59.2544088  35.9211063  79.8160267  24.5655584
  36.7018700  80.0165653  25.0817227  35.4865456  79.1148806  25.0511312
  42.6525211  52.7866364   4.4987091  43.2410431  53.5100555   4.7144395
  42.8420639  52.5890446   3.5815048  79.0671930  27.3295920  48.1002760
  79.4490108  28.1894534  47.9239702  79.2605600  27.1663897  49.0234280
  18.3117970  20.6692069  57.0772457  17.8440627  21.4069884  56.6859150
  18.1078394  19.9272101  56.5079737  29.9528565  33.4612029  12.8414786
  30.4276431  34.1264003  13.3397901  30.4892557  33.3177893  12.0617735
  34.3861380  66.3285849  59.3581114  35.1774779  65.7968638  59.2728028
  33.6922923  65.6968234  59.5470211   2.5577124  17.3852198  15.2665484
   1.8258580  17.8613322  15.6589019   2.1459015  16.7740290  14.6557343
  38.7600907  20.5651133  44.8957777  39.3852147  20.9794944  44.3010187
  38.0464657  21.1984484  44.9724293  22.3692711  39.3612616  15.1483321
  21.4757451  39.4724505  15.4731107  22.7285822  40.2482169  15.1272988
  17.8972300   1.0471003  18.0211103  18.7288102   0.5778354  18.0881977
  17.4098738   0.5754416  17.3456430  40.2281514  76.0020564  65.8946476
  40.8888045  76.4586089  66.4155367  40.7214871  75.3426287  65.4067859
  45.2075815  57.4390602   7.0791680  45.7215500  57.8150558   7.7937967
  44.4315577  57.0770741   7.5069374  30.5547150  40.5497496  57.8133440
  29.6583756  40.8749717  57.8971767  30.6020745  39.8170417  58.4274578
  28.7693604  25.7037871  14.5313334  27.8292092  25.5329078  14.5873547
  29.1519173  25.1686518  15.2266812  76.6894102  79.6540594   7.2988564
  75.8769751  79.4663429   6.8288082  76.4962292  79.4312096   8.2094884
  20.0143266  59.2496204  26.2475848  20.0541115  58.5848999  25.5599833
  20.6962609  59.8787594  26.0122561  73.9439687  10.6576579  22.7794552
  73.3494815  11.3698523  22.5436807  74.8132047  10.9845298  22.5474858
   0.3931847  58.7254164  69.3189444   1.2283817  58.6721537  69.7835334
   0.0080171  59.5510504  69.6125526  79.3328485  27.0433371   6.0642749
  78.6626443  27.6098769   5.6820565  78.8668213  26.2373393   6.2865722
   3.3383091  20.3521960  20.2288175   2.8930005  21.1828177  20.0614595
   3.1337746  20.1505034  21.1418986  26.9918442  70.0642300  19.5705569
  27.7947998  70.5059004  19.2941117  26.7958283  69.4556475  18.8582134
   1.2054451  32.0824092  41.1993885   1.5574797  32.1073573  40.3096199
   1.4162835  32.9417270  41.5645647  23.1504679  15.1384997  15.4946125
  23.9448404  15.6646788  15.5859160  23.4662032  14.2684972  15.2504027
  34.8793769  11.1994278  39.2424726  35.3294826  10.6466126  39.8812461
  34.9252915  10.7055628  38.4238029  18.7568784  29.8045158  17.8125405
  18.9564431  29.1931677  18.5215259  18.3135247  30.5350137  18.2438672
  82.7150262  17.3244476  15.2401054  83.5768166  16.9705701  15.4599237
  82.5086702  16.9404304  14.3879437  24.9520150  78.9383402   4.5180398
  24.8723784  78.4584522   3.6936629  24.5354548  78.3709227   5.1666892
  44.7385550  22.3207068   4.1932026  44.5107031  22.6727390   5.0536615
  45.4669428  22.8662539   3.8964462  22.8915596  19.4909298  40.8355284
  22.3881674  19.8907399  41.5447378  23.5858345  19.0040338  41.2795401
  29.4371486  16.6820478  19.9624455  29.9046254  17.5050628  20.1050711
  30.0180340  16.0113156  20.3215051  37.3987889  29.5996332  12.6013625
  37.2313261  30.5420566  12.6068890  36.8263960  29.2506480  13.2845950
   5.4827493  44.5990038  23.1193256   4.7516334  43.9877653  23.2092595
   5.3317034  45.2548885  23.7999368  29.1102099  52.7063274   5.8374715
  29.3948221  53.5705709   6.1346400  29.6563530  52.0923853   6.3284254
  22.9804444  12.7123129   6.9363505  23.4748864  13.1774104   6.2614852
  23.6285472  12.5089967   7.6107806  47.0904541  13.9857697  26.8348193
  46.9293690  14.8505592  26.4574313  46.2883472  13.4941792  26.6581964
  11.0366464  49.2766762   0.2308739  10.6771564  49.9898386   0.7585088
  10.2687216  48.7917519  -0.0714018  21.7223954  41.8589926   1.6094658
  22.3995280  42.0483255   0.9599464  21.2625980  42.6904774   1.7254610
  26.6905499  34.5927620  30.1498246  26.9296050  34.1874075  30.9833550
  26.8477321  35.5273581  30.2842021  20.5914235  67.9885292   3.5556215
  19.6994424  68.0896330   3.8878572  21.0171580  67.4069929   4.1855374
  60.5730915  32.9185557  17.4877870  61.2102985  33.5108805  17.0885968
  60.0943851  32.5470901  16.7467844  43.1680107  63.5123777   4.3696466
  42.3157406  63.4686470   3.9361104  43.1243420  62.8424072   5.0518948
  60.0521833  38.9924692  64.8263088  59.4351060  39.5866749  64.3992672
  60.3948218  39.4940957  65.5660403  38.3321619  37.4139142  50.4365396
  38.4033012  36.4613557  50.3748465  37.3926377  37.5880837  50.3800821
  34.7962618  24.0241909  30.9674692  35.1306725  23.1322050  30.8738542
  34.1313553  23.9599848  31.6530418  17.6724148  51.6524649   1.9496536
  17.9625940  52.2878456   2.6041162  16.9341886  51.2039661   2.3620889
   5.9334671  32.1275544  18.8540912   6.4962125  31.4369845  18.5038579
   6.0671991  32.8683662  18.2628691  34.3625188   2.7918166   3.0262083
  33.6652827   2.2800104   2.6161504  35.1261187   2.2149493   3.0069312
  37.8911495  35.5741286  16.8218780  38.6598706  35.5229044  17.3899245
  37.8616810  34.7247243  16.3815653  75.9966711  74.4683392  44.3236589
  76.5758280  74.6077300  43.5744047  75.1455049  74.2677809  43.9343977
  56.8896396  53.0764858  64.2113397  57.0969660  53.3518569  65.1043222
  57.1955568  52.1707849  64.1628704  11.1632216  25.8040881  15.8288443
  11.7220998  25.3195667  15.2212870  10.8608854  26.5599203  15.3253138
  66.0580260  73.3179955  69.3822742  66.7457110  73.1226639  70.0187994
  65.9640653  74.2699842  69.4157503  27.6502204  32.3350716  35.6978369
  27.5095987  33.0443501  35.0706339  27.0453024  32.5258303  36.4147139
  81.5994245  39.6051326  55.1208815  81.0221321  39.6071422  54.3573627
  81.0885126  39.1745831  55.8063195  11.8605461  77.3783711  18.9171207
  11.6329565  77.8121651  19.7394693  11.5150419  76.4906515  19.0109885
   8.5742539  22.6415491  35.8149981   9.4905293  22.6150131  35.5393791
   8.2207090  21.7913961  35.5533123  31.4653921  29.4080567  41.2165070
  31.1099195  29.3591309  42.1039057  30.9938025  28.7305713  40.7318974
  78.8310272  70.7984357  63.0120722  78.6012728  71.5897088  62.5249049
  78.4717161  70.0820975  62.4886319  20.9207526  67.2523744  10.1335752
  21.2089291  67.3940391   9.2318439  20.2100983  67.8811450  10.2594912
  16.8849030  13.8936827  56.4536688  17.3635950  13.0923817  56.6657994
  15.9872427  13.7182639  56.7359254  43.0041981  39.1113615  34.9003100
  42.0935202  38.8235497  34.9640465  43.5027266  38.4306073  35.3522801
  30.9743023  40.0035715   9.4663888  31.2925434  39.2621326   8.9513904
  30.1797533  40.2862501   9.0136009  34.6364450  32.9789948  20.1401567
  34.7374678  33.1643987  19.2065346  33.7687540  33.3186030  20.3592706
  19.4110894  58.2959938   1.5767047  18.7619257  58.9347792   1.2821256
  19.7639346  58.6683512   2.3848403  83.3511907  75.0879769  65.7709721
  83.0934078  74.6688442  64.9499309  82.8766901  75.9192829  65.7748107
  21.3686657  52.6195240  11.1239612  20.8721685  52.3055553  11.8797028
  21.5107346  53.5495520  11.3003135  57.5785732  44.2553902  23.6584020
  58.0144548  44.5920897  24.4412661  56.6480017  44.4164085  23.8144183
  23.9489174  27.4234653   8.6377048  23.5900235  27.2562122   9.5091724
  24.5099258  28.1904316   8.7528640  14.6292963   6.5805409  44.4307146
  14.1272631   7.1425221  43.8404903  15.2726212   7.1663449  44.8297176
  39.2810908  23.0666754  64.6369973  38.5375300  23.5932515  64.9303610
  38.9350453  22.5467894  63.9115969  73.6692957   4.1856644  65.8431688
  73.0305401   3.4919570  65.6788803  73.3291880   4.6478817  66.6092727
  25.2828770  43.5316689  49.8165724  25.2416974  43.0526911  48.9888534
  25.4492646  42.8575026  50.4753957  81.8884277  29.0623498  37.1806312
  82.2689724  29.7700453  36.6604567  81.0021305  29.3627977  37.3817325
  51.9228203  71.1355667  65.6345216  51.3437969  70.9078650  64.9071184
  52.4469907  71.8651418  65.3040690  27.6292115  69.1382460  68.8341485
  27.7397710  69.5192175  69.7052791  28.3833295  69.4548063  68.3368223
   9.8087478  16.6730607  11.2076235  10.6062376  16.7613506  10.6856596
  10.1176906  16.4086127  12.0741415  49.2665941  72.8580909  66.1483124
  48.4861905  73.2787018  66.5092707  48.9490277  72.0271735  65.7948155
  58.9818716  10.1909840   3.1568661  59.7056675   9.6225482   2.8937435
  58.8545561  10.0018680   4.0865213  51.0743141  35.5669808   1.4407925
  50.6852627  34.9503756   2.0610085  50.9045935  35.1813579   0.5813037
  64.1437054  52.9690933  15.4701424  63.1922483  53.0737734  15.4715514
  64.4617081  53.6615753  16.0494339  48.4227676  72.8730969  62.5646738
  48.5662157  72.8130536  61.6201899  48.2601768  71.9709019  62.8400711
  44.2394400  56.1172056  24.3510413  44.4966984  55.5459785  23.6273360
  44.2963123  55.5603886  25.1275444  29.0405941   9.4468427  10.0456464
  28.4352565   8.9661908   9.4810456  29.3248177   8.8033581  10.6947815
   5.5115538  35.3266992  61.2557492   6.4482528  35.4360060  61.4197001
   5.0864917  35.8269741  61.9523690  72.1185732  29.4590378  46.0044527
  72.8362370  28.8262820  45.9760094  71.4328337  29.0679359  45.4631281
  52.9264641  13.9235556  11.7907059  53.4319687  13.3988404  11.1699235
  53.5219526  14.6263564  12.0508850  50.0797081  31.0708833  34.8373127
  50.9601116  30.7198501  34.9710703  50.0674391  31.8849921  35.3406119
  62.8276157  38.3190918  32.8217149  63.1053495  37.4106026  32.7044916
  61.9070959  38.3238888  32.5593281  62.9331738  46.3585739  67.1674517
  63.5408670  46.6374962  67.8523916  62.7865464  47.1453850  66.6424188
  43.0383110  46.7088652  18.1365657  43.4609127  46.5196085  17.2988176
  42.1955585  47.0949173  17.8978908  63.0863506  79.0896158  54.5255134
  62.3724229  79.5991831  54.1422651  63.7001140  79.7466283  54.8539386
  13.6354268   2.0363696  44.2087173  13.0191565   1.4422396  44.6370316
  14.4449651   1.5306950  44.1368008  82.7971935  30.0798106   2.6893497
  83.0953217  30.0482607   3.5983902  82.3452282  29.2465663   2.5564560
  33.9671659  38.8514495  43.7190676  34.1841555  38.0737162  44.2331457
  34.8144078  39.2461848  43.5126734  18.4606969  26.7921042   2.1456952
  17.7918303  27.4119830   1.8548349  18.8380778  27.1961141   2.9270992
  15.4452693  26.3783622  22.5799966  14.7340524  25.7944608  22.3164439
  15.0030291  27.1474147  22.9394603  40.5702382  69.7018079  49.8804483
  40.9014111  70.5793457  50.0714621  41.3321954  69.2244701  49.5521245
  10.5981874  29.8439169   4.8662648  10.8182204  30.3675127   5.6367624
  11.1274970  30.2191949   4.1625389  46.5573406  18.4709513  22.7436519
  46.9127226  17.6257145  23.0184460  46.3182068  18.3431947  21.8256521
  85.1073276  40.3738594  11.4021003  85.0042799  40.9961510  10.6821251
  84.2259594  40.2765846  11.7625999  25.9817171  44.7298765  16.8476176
  26.8183017  44.2728186  16.9339812  26.0119462  45.4133129  17.5171185
  66.6289711  16.5449750  27.3389268  66.3016796  16.6117489  28.2359529
  65.8817148  16.2231731  26.8346596  24.0932512  36.0203552  33.3139157
  23.6866307  36.2055993  32.4674082  23.7288141  35.1745391  33.5747123
  28.9277205  62.8523712  69.6262545  28.1341696  63.0359916  70.1290393
  28.8978265  61.9088750  69.4676620  39.6226001  40.2221918  24.9707961
  40.2743196  40.8679199  24.6977997  39.3650270  39.7841668  24.1596103
  73.8728792  54.3310826  42.3144350  74.1536886  54.6350066  41.4512954
  73.4731705  55.1000743  42.7207789   2.1134072  69.2496018  44.4958243
   1.1861592  69.0893297  44.6712003   2.5256329  68.3900838  44.5826111
  46.7516851  24.6965575   6.1378551  46.4918900  24.4362783   5.2541167
  46.1407280  24.2355156   6.7126656  10.0624382  30.2499843  19.4361746
   9.1093016  30.3380203  19.4328082  10.2836502  30.0757861  20.3510261
   9.8897750  60.7033472  68.4917783   9.5649487  59.8199432  68.3176622
   9.2388243  61.0863118  69.0798546  30.5340004   4.3674839  21.1168337
  30.5815411   4.7866654  20.2576137  30.3440166   3.4491259  20.9251142
   7.6135832  44.5643282  24.9183846   7.0941365  44.2807484  24.1660619
   8.5134482  44.3318129  24.6894479  47.7625997  60.4699187  63.8509640
  46.9591338  60.9894328  63.8789061  48.1836004  60.6343465  64.6947375
  58.2281882  61.9845156  67.2264520  58.7974173  61.6723470  66.5230588
  58.7839920  61.9765405  68.0057156  28.7086105  10.8914459  12.7603388
  27.9702973  11.4681339  12.9566979  29.1365361  11.2982821  12.0069492
  81.9548861  73.3783514  33.0633140  81.7935435  72.4350990  33.0851054
  81.1520258  73.7502975  32.6982045  47.6590243  29.8133967  18.1491813
  48.4000864  29.4635794  17.6545248  47.0141545  29.1060278  18.1467972
  50.2255774  44.5471954   5.0158590  49.8394680  45.3387165   5.3908908
  49.5589352  43.8721561   5.1429278  36.9820166  24.7347045   2.7982870
  36.2777901  24.8447180   2.1593870  37.1159482  23.7881470   2.8465089
  38.3351929  47.7242915  55.9531424  37.5302482  47.3141579  56.2695071
  38.1945992  48.6617355  56.0860488  41.5650892  56.4336586  21.2730384
  42.0864010  55.9125662  20.6623650  41.1076450  55.7866621  21.8100452
  33.4041214   6.8347549  20.9562612  33.6671305   7.7543414  20.9186149
  34.0139508   6.3870227  20.3698540  25.7538033  29.2868781   9.3618351
  25.1950765  30.0212979   9.6161628  26.3482690  29.1703176  10.1029551
  18.5592308  57.0360191  12.4442685  18.6726561  57.9342754  12.7549160
  17.8134241  57.0818598  11.8460166  30.8771115  62.6838522  44.6358237
  30.3408604  62.4373512  43.8822279  31.7325860  62.8953533  44.2621193
  41.5715579   7.9752991  62.3264155  41.6708700   7.7287171  61.4068696
  42.0434276   8.8044570  62.4043534  44.8464731  19.3991015  68.8132219
  45.3339998  19.4000838  67.9894811  45.5171947  19.5000956  69.4886215
  50.3929806  15.8212125  30.6936908  49.9490976  15.5031323  29.9075460
  50.0441647  15.2793896  31.4014959  60.4469497  56.0392241  69.6792998
  61.2711985  55.7467799  69.2903022  59.8009378  55.9307914  68.9813429
  51.6919214  76.5180664  63.9004895  52.4485833  76.2422280  63.3831785
  51.6076738  75.8472757  64.5781121   5.5398312  17.6890490  58.9602551
   6.2177220  17.0830605  59.2593775   5.7622710  17.8649304  58.0460248
  43.6382723  61.4690447   9.2534775  43.0121994  60.7509851   9.3465209
  44.0055132  61.5817308  10.1302135  40.4196495  77.5248794  62.4418852
  41.1008722  77.1003656  61.9203911  39.6842439  76.9125895  62.4192819
  78.5019280  47.4017715   9.5136315  78.5694439  47.7189827   8.6130476
  77.6412929  47.6994038   9.8085129  11.6604209  22.7839661   6.9520825
  11.2787890  23.0327678   6.1102480  10.9971380  22.2278333   7.3607421
  48.5127783  20.5318975  22.1343541  48.1043816  19.6904695  22.3379278
  48.2323027  21.1117935  22.8423691  27.3327947  57.3835754   1.4865251
  27.3341227  57.3092604   0.5322152  26.6852021  56.7408371   1.7759129
  78.7952215  74.2624716  68.9193508  79.1045553  73.3569889  68.8939729
  77.8469831  74.1886978  69.0272187  15.1356831   5.0287983  67.5605733
  15.9223118   5.5657790  67.4651878  14.7629300   4.9914334  66.6797266
  67.0852358  67.8320961  38.8007316  66.7476398  66.9567733  38.9906535
  66.5337784  68.1517558  38.0866275  26.2030020   8.2748673  68.9374426
  26.5807667   8.3238909  68.0593074  26.4303770   9.1115401  69.3430412
  15.5931836  55.3881745  67.1590031  16.2974244  56.0071640  66.9663093
  14.8255568  55.9389703  67.3126249  51.6586668  54.7425883  68.9150824
  50.9329111  55.1220612  69.4105724  51.6614754  53.8184039  69.1642929
  45.6077337  38.0053449  15.5237734  46.3682508  37.6688242  15.0498569
  45.9712696  38.3751297  16.3283432  41.9428921  71.0592175  18.1008351
  41.4334726  70.4280472  18.6091185  42.7263975  71.2147903  18.6282289
  17.4540224  18.8199112  65.5090529  16.8538514  18.6517737  64.7825820
  16.9218769  19.2808554  66.1575792  15.3240556  30.8579867  58.4190533
  15.0884861  31.7590325  58.6400876  14.9248261  30.3296290  59.1102025
  10.8270562  37.7950215  59.4543886  11.3409305  38.5760188  59.2489433
  10.2898121  38.0520844  60.2037334  45.8125204  67.8921966  62.5091371
  45.8902223  67.7042203  61.5737978  45.2558357  67.1915178  62.8488174
   3.8701930  31.2041686  64.8088447   4.2837682  32.0255730  64.5433578
   3.6727705  30.7582495  63.9851883  18.5548296   2.2588847  64.8086906
  18.7063065   3.1987164  64.9087349  19.4230929   1.8656514  64.8965750
  71.0983498  35.1526414  63.4607229  72.0067675  35.2099280  63.1645421
  70.5824787  35.1627021  62.6544926  67.9583120   6.4389777  30.7003284
  68.3309555   6.2024301  31.5496874  67.0116806   6.4229465  30.8412600
  45.2501440  34.3059707  12.7419615  44.7299480  34.5971823  13.4908426
  45.6295538  35.1097965  12.3867953  63.3076525  49.1487694  28.9120340
  63.0595636  48.3056927  28.5326862  64.1896343  49.0065336  29.2556953
  75.3533680  44.4697689  61.5865621  74.4290478  44.7141789  61.5404073
  75.7718737  45.2004336  62.0417700  73.8333780  49.7056769  61.9214186
  74.2414028  50.2125023  62.6234696  73.9147264  50.2614556  61.1463544
  46.6324520  31.6837788  29.8839712  46.3088083  32.5840282  29.8517752
  47.4511433  31.7410564  30.3766179  72.5849771  22.2532797   6.0978252
  72.5497437  21.4421463   6.6048276  72.5504637  21.9669271   5.1851130
  11.1915791  30.7473707   1.0179274  10.3655779  30.3884125   1.3421227
  11.1817241  30.5608487   0.0791280  28.9377184  78.4084301  46.8925104
  28.6022563  77.6065974  46.4915595  29.8744155  78.2463913  47.0046458
  56.3352346   3.0727366  19.1133308  55.3857470   2.9640400  19.0595639
  56.5067816   3.2235953  20.0428700  71.8057966  30.4624271   0.9875465
  71.0914230  29.8329425   1.0857796  71.9473839  30.5184793   0.0425370
  29.7329831  27.4354458  56.5456676  30.1907063  28.0570889  57.1116018
  28.8829899  27.8432703  56.3800669  50.2086718  74.0498261  37.9610238
  50.4020388  74.6333961  38.6947045  51.0028822  73.5259824  37.8558931
  38.6590934  16.2256777   8.9737481  37.7543783  16.0039878   8.7533432
  38.8106680  17.0678043   8.5447049  45.6182003   0.5615179   8.9504200
  46.3415623   0.7362262   9.5524615  45.2364874   1.4223054   8.7784535
  33.1541657  14.3525350  19.7528827  32.3251987  14.2741847  20.2250123
  33.0126810  13.8694811  18.9387131  82.1154539  72.4127717  13.4319186
  82.9644457  72.6135571  13.0380535  81.4919130  72.9509533  12.9442847
  19.0703332  45.4795694   3.3233547  19.9135208  45.6797695   3.7297860
  19.2330658  45.5574369   2.3833087  47.9966497  38.0110836  14.0008688
  47.7167368  37.4585700  13.2710695  48.9222431  38.1841731  13.8289607
  81.7110739  18.2251382  33.8507438  80.9134425  18.4569335  34.3264389
  82.4229727  18.5123003  34.4225550  73.6288196  40.9322670  54.6360538
  72.7915985  41.2319455  54.9902854  74.1903192  40.8279316  55.4042110
   8.2971268  67.5700931  65.2235362   7.7918988  66.8800525  65.6534389
   8.1606942  68.3433180  65.7710237  45.3578520  48.2158899  19.4756758
  44.5628643  47.9370070  19.0213108  45.6169939  47.4542570  19.9943197
   7.4726981  24.4330001  37.4854779   7.2568941  25.0262928  36.7659903
   7.9656154  23.7243271  37.0719004  34.6154547  40.3824615   7.4794167
  34.8723960  39.6223497   6.9574571  35.0039530  41.1287928   7.0230329
  34.9666954  43.0784567  63.2520107  34.1259379  42.6955499  63.0015281
  34.9829639  43.9287870  62.8128007  22.5710190  63.3371072  43.4986481
  22.6362384  62.4770455  43.9137039  21.7454684  63.6973743  43.8225398
  64.4950849  38.1139943  60.1160065  64.1589410  38.1480438  61.0115961
  63.8376219  38.5757844  59.5956943  25.9296399  48.5659443  68.9494898
  26.1832696  47.6453142  68.8835851  26.2056142  48.9505576  68.1175402
  83.7218181  71.5746356  21.6359091  84.2828027  71.4204044  22.3960018
  83.3156530  72.4244387  21.8064904  24.0658942  25.5004857  58.9673922
  23.4332886  26.0333893  58.4856686  24.7178831  26.1273978  59.2806277
   4.8974955  16.0547268  18.3869958   4.0732697  16.1167753  18.8697314
   5.1534927  16.9639933  18.2322943  27.7186909   0.5812380  38.6436090
  28.3760348   0.5445311  37.9487834  27.3494807  -0.3014710  38.6708984
   6.4150733  43.7605906  16.8082702   6.9138122  43.4107018  17.5465560
   6.5555531  44.7064590  16.8511093  85.5729398  15.6646388  18.5163271
  85.2138147  16.4866107  18.1822360  84.8102102  15.1819938  18.8349569
  35.7863688  50.7834864   9.4750315  35.4296875  49.9550676   9.1545063
  36.7190742  50.7401896   9.2642742  18.3429327  14.8019240  67.1920988
  18.6037865  15.6972859  66.9764176  17.7160874  14.5639346  66.5089724
  17.9087818  33.7633348   2.5296104  18.7595201  33.4456635   2.8322011
  18.0956829  34.1881299   1.6924441  74.6102933   5.8376858  56.8711278
  74.2244176   6.5010569  56.2990532  75.5314604   6.0882590  56.9410989
  32.8067088  57.9963779  21.8124199  33.1466675  58.5351419  21.0980010
  33.5724378  57.8064442  22.3544645  80.5051479   2.7176707   7.5297129
  79.7473154   2.1532290   7.6824301  80.3383741   3.4928458   8.0659336
  28.1561923  59.0746784   3.5755637  28.0266547  60.0099087   3.4181032
  27.7236915  58.6453533   2.8374189  48.0227375  13.1961298  36.0389853
  48.0000734  12.6414120  35.2592373  48.9544106  13.3467364  36.1987782
  35.3096271  78.8248158  16.2853026  35.8838463  79.4155931  16.7726266
  35.8800936  78.1053019  16.0149264  13.4364116  65.3403997  18.2971656
  13.1285810  65.6479502  17.4445891  14.0301847  64.6184158  18.0912435
  29.0768194  39.4488406   0.8970474  28.7876058  39.1305900   1.7522109
  29.6218133  40.2100325   1.0965506  74.1355124   1.1575005  64.2588666
  74.5809737   0.5336974  64.8321540  73.5776225   0.6146691  63.7017993
  28.5265851  43.2953882   9.8026705  28.7332749  42.5307178   9.2652810
  29.0423298  43.1743383  10.5999053  50.8575916  12.8025460  20.3958988
  51.1870432  12.7685869  19.4978225  50.5907965  11.9034255  20.5873060
   4.5602441  55.0074100  13.9504039   5.3582424  54.6225882  13.5879898
   3.9434430  54.2771339  14.0002871  40.4975462  30.8696389  13.4716046
  39.6573925  31.2910247  13.2904780  41.0522270  31.1128902  12.7303946
  58.8697321  48.3426152  56.6204223  59.3356473  48.6186276  55.8311364
  58.6398250  47.4282061  56.4554069  62.0928127  77.3749642  57.2390613
  61.8268663  77.9589777  57.9492948  62.7515728  76.8031459  57.6331339
  31.6295695  71.3782215  19.9369216  30.6750417  71.3484240  20.0018883
  31.8832660  70.4802418  19.7235966  31.6263962  39.3001223  14.7253466
  31.1161566  38.7371826  15.3075695  31.3934708  39.0072846  13.8443112
  53.1810665  30.0538778  14.1957211  52.6529741  29.2661357  14.3253720
  54.0636873  29.7971678  14.4627595  19.1865003  77.1419621   4.0368548
  18.6963189  77.1289253   4.8589161  18.6123550  76.7038155   3.4086692
  45.3167364   0.5758040   2.3973067  45.6822655   1.2869876   1.8711562
  46.0808489   0.0878375   2.7043146  59.7265911  47.4266911  24.2236757
  59.8080730  48.3093166  23.8623357  58.8958931  47.4382687  24.6991086
  44.0663338  29.6682024  22.6179147  43.7809372  30.4187298  22.0968676
  43.2658100  29.3457747  23.0319571  24.5582524  76.2373588  35.7983804
  24.7006836  75.8727799  34.9248648  23.8351050  75.7232387  36.1575031
   6.1414653  52.2474055  52.1169290   7.0106250  52.1974485  51.7190609
   6.0649138  53.1547670  52.4119983  39.8747444   8.4004629  21.6760159
  39.6264291   8.0964023  20.8030224  39.5871115   9.3130374  21.7025995
  38.3184409  10.8413017  30.1134515  37.4712253  11.2638748  29.9724126
  38.5702252  11.0994983  31.0001135  39.7293091  23.9667296  24.3440604
  39.5733595  23.0235863  24.3929887  38.8756323  24.3395424  24.1238809
  72.6954437  27.2768903  27.5535488  72.1631051  27.8116179  26.9645548
  72.1308507  27.1196866  28.3103538  78.8501961  55.3495781  59.7793195
  79.0316994  54.8150294  59.0063092  79.6790344  55.7907204  59.9654600
  55.6282187  41.7245817   9.8244292  54.7328186  41.4203930   9.6762437
  55.6224298  42.0582628  10.7215667  36.2774277  32.2146082  10.2490735
  37.0782757  32.0363593   9.7560203  35.6763911  31.5159941   9.9903756
  48.1906414  33.8949466  17.8688598  48.1882000  33.7697601  16.9198847
  48.9516068  33.4007311  18.1736863  78.4990797  62.6988533   5.6166544
  79.0209684  63.3807948   5.1937857  77.7920017  62.5194814   4.9968996
  16.4149106  31.7093921   2.6982066  16.9804454  32.4811840   2.7254024
  15.9637475  31.7131877   3.5424039  14.0710664  39.2547441  24.8450994
  14.3681681  38.4628582  25.2932954  13.1159449  39.2122769  24.8916841
  44.8683257  73.6540084  63.6396143  44.9348325  73.4154134  64.5642123
  45.0510258  72.8409319  63.1686989  55.0213940  55.2851455  58.3351681
  54.5363504  54.8508088  57.6335153  54.5734198  55.0171404  59.1374919
  68.6743671  73.4507231  64.8661554  68.1256372  72.6897268  65.0559307
  68.7872059  73.4336214  63.9157835  37.9808226  18.8287756  47.6241002
  37.7818528  18.1128619  48.2275162  37.8807774  18.4432051  46.7537222
   3.1187075  59.3310213  40.3950930   2.3721907  59.6285295  40.9151268
   3.1859207  59.9697256  39.6853232   3.1905213   6.2257836  54.9735245
   3.9611831   6.4945338  54.4734380   3.2291212   5.2693722  54.9774656
  37.0358849  33.9248157   5.4609078  36.6566062  34.0742683   4.5948574
  36.9321418  32.9848242   5.6088495  51.6621501  67.7075247  64.5496104
  51.8986947  66.7800956  64.5620284  52.4983103  68.1669526  64.4721815
  74.3617773  36.9114232   7.5971872  74.1640615  37.6266479   6.9925433
  74.4173622  37.3317432   8.4553671  29.6532202  54.5557308  16.6066408
  29.5516396  55.3218889  16.0419106  30.5903792  54.5222235  16.7985773
   7.4073782   4.4492695  43.0833015   8.0173388   3.8651917  43.5338936
   6.6679325   4.5339177  43.6852011  20.0559225   7.3553441  47.1294293
  19.2227974   6.8951771  47.0275721  20.7036105   6.7667315  46.7417822
  48.3902902  69.3508200  60.5524555  48.3312601  69.8971395  59.7686932
  49.3030197  69.0634017  60.5758825  28.5161734  24.4101596   4.9124160
  28.6435127  25.3536510   5.0116181  29.3382907  24.0243983   5.2149749
  51.1390972  71.1575556   4.2712247  50.2122974  71.3679838   4.1572201
  51.2902641  71.2437916   5.2124709  12.3287335  16.3822958  41.1497245
  11.7196360  16.9037554  40.6269274  13.1938210  16.6151354  40.8126054
  47.7158594  28.8679147  38.6650801  47.9770565  29.0975690  37.7733016
  46.8375444  29.2364454  38.7598181  24.7167283  76.8306164  50.7997439
  24.2221432  76.1635737  50.3236446  24.5422536  77.6429372  50.3244290
  32.3882198  51.3452482  11.7822623  31.4315343  51.3728857  11.7673457
  32.6426554  52.1243525  12.2767246  37.4221110  49.4698286   2.8583667
  38.1607056  49.4206715   3.4652394  37.2159290  50.4031515   2.8071246
   2.2049980  20.7036734   4.5398343   1.4470369  20.8553910   3.9752913
   2.9604569  20.8337045   3.9665931  41.5421915  24.1312814  16.2046599
  40.7039976  24.1091442  16.6663671  41.3061190  24.2567611  15.2855539
  64.5736647  39.4576764  10.0075257  65.3105688  39.1058350  10.5069399
  63.9323759  39.7094131  10.6720614  28.7959814  61.4968204  32.3560238
  27.8899693  61.5123320  32.0475888  29.2582965  60.9577990  31.7141914
  84.0813653  29.9345324  53.5697493  84.3689124  30.2570651  52.7156279
  83.7933318  30.7185671  54.0372596  74.9080578   3.5616896  62.5922761
  74.8844115   3.1609652  61.7233166  74.7480051   2.8357193  63.1952522
  49.6420860  74.3946743   3.4380013  50.2344894  73.9224148   2.8529710
  50.1776648  74.6040154   4.2032212  24.8088288  25.9069109  20.8720899
  24.5044303  25.0863171  21.2596440  24.1954708  26.5666699  21.1957264
  17.0283270  44.9675608   5.9554791  17.6076126  44.4731712   6.5353417
  16.3062036  44.3673277   5.7697588  64.2929554  16.2109816   3.6088690
  63.5080290  15.9493256   4.0901738  64.9221182  16.4510727   4.2891204
  18.9086258  59.4785643   9.3859345  18.6939907  59.3500328  10.3098631
  19.2286599  60.3793764   9.3374586  45.8148629  76.4339404  47.7687440
  46.5096349  76.5843158  47.1277199  45.4011053  77.2900538  47.8787765
  58.3433485  41.7691326   4.6298277  58.0272865  42.2410250   3.8593400
  59.1998720  41.4307976   4.3688095   2.2672396  70.2548866  64.2073360
   2.8542453  70.7783560  64.7528968   1.5394049  70.8430342  64.0059022
  45.5060434  64.9014854  21.9335389  45.2682257  63.9780569  21.8501711
  45.9696102  65.1037359  21.1208725  22.5161019  22.6167223  62.6618520
  23.1184664  21.9660208  63.0223707  22.8072253  22.7378104  61.7580721
  36.8796292  27.6109431  64.1038070  36.8767014  26.9534657  63.4081462
  36.1019507  28.1426070  63.9341566  59.9795485  36.3348699  23.5560250
  59.6451473  36.3245511  24.4528532  60.3041315  35.4461074  23.4111905
  48.8082123  36.7514801  31.0062146  48.8494778  36.0062099  31.6054630
  49.4491720  36.5471029  30.3253102  72.5842714  36.1826611  37.4922872
  72.6595831  35.3571057  37.0137262  72.5299406  35.9223747  38.4118128
  61.8238783  66.4731169  33.7763619  62.1565437  65.7899475  34.3584681
  61.6412067  66.0189009  32.9538345  84.7923605  47.0482466  35.6217441
  85.1322905  47.5505564  36.3622627  84.0342156  47.5489638  35.3205285
  74.3905449  34.1884708   6.3571954  73.8281393  33.7645698   7.0054567
  74.7511435  34.9487162   6.8135113  71.0087156  53.3443880  28.4620142
  71.9051456  53.4057140  28.7919903  70.5420017  54.0541363  28.9032245
  43.4705248  23.6702654  61.1571303  44.3135300  23.9309714  61.5280912
  42.9098215  23.5207627  61.9183728  40.6071225  28.5698435  35.7374511
  40.2690068  28.9485047  36.5489468  40.2878418  29.1537449  35.0494442
  18.1952226  50.4885912  26.2103534  18.1826091  49.5548630  26.4206386
  17.6427460  50.8923244  26.8796802  64.0749836  38.3383942  16.0857964
  63.9243221  38.4629798  15.1487732  63.8095474  39.1676641  16.4834011
  45.3701401  72.7824593  13.2619607  46.2191439  73.1319332  13.5326827
  45.0201702  72.3663807  14.0497601  78.1929047  75.4051690  66.5656791
  78.8632137  76.0011201  66.2313721  78.5034496  75.1601414  67.4373186
  15.4706868  23.4570449  47.4417114  15.7226332  23.2483142  48.3412600
  16.2467965  23.2495063  46.9213152  72.4610710  62.3239994  22.4426413
  71.5699291  61.9753551  22.4659944  72.5482082  62.8136396  23.2605004
  50.9294891  42.0422888  14.3374431  51.7918968  42.3017836  14.6617103
  51.0474443  41.1407518  14.0381861  52.3031950  45.0090027  12.5240862
  52.8950500  44.2746782  12.3606718  51.4901543  44.5999432  12.8205025
  43.8558054  48.1536865  10.5319631  43.6014128  48.8364315   9.9111784
  43.1251192  47.5354624  10.5207741  42.8639927  20.7816956  54.0504191
  42.4119416  20.7679675  54.8940382  42.6886645  19.9206994  53.6707041
  64.7085766  29.9057553  36.8103108  65.4105190  29.7651265  37.4457106
  65.1233331  30.3945754  36.0994944  70.3113517   8.7971061  21.6048813
  70.7474002   9.3312495  22.2687936  69.4896040   9.2558520  21.4301944
  63.0093145   3.3335492  11.6039670  63.4168434   2.5611299  11.9957852
  63.7437773   3.8479719  11.2690556  13.5733092  47.1447420  18.1854630
  13.5283864  47.9175377  18.7484932  14.4141567  47.2250223  17.7351725
  40.3622818  46.2442970  12.9334664  39.8493385  45.6929827  12.3425579
  40.9571123  45.6362438  13.3724141  37.3735809  47.7278614  16.9439757
  36.5852880  48.2681656  16.9977331  37.5113964  47.5979614  16.0056984
  70.6898148  72.9680447  56.6605983  69.7843582  73.2781367  56.6454587
  70.6169683  72.0222621  56.7887316  62.3459482  33.7728143   1.7291725
  63.1871891  33.5938287   1.3090409  61.7075443  33.7232208   1.0176884
  20.1923504  79.7289311   9.8290527  20.4848376  80.4307626   9.2475772
  20.7636204  78.9901718   9.6190131  47.0868587  34.5065212  29.9608159
  47.6454878  34.2355156  29.2323089  47.6485395  35.0647020  30.4985714
   8.4040791  45.5756569  13.7784469   7.9290688  46.1016035  14.4218588
   9.0172845  45.0567722  14.2989922  30.6646815  14.3552420  64.4942484
  30.3225842  13.4767458  64.3285916  29.9970475  14.9429009  64.1404710
  64.9474096  33.8747311  15.3359950  64.9859715  33.9953399  14.3872070
  65.7494020  33.3978534  15.5496037   1.4130679  31.9571898  55.7100484
   1.3673797  32.9132626  55.7018611   1.3860670  31.7081902  54.7861955
  54.2382812  64.2264605  24.7199750  53.9637613  64.2767000  25.6355882
  55.1932335  64.1736412  24.7587967  15.1572934  48.6411688  38.2315883
  14.6598330  48.8403533  37.4384365  14.9636927  47.7210734  38.4110007
  44.4834938  12.2031853  60.5527732  44.4521084  13.1590865  60.5139909
  45.1917878  11.9623778  59.9556485  58.1881094  60.5806875   1.3927548
  57.3537254  60.9842682   1.6318354  58.6577463  61.2655687   0.9167229
  67.5867605  33.2864761  22.2283959  68.1037235  33.0783916  23.0066514
  66.9432783  33.9265895  22.5323987  79.8075945  73.1122880  41.4101753
  80.2250463  72.4151211  40.9042845  79.8552734  73.8815598  40.8425698
  16.0967102  27.9984305  35.7756815  15.1837197  28.0677960  36.0547290
  16.5389576  27.5688098  36.5078482  79.7407932  29.8765635  15.6876934
  79.1830732  29.1290784  15.4721785  79.9828644  29.7386265  16.6034472
  81.3167755  34.7857020  65.6424588  81.1382166  35.7156918  65.7819996
  80.5458752  34.3387244  65.9919629  16.0781002  39.4218540   6.2845832
  15.3812897  39.4553065   5.6291699  16.8685925  39.2207050   5.7836914
  15.5044925  31.4097857  31.4337921  14.7400928  30.8522224  31.5788722
  15.4769158  31.6156411  30.4993963  48.8913012  68.1997585   8.1507540
  49.6778107  67.7616453   8.4758514  48.7771749  68.9505434   8.7334466
  17.1252242   7.8187773  66.4823285  16.1882391   8.0100749  66.5235204
  17.4593535   8.0715773  67.3429570  32.4728337  15.8593724  66.5719170
  32.7131405  16.7803738  66.4707262  31.6462412  15.7739232  66.0968683
  71.0359383  70.3311396   6.0858536  70.1731253  70.4808617   6.4723366
  70.8525944  69.9062920   5.2479261  10.5695835  18.7727854  63.5400370
  10.8755985  18.1912730  64.2360470  11.3702574  19.0764353  63.1123129
  63.5278273  32.3265409  31.8434572  63.9804459  32.3940754  31.0027385
  62.6174688  32.1432567  31.6113234  14.5207632  39.7552705   3.5127783
  15.2498281  39.1350365   3.5155353  13.8417828  39.3244791   2.9935130
  31.9324875  72.4946404  27.5124788  32.5616503  73.1538725  27.8053951
  31.2633252  72.4814510  28.1967878  34.9177670  38.0372453   5.2321184
  34.7710872  37.2728586   5.7892823  34.7170520  37.7310395   4.3477079
  45.8470058  40.0727034  17.6290429  46.6902733  40.4333067  17.9030776
  45.4002762  40.8047342  17.2038412  44.2761278   4.3353137  16.1443961
  43.8948345   3.5090744  15.8474481  44.9345589   4.5467874  15.4825962
  25.3992548  14.2488453  59.5195100  25.1647320  13.4469721  59.9866626
  26.2880555  14.4467423  59.8146454  13.8293066  11.1191103  34.0978560
  14.0412608  11.3077853  35.0120268  13.0959263  10.5056880  34.1437135
  35.9904185   7.4725602  56.4813444  35.8734503   6.5771220  56.7987416
  35.1561394   7.6902030  56.0655985  22.8541541  28.8970280  23.4822989
  23.6249828  29.2832208  23.8981271  22.1169209  29.2113209  24.0056896
  32.4566737  16.1923239  49.8458752  31.7371121  16.6656086  50.2635631
  33.2133379  16.3634751  50.4065904  34.6450272  11.2024376  53.2659516
  34.4293633  10.3347847  53.6078546  34.3840590  11.1688731  52.3456237
  37.1789765  73.0520439  18.5470521  36.5284181  72.5847149  19.0710819
  38.0136919  72.8596020  18.9741933  76.2479717  73.3423571  68.9907528
  75.4775841  73.2650618  69.5535682  76.5411121  72.4404626  68.8607929
  35.7373610   5.8532736  68.9074932  36.4319744   6.3238642  68.4467476
  34.9669495   5.9563038  68.3488515  52.3964500  37.5164604  27.3726034
  52.4447775  38.2160354  26.7210746  53.3067846  37.3592997  27.6232553
  61.7152262  42.8811598  25.5515122  62.6642990  42.8540850  25.4299998
  61.5761614  42.5288391  26.4305806  24.8511305  13.1767533  39.4432077
  24.0781823  12.7376339  39.7981176  25.1013794  12.6467249  38.6864552
  51.5950918  55.7267523   0.9081028  52.4498701  56.1270857   1.0672068
  51.1169910  55.8489323   1.7283009  37.1251583  62.5612688   5.4840642
  37.6513672  61.7617369   5.4747510  36.9761372  62.7391195   6.4127159
   5.4671398   1.0389063  65.9444330   6.1646214   1.6861079  65.8401028
   4.8033395   1.4848444  66.4704928   1.0064831  30.4006598  43.3121428
   0.8448544  30.9653542  42.5563464   0.1354041  30.2140162  43.6623106
  25.2180939  77.6341037  46.6722069  25.7337552  76.8289213  46.7170391
  24.5153504  77.4343447  46.0537514  51.6130495  32.2147298  25.4581165
  52.3220491  31.6927862  25.8337903  52.0518970  32.8194880  24.8598552
  19.1068879   4.6024630  65.9915173  18.9057246   4.0961621  66.7785547
  19.5211687   5.4005835  66.3195408  24.6075678  24.6551228   8.8831371
  24.3638682  25.4988289   8.5023439  25.2808809  24.3125677   8.2953119
  40.0248909  45.2196264  18.3655679  40.0458717  45.9580088  17.7568138
  39.0944386  45.0820112  18.5431874  29.9340001   9.1698239  57.8782806
  30.1670351   9.5460579  58.7270293  30.7642594   8.8574049  57.5186965
  60.1082570  79.3068890  51.0028622  60.9585339  79.7460775  51.0222611
  60.3157169  78.3785276  51.1093411  42.9350901  65.1531315  28.1731176
  43.8631773  65.2418995  27.9563069  42.7302122  64.2384720  27.9790568
  58.0537510  53.7144804   3.8203090  57.6421690  53.4366894   4.6386397
  57.4730396  54.3945217   3.4789270  67.8003597   5.6516171  10.6090009
  67.2682810   6.0994220   9.9512786  67.7002096   4.7216871  10.4054511
   0.3172818  28.2834313  66.4753580   0.1324764  29.2074368  66.6435686
  -0.4200205  27.8163168  66.8683178  83.7862570  56.9441347  60.3199366
  84.6180469  56.5375738  60.5629734  83.4763271  57.3560731  61.1264602
  38.7247753  54.3495703   2.1511400  38.8531899  53.4876490   2.5471550
  38.6998463  54.9530315   2.8937334  50.9882545  78.4588814  26.3622093
  50.3579092  78.1771135  27.0251608  50.5136919  78.3858871  25.5341434
  22.3226586   8.8643954  61.1153064  22.5584498   9.5267413  61.7648659
  21.5548554   8.4287283  61.4853177  36.5574336  33.8077474  14.0010500
  35.7046318  34.1259241  14.2972338  36.7022920  33.0067039  14.5046151
  79.0559578  38.1832051   6.2292242  78.5549688  37.4065661   6.4783764
  79.3489218  38.0028582   5.3359830  38.7265205  37.0805168  22.2641158
  39.5000029  36.9148850  22.8031206  38.6941791  38.0332828  22.1779609
  35.8690491   4.4378016  50.8718822  35.6456652   3.5280678  51.0686335
  35.2220717   4.7077200  50.2201185  59.6446133  41.7883015  32.3988962
  58.9664507  42.2917938  32.8492522  59.6303701  40.9317732  32.8259659
  11.4810591  63.4211020  57.9491744  11.0839301  63.4127192  57.0782826
  12.4086362  63.5936861  57.7877877  13.3576279  76.3217597  50.1760766
  13.9611989  77.0217089  50.4250846  13.7456351  75.9396891  49.3888650
  16.1068916  42.1462584  20.9791684  17.0052421  41.8482685  20.8363342
  15.9301794  42.7346992  20.2451777  45.7435656  40.9656858   1.9590163
  45.5912399  41.8876696   1.7517307  45.4926729  40.4966593   1.1632161
  48.9508343  12.8395212   3.7480080  48.6010265  11.9503629   3.8051289
  48.7784624  13.1071842   2.8453031  15.4070177  17.1458170  49.6363578
  15.3625908  17.1813271  50.5918655  14.7800770  16.4648221  49.3925772
  65.0824642  45.7494831  27.3629355  64.3532944  46.2510443  26.9982624
  65.6808567  46.4125824  27.7071166  78.5990334  23.5531902  15.9436715
  78.9275646  22.7275205  15.5879045  79.3819332  24.0907097  16.0635567
  56.2933922   5.9397149   9.2068660  56.7052126   5.2241910   8.7224495
  55.8869648   6.4832056   8.5318351  74.9585802  77.1523909  48.9559231
  74.1929514  77.7248244  48.9073000  75.1413614  76.9190459  48.0457721
  36.2770295  29.1913891  18.3659542  35.4914546  29.1576648  18.9118147
  35.9462643  29.3301964  17.4785089  26.5001178  23.7511945   6.9022667
  26.0116005  23.1977701   6.2929189  27.2940850  23.9908314   6.4243340
  23.0774060   6.3691018  57.7425096  22.8035536   7.2812388  57.8386519
  23.4015742   6.1237404  58.6090812  50.9856510  72.8473043  11.9228232
  50.7085180  73.3869886  11.1824417  51.5908432  72.2109127  11.5420568
  25.7721734  16.3105953  16.3967955  25.8906126  16.6598129  15.5134773
  26.5704036  16.5605366  16.8621862   5.8615714  57.9819708  49.0690646
   5.7227021  58.9290254  49.0748582   6.6770917  57.8565066  49.5542559
  32.4738812  48.9359903  15.7367051  33.0745816  49.6809769  15.7563388
  31.6052890  49.3260336  15.8349228  72.4657661  75.5309992  37.6326403
  71.5450699  75.4028110  37.8609404  72.4432213  75.9441905  36.7695102
  14.2518559  37.1387074  69.7303705  14.7932711  36.9063017  70.4847495
  14.8382416  37.0517466  68.9788250  32.8316632  42.2072146  59.2701599
  33.1384316  41.3755152  59.6312675  32.1722117  41.9584391  58.6224994
  47.7861309  57.5279331   0.0191380  47.4200439  58.2567692  -0.4818624
  47.2986555  57.5347567   0.8428811  54.0636063  66.8099260   9.3498719
  53.3610678  66.1964226   9.1347408  54.5612049  66.3717175  10.0402367
   8.6380385  61.5707493   9.9978656   8.1002520  60.7877541  10.1158905
   9.0297221  61.7241335  10.8576858  12.8886794  71.8704271  16.3584244
  13.6092280  72.2896671  15.8880186  12.1199321  72.3957872  16.1364782
  47.0232677  19.0372074   6.0077226  46.4369345  19.2247272   6.7407179
  47.5713110  18.3162701   6.3177717  47.7189445  34.7282696  15.0779450
  48.2512426  34.2969608  14.4094670  46.8188715  34.6306062  14.7672033
  19.7475424   7.7861521  56.7481479  19.5841542   8.7104151  56.9359562
  18.8795224   7.3828099  56.7572520  37.3569393  57.2218370  16.3307822
  37.5142837  58.1438255  16.5342808  38.1025100  56.9657803  15.7878339
   1.4140540  72.1552496  59.6202395   2.2480469  72.0509963  59.1621849
   0.8308965  71.5209250  59.2033527  28.6039758  33.4469271   3.5786918
  27.6982427  33.7494016   3.5124722  28.9487123  33.8908744   4.3534818
  48.7761354  34.5175934  32.5893688  49.2095327  35.0050640  33.2899213
  47.9151058  34.2997980  32.9463339  62.1879864  64.3957424  31.9932175
  61.6449642  64.5012569  31.2120461  61.8643665  63.5936689  32.4033213
  62.6768446  55.2095747   4.3342811  62.8230333  54.6440840   5.0926185
  63.1717396  56.0052252   4.5298734  10.7357776  63.8401318  13.1825376
  11.3721919  63.5802794  13.8486350  10.4857910  63.0198669  12.7572060
   1.3312417  65.7484345  57.7420697   1.6260224  64.8855953  57.4507901
   1.8098098  65.9026723  58.5565731  26.2341857  59.3883133  23.7185740
  25.4989719  59.7669935  23.2366061  26.4303398  60.0311613  24.4001174
  57.5885344  44.9031973  19.2652690  57.8116131  44.0629387  19.6658039
  57.6399660  44.7407103  18.3233643   6.0351401  60.1642637  53.5552606
   6.6507035  59.4333069  53.5003671   6.5033942  60.8349018  54.0524659
  44.6117640  18.8513827  18.7411070  44.3814898  19.5974731  19.2947793
  45.0013971  19.2440593  17.9599392  46.7556143  17.7311611  13.5761094
  46.0974121  17.4008417  12.9646456  46.7987967  17.0665371  14.2635989
  39.0590706   8.3432648  63.8868437  39.9289647   8.0895112  63.5784182
  39.2215481   8.8016198  64.7113106  17.1191826  15.3630326  40.1241598
  17.7496043  16.0131094  39.8140034  16.2646952  15.7676241  39.9745307
  20.9014773  21.1395121   8.8422060  21.7508960  21.5345478   9.0388381
  20.9284425  20.9698939   7.9005408  85.0001869   3.5417979  16.2029827
  84.2601308   3.9429133  15.7472920  85.6365738   4.2506640  16.2965417
   0.8107677  33.3047555  64.5732567   0.0076094  33.2546065  65.0915742
   1.1871853  34.1560290  64.7965867  12.0774537  77.1696977  60.0490562
  11.5118581  76.9707446  59.3028984  12.4934560  78.0006270  59.8194191
  54.8542786  45.8743811  19.0715241  55.7764244  45.6362200  19.1672230
  54.3819523  45.2095842  19.5727098  24.6802918  19.8950503  58.2903049
  25.3989593  19.3631909  57.9484293  24.5081321  20.5365346  57.6010380
  49.1819572  70.4535627  24.6717048  49.9502325  70.0521660  25.0777388
  49.0811014  71.2904453  25.1252341  57.8740788  23.8878036   9.8798913
  57.6707840  23.5412931  10.7487035  57.3680162  24.6981382   9.8207867
  71.9417524  29.9067283  31.2213326  72.3168707  29.0689015  30.9501052
  72.5780392  30.5596614  30.9297037  42.7421808  67.0153666  22.2286320
  42.7514124  67.7220821  21.5831113  42.6364803  66.2181520  21.7094874
  11.4026964  38.2789397  25.4185700  10.8835566  37.6498389  24.9176145
  11.0155070  38.2658744  26.2938690  70.8781127   8.4350703  68.2822457
  70.0206260   8.0141947  68.3439567  71.0197619   8.5534880  67.3430196
  73.8846302  68.6787271  17.8287494  73.5145140  68.7741375  16.9511735
  74.2166567  67.7812672  17.8523886  54.0533113  56.2389851   7.7997196
  53.9582825  55.7528591   6.9806445  53.5044098  55.7651281   8.4245402
  76.6411018  65.6281328  58.6805916  77.3172855  65.2881289  59.2665958
  76.1603975  66.2626219  59.2121744  84.6222655  53.0535910  54.4381950
  85.3993575  52.6228259  54.0821097  84.6979181  53.9624808  54.1476199
   6.5084854   9.1321204  63.1527868   6.7831507   8.4039137  63.7100175
   5.7224908   9.4755719  63.5776195  74.9201107  66.0851812  17.9395735
  75.8067656  65.7486486  18.0692518  74.4591570  65.3780460  17.4882257
  72.2063572  69.4749956  46.1725793  73.0025131  68.9699273  46.0074219
  71.4993412  68.9244990  45.8359608   6.8220988   7.4130461  47.9052458
   6.2471238   8.1543896  48.0951080   6.5603128   6.7398903  48.5333833
  42.9529142  50.7035351  28.5175705  42.3331738  51.0642338  29.1516423
  42.8442049  49.7552299  28.5891962   3.4538441  76.6696386  64.8941887
   3.5681611  75.7455592  64.6722791   4.2736226  76.9163232  65.3223715
  40.4090929  18.1618750  12.4600828  41.2378645  18.2238686  12.9349780
  40.3786945  17.2573340  12.1484530  35.0006211  75.1682501  53.1403384
  34.9991018  75.5079488  54.0352318  35.8528680  75.4249220  52.7881655
  61.0614061  27.7975416  25.3786469  61.8363714  27.4506855  25.8206320
  60.4670906  27.0498776  25.3152514  74.4792730  71.4816122  66.0705728
  75.3216345  71.1135249  66.3373599  74.5417816  72.4100618  66.2948549
  43.7306681   1.3763258  69.2897156  43.8252726   2.3257706  69.3661067
  42.8684321   1.2527058  68.8928579  44.9378252  47.7997589   6.7500049
  45.4956675  47.2825098   7.3309529  44.6633911  48.5458469   7.2831738
  78.0470133  40.7004118   1.8923464  77.9012442  40.7495260   0.9475864
  77.5445318  39.9354911   2.1727756  59.2918777  76.1107111  16.0081577
  59.2973042  75.6331491  16.8376994  58.6782455  76.8313837  16.1506879
  40.9447908  46.2486839   4.6333677  41.0133743  45.9062147   5.5245709
  40.4652452  45.5733919   4.1535252  70.6938011  79.3330674  56.9549832
  70.6102163  79.4574861  56.0095916  71.3154537  78.6111145  57.0475123
  75.0972731  79.2089514  61.5931914  75.7350857  78.6055975  61.2118927
  75.4279501  79.3813710  62.4747566  48.9228821  50.5936337  15.9098125
  48.8466549  50.9214067  15.0137186  48.5946274  51.3085747  16.4550960
  64.0200338  12.6567214   3.5649839  64.0235314  13.0975383   4.4146341
  64.6463570  13.1509726   3.0361506  48.7427711  61.2353706  21.5738463
  47.9328823  60.8153963  21.8635654  48.7147856  62.1071768  21.9680595
  50.6144190  79.3546247  48.9241028  50.7606030  78.6919022  48.2490730
  49.9378157  78.9781141  49.4868469  65.7225657  62.9630089  28.9356542
  65.9918165  62.0463181  28.8772464  64.8388243  62.9301977  29.3019199
  12.2895565  12.4223254  48.9026675  12.5076285  12.2988675  49.8264835
  11.8945065  11.5919755  48.6367903  12.2351455  79.2953300  15.0772154
  12.3813342  79.5390511  14.1631806  11.3317965  79.5581150  15.2536297
  29.4494524  34.4469855  61.6403363  30.1941338  34.9692414  61.9385502
  29.3084898  34.7256634  60.7355145  12.0487538   0.6248400  68.3943464
  11.4385500   0.8662865  69.0911871  12.9134217   0.6911109  68.7995498
  13.8516760  61.2898779  22.7696300  14.2349958  62.0164728  22.2783494
  13.3373463  60.8078432  22.1220636  15.7948363  74.8696613  26.2556767
  14.8636591  75.0890303  26.2237573  15.8447278  73.9840078  25.8960152
  47.5273418  40.0317669  20.6193089  48.1304884  40.3199530  19.9341834
  46.7488003  40.5750561  20.4970765  22.7222529   0.8700440  65.8450929
  22.9712334   1.7785094  66.0151944  21.7796984   0.8451293  66.0100043
  61.7372179  54.4921494  33.6998415  61.9132280  54.3677473  32.7672243
  62.5391197  54.2034101  34.1355252  46.1837196  22.6866937  35.4210591
  45.7389259  23.3825183  35.9050179  45.5889034  22.4779820  34.7007370
  62.2639751  50.5350733   3.7705180  62.6925659  50.8436966   2.9722106
  62.3147583  51.2778568   4.3721208  12.8508129  30.9637282  62.1969334
  13.0386248  31.8987057  62.1145872  13.4272852  30.5463526  61.5568474
  46.0222149  50.3000784  11.2638628  45.8705521  50.4842520  10.3368735
  46.0060120  49.3449068  11.3240564  67.9174137  60.5299044  19.4287431
  67.9271936  61.0610485  18.6324906  67.4867535  59.7157097  19.1682613
  11.6811409  29.7259591  35.9797702  10.7859340  29.5026467  35.7248864
  11.6929522  29.6195719  36.9309673  51.0692930  37.4907660  34.2656493
  51.7540836  37.8660131  34.8192596  50.6555223  36.8248010  34.8147535
  47.0565224  42.7643251   6.5747947  46.8334007  42.1044064   5.9183240
  47.7951956  42.3868704   7.0524108  80.5162048  25.1706195  23.2556868
  80.6881809  24.4836378  22.6117063  79.5646858  25.2743578  23.2469273
  62.8034306  76.0024023   3.7841481  63.1173611  75.7419729   4.6500909
  62.6277351  75.1758528   3.3345062  21.3963421   5.7594531  13.8816094
  21.1092909   5.2734702  14.6546900  20.6878241   5.6428092  13.2486534
  57.8848362  72.4777222  35.9121633  57.0848799  72.0807505  35.5676198
  58.4171867  72.6554680  35.1367664  49.7632504  41.6747093   7.4375010
  49.6632004  41.1040545   8.1994563  50.1675510  41.1175394   6.7724204
  73.9595444  78.8979821  54.1498062  74.4055683  78.1248526  54.4955919
  74.1880352  79.5992260  54.7599575  34.3862667  24.7137949  59.1052887
  34.1108408  24.0102694  58.5175595  33.6045208  24.9164507  59.6191320
  63.5210762   4.2335933   5.8512163  63.2626781   4.0907138   4.9406967
  62.7495179   4.6252673   6.2605089  66.8295628  68.5254936  51.8506143
  66.9656450  69.0619473  51.0696337  67.1576888  69.0636472  52.5709996
  19.1547185  79.6434407  50.4852340  18.7834388  78.8849573  50.0345847
  18.7031823  79.6654443  51.3289509  65.4651723  16.3921302  22.1544814
  66.4018116  16.2556594  22.2970057  65.2332673  17.1036856  22.7512503
  65.3619582  54.5346801  67.8579471  65.9619815  54.6639030  68.5924569
  65.5109460  53.6299174  67.5832858  50.0414640  57.8130810  66.6433579
  49.2457015  57.7490561  66.1152551  49.7416360  57.6906864  67.5441102
  19.7257357  39.5434171  40.8441720  19.2277842  38.8905887  40.3521428
  20.5410605  39.0984309  41.0753951  49.1404819  41.5226793   3.4217334
  49.0046120  41.9181490   2.5607035  50.0910044  41.5146923   3.5343334
  84.9204270  20.5576108  59.2630157  85.7220999  20.3573535  58.7798462
  84.8608271  19.8681853  59.9243597  50.1261425  65.0062656   7.7011460
  49.2032099  64.7622538   7.6312220  50.5865002  64.1738987   7.8082240
  81.3917923  45.2700281  14.7684443  81.5459156  46.2145281  14.7884297
  80.4630375  45.1833963  14.5536578  10.2194801  12.0534585  53.3016536
   9.8515764  11.2916491  53.7494585   9.8672715  12.8048871  53.7786588
  60.0005562  76.5836720  69.0802532  59.4789369  76.3286333  69.8412398
  59.3586428  76.9026880  68.4458988   2.9585347  35.9996915  13.4091556
   2.6952302  35.4806352  12.6492321   2.1426030  36.3814569  13.7327969
  56.1004019  16.2317467  26.3623929  55.1499939  16.1306846  26.3100791
  56.3426876  15.7981932  27.1806598  65.5255175  10.2136147   6.9686431
  65.5867147  11.1686313   6.9893688  65.0594473   9.9859625   7.7731198
  63.4979684  45.8184670  40.1301369  64.2907674  45.6094943  39.6361408
  63.0671985  46.5002213  39.6145019  15.1485625  21.0785553  64.0648064
  15.0878706  20.1344273  63.9192900  14.7260418  21.2179158  64.9123267
  36.8117261  40.0811291  18.3460248  37.5312972  39.7400093  18.8771403
  37.0332336  41.0016870  18.2055092   5.0759879  33.4911988  63.9384851
   5.2248087  34.3767617  63.6070320   5.9540906  33.1403515  64.0870503
  67.5074846  54.2648809  57.6973901  67.6974518  55.2018945  57.7437589
  66.5536720  54.2106395  57.7568111  19.6420419  39.3168545  16.2186253
  19.0992820  40.0788641  16.0161674  19.0285158  38.6730552  16.5726578
  19.7123897  42.7399111   4.9996021  19.0127981  42.5141335   5.6126511
  19.3810034  43.5048342   4.5291737  29.7865200  35.8441496   1.5056096
  29.1004300  35.2958107   1.1250335  29.4758940  36.0369253   2.3902455
  10.4510725  72.4409533  26.3135147   9.6857500  71.8687391  26.2579679
  11.1825454  71.8904018  26.0340953  65.4506142  77.5089602  27.9160700
  65.8957226  76.8399362  28.4361849  65.8767373  77.4695115  27.0598612
   3.7856959  29.9878168   6.3021344   4.6900939  29.6802330   6.3627946
   3.6687945  30.2071500   5.3777647  57.1476316  47.9516649   0.0841464
  56.3392401  48.0088520  -0.4252352  57.0603466  48.6343527   0.7493915
  50.0377989  31.5376210  28.7045050  49.7594213  31.6596437  29.6121669
  49.2404461  31.6644216  28.1903291  30.6814557  58.6756615  58.3404789
  31.5773755  58.6879163  58.0037174  30.4155045  59.5951502  58.3472011
  40.9814072  48.3983803  17.4367583  41.5698051  49.1482592  17.5245368
  40.1268482  48.7310696  17.7111292  24.4349432  53.1500721   8.4433657
  24.1635346  52.2503948   8.6254537  25.2963591  53.2280159   8.8533878
  19.7423297  74.0799813  53.9682910  20.4134351  74.4856887  54.5171509
  19.1972380  73.5869651  54.5815155  67.7911646  64.3774991  57.0141039
  67.5721199  64.2237334  57.9331288  68.6939318  64.0710287  56.9285366
  32.7897167  59.4152641  24.2564940  33.7454176  59.4001484  24.3078852
  32.5972772  59.2672443  23.3305931  84.8023526  12.0365117  59.2266831
  84.5274679  11.1198399  59.2070505  84.0476076  12.5201294  58.8909683
   4.4862810  19.1948864  53.4470293   5.2376070  18.7698290  53.0334232
   4.6306363  20.1300356  53.3025131  60.1947498  17.0394444  33.2833314
  59.6435261  16.4474773  33.7951493  60.6876326  16.4629316  32.6994348
  22.5205594  74.5983700  37.4346981  22.2217160  75.5040555  37.3530946
  22.7646666  74.3455605  36.5443430  16.8661394  10.3475449  62.1623835
  17.7816048  10.6225560  62.1121809  16.7257538   9.8357985  61.3657412
  15.3210583   5.1167033  48.9223513  15.5447569   4.1867850  48.9603529
  14.4229164   5.1605961  49.2504535  16.0544145  23.1406832  20.8447552
  16.8675208  22.8714490  20.4174328  16.0322499  22.6354098  21.6574311
  18.9956847  79.4273200   2.3567592  18.9834252  78.8578759   3.1260541
  19.9243060  79.5260754   2.1466459  79.3586016  33.5816932   4.2834875
  78.7551498  33.6629581   5.0220507  78.7902308  33.4915376   3.5185978
  51.7757940  40.3042984  20.3747630  50.9564590  40.2374268  19.8844075
  51.6707611  39.6903014  21.1015391  15.8980885  29.9019692  55.0451824
  15.7704487  30.7228062  54.5696113  16.5120449  29.4049332  54.5045886
  29.6869326  22.6213288  14.0077233  30.3881168  22.5619698  13.3588409
  29.9310637  23.3664942  14.5566833  50.5552871  61.3711576  61.6640434
  50.9191019  61.0598783  62.4928835  51.2166387  61.9734626  61.3233439
  62.0195532  60.2947664   8.3153790  61.7628384  60.2102184   7.3971295
  62.9750681  60.3469706   8.2931137  11.1359587   0.1891539  48.8903174
  10.8258834  -0.4019024  48.2042131  10.9941473   1.0658810  48.5332832
  48.4951687  49.2780733  21.6091323  48.0326271  49.8987007  21.0460091
  48.4771252  48.4538746  21.1227107  28.4429922  14.2720292  37.5267753
  28.5089007  14.9468634  38.2024154  29.3456593  13.9876339  37.3834500
  27.6428929   9.0287993  55.7785914  28.5702982   9.2601845  55.8297322
  27.3199406   9.1346238  56.6734288  67.1144680  39.2292140  34.8406372
  66.1748294  39.2761252  34.6642551  67.2636286  38.3212302  35.1043424
  11.6791516  45.6415711  53.3531258  11.6578322  46.5758149  53.1458459
  12.5615054  45.4916154  53.6925349   8.8329154  68.0933075  52.0019564
   9.6764832  68.3784179  51.6507635   8.2059413  68.2853036  51.3046262
  64.0106875  77.6950292  67.5402142  64.8598058  77.8127126  67.1143255
  63.4931809  77.1954303  66.9086934  63.0602694   8.6560112   0.8034834
  63.8750505   8.2643098   1.1180153  63.2435083   9.5948797   0.7691257
  81.7255051  71.3298850  47.9036460  82.2588045  70.6698589  47.4607119
  81.9071323  72.1417217  47.4301848  53.7565947  60.6639910  20.7547164
  53.0562735  60.4318380  20.1448917  53.3001709  60.9787703  21.5349889
  65.0679833  77.4544124  42.9886541  64.2731149  77.1835618  42.5292430
  64.7896964  77.5784020  43.8960752  64.0369844  47.1232510  13.9596581
  63.7690735  46.3213491  13.5108650  63.6795521  47.8296661  13.4216499
  67.2257805  49.4405985  25.9501219  67.4070072  50.2577925  26.4144301
  68.0446005  48.9478016  26.0040879  49.6394879  77.7780800  62.1623049
  50.5202515  77.5827388  62.4821934  49.0744931  77.1570401  62.6220021
  32.9977751  19.5072222   3.1708741  32.9553103  18.8336563   3.8496506
  32.6905918  19.0678442   2.3778951   4.4811040  75.5978446  58.7522290
   5.3893262  75.7064872  59.0342877   4.4648820  75.9418802  57.8591404
  44.7491121  49.4620895  16.4777088  44.4248581  48.6219406  16.1533058
  45.6817293  49.3144083  16.6347003  34.6013060   4.6351645  42.4743924
  34.0491095   4.2537425  43.1569037  34.1749707   5.4640934  42.2567973
  42.4899817  43.6081839  17.1188045  42.7064228  43.0016804  17.8269958
  41.7139626  44.0736341  17.4308658  73.9269511   9.7875712  64.8139123
  73.4875874   8.9735816  64.5677206  74.0478782   9.7175477  65.7608575
  62.3827941  75.8116178  69.5414563  62.7881319  76.5539627  69.0932867
  61.4424283  75.9432726  69.4205847  24.2027703   2.7058718  41.1077485
  23.5949602   1.9829676  41.2633261  24.7451964   2.7365468  41.8958268
  11.8500853  78.4949446   2.9606888  12.5620210  78.5059261   2.3209548
  11.8752813  77.6130438   3.3319610  35.1368460  12.0826476  24.6008492
  35.5948726  12.6592868  23.9893484  34.6794281  12.6780265  25.1945853
   3.7325165  69.6010971  29.8411202   3.9686531  69.0992975  29.0609479
   4.0441921  70.4876375  29.6591043  42.9831407   8.8331073  47.7744961
  43.9105246   8.8724749  48.0082512  42.5332603   9.2525809  48.5078955
   4.8105150  37.2289777   4.7420067   4.2160735  37.8020859   5.2261740
   4.6805868  36.3645983   5.1321340  83.0763848  46.8637078  41.0735783
  82.5611289  46.7634879  40.2731428  83.9698084  47.0163088  40.7657776
  77.2257717  60.6642342  19.8248458  77.2901244  59.9778271  20.4888797
  76.6139061  60.3143406  19.1772115   7.3234862  60.6317520  47.8392506
   7.5270295  59.7630072  47.4927187   7.0320725  60.4694891  48.7364578
   3.2518166  57.7783012  24.5090747   4.0573028  58.1218195  24.1225290
   2.9947117  57.0613718  23.9292955  55.9230281  52.0376348  14.4729745
  55.8995153  52.9655218  14.2390800  55.0585796  51.7070675  14.2286682
  66.0924746  64.2033386  13.4408820  66.2425722  64.5231104  14.3305159
  66.7523636  63.5210991  13.3170700  58.4978605  40.2403784  10.9223592
  58.4319926  41.0886383  11.3609326  58.7155033  40.4558849  10.0154853
  83.0130897   5.5952590  30.3096557  82.4906598   5.2059787  29.6083999
  83.2418261   4.8578875  30.8755088  39.0418786  64.6831183  64.9720756
  39.0226538  64.3388943  65.8650321  39.9629731  64.6341829  64.7162977
  18.9107549  69.5901871   6.4936852  18.5032916  69.0428352   5.8224076
  18.5940683  69.2292595   7.3217386  75.4892595  77.4484682  37.0606971
  75.3603281  76.5692043  37.4163771  75.7158024  77.3043299  36.1419296
  80.4903511  40.1195431  30.3829288  80.7381208  39.2177463  30.5868936
  81.3001541  40.5266619  30.0751829   7.6422960  79.6000957  17.5077128
   7.4236453  79.6745443  16.5787983   7.9164028  78.6895227  17.6170218
   1.8126975  54.3332577  33.5800266   2.5023499  53.7155485  33.3370233
   1.0323160  53.7899446  33.6897993  82.4831087  38.8331962  11.6127062
  82.3715902  38.2742667  12.3817289  81.7133964  39.4021940  11.6165197
   7.5538981  70.0933695  41.7552662   6.7730433  69.5749044  41.5611219
   8.2840872  69.5385075  41.4810705  76.7770703  64.8168373  38.6436892
  77.7140207  64.7045469  38.4832311  76.7066945  64.9143505  39.5933032
  19.7463024  30.8650875  35.5115747  18.8601899  30.8602595  35.1496172
  20.1698709  30.1021457  35.1182055  12.9238796  72.3496723  25.0792289
  12.7365851  73.1965733  25.4840899  13.8476706  72.1906328  25.2730060
  35.9809515   8.5487597  26.8583846  36.4551720   9.0459483  26.1919379
  35.0691280   8.8218825  26.7573237  75.1027692  39.6782637  32.1847892
  74.5333804  40.3978491  31.9123483  75.7266803  39.5809865  31.4654112
  74.6943046  76.9961405  43.3858490  74.7285355  77.2656775  42.4680185
  74.2543687  76.1461830  43.3696175  81.4495109  48.0522966   7.7334785
  81.6181452  47.2935724   8.2921690  80.5736644  47.8988504   7.3791057
  10.6090879  74.3080235  38.4723687  10.7800591  75.2415991  38.3481169
  10.1214719  74.2612028  39.2947245  22.2439861  69.2051458  40.9930468
  23.0287123  68.7525415  40.6838799  21.6240001  69.1324329  40.2674007
  66.6296116  61.0569308  67.9493301  66.1683140  60.3395865  68.3839041
  67.4042098  60.6459067  67.5655453  18.9608976  19.1000979  45.5889225
  18.5048565  18.7123244  46.3358402  18.2602391  19.4085734  45.0143337
  31.7208383   6.1603968  14.4751287  32.1008387   6.1679690  13.5966218
  31.1556795   5.3879111  14.4849718  38.9615914   7.6096099  19.2254782
  39.2336759   7.2360175  18.3872461  38.0083385   7.5228160  19.2282450
  80.5726434  50.1721287   9.1783643  81.3047231  50.4352522   9.7360885
  80.9466065  49.5227671   8.5827833  60.0242902  64.7569418  11.2128520
  60.3739692  65.2511549  11.9542742  60.7455112  64.1887617  10.9422183
  11.0205603  70.9148121  31.6998816  11.8956184  70.6683731  31.4002609
  11.1710548  71.3767958  32.5245953  63.5667969  74.5594501  43.7980890
  62.8542639  74.9365425  44.3141603  64.2961599  74.4870901  44.4137430
  50.2891359  10.3328364  34.6967196  51.0313711  10.7349818  35.1479363
  50.6883225   9.7757094  34.0285206  68.1059052  79.2494202  14.1430378
  67.9200901  78.7293673  14.9248612  68.2720197  78.6015177  13.4583044
  66.5499410  10.0432437  37.9760933  65.7484851   9.5306247  37.8706002
  66.2438879  10.9274810  38.1777668  24.7788310  20.1475470  17.0116019
  24.2632270  19.8213141  17.7491367  25.5802825  19.6244948  17.0296848
  49.4723353  34.1070884  65.6505585  49.0278921  33.2593291  65.6480742
  50.2736911  33.9588778  65.1484728  19.4433078  19.6513694  13.2975507
  18.6056063  19.5352881  13.7458956  19.2863026  20.3631823  12.6771450
  31.9333736  38.6509011  68.1440314  31.8826334  39.1217778  67.3122082
  32.1553723  37.7529500  67.8977892  55.1965770   0.7355635  35.7147455
  55.4576406   0.8495658  36.6285729  54.8372421   1.5855353  35.4604816
  83.7419584  69.3184948  34.3163967  84.2395524  68.8170433  34.9622893
  83.8822618  70.2326584  34.5630860  68.5339082  48.5226202   1.3258281
  68.5081853  49.1295099   2.0655945  68.1876374  49.0272808   0.5898626
  66.8908478  56.2754059  34.9898171  66.5036179  56.2156630  35.8631539
  67.4131001  57.0772266  35.0137186  76.5452657   3.8907092  33.8590384
  76.5395962   3.2528632  33.1453514  75.6336199   4.1721671  33.9359593
  40.6907460   0.4159968   0.5811093  41.2393710   0.9149783  -0.0240850
  41.1311814   0.4982035   1.4269760  18.2730183   0.7908862  39.1113734
  19.1346732   0.4629462  38.8540077  17.6639256   0.3604644  38.5113931
  12.4640536  51.2811327  30.2381825  12.3703122  52.2049141  30.4707193
  11.6201198  50.8903170  30.4646182  21.9269395  57.7416849  35.5499220
  21.5521717  57.4318600  34.7254300  21.3416886  57.3960304  36.2238955
  58.3679104  64.3007660  41.0392475  58.2726240  63.9423370  40.1568222
  58.5718346  65.2257633  40.9013128  76.5716393  66.3570642   2.9844624
  75.8969242  65.7299805   3.2447660  76.2045712  66.8000507   2.2194423
  67.5030340  58.2282639  32.6899767  66.6091550  57.9745340  32.4601197
  67.5644399  59.1482830  32.4330139   1.1686667  10.6475299  39.6842241
   1.7788275  10.0387805  39.2678547   0.3865012  10.6169837  39.1333008
  27.8406615  19.2018359  27.8717709  28.4519286  19.8927920  27.6165104
  27.1152500  19.2830317  27.2525644  12.3828733  75.7877684  52.8406811
  11.6870439  76.4384317  52.7474499  12.6285768  75.5693722  51.9417000
  14.9305451  65.6060266  10.6308341  14.0492904  65.2525616  10.7520115
  15.3132784  65.6011820  11.5081739  12.0948386  52.4774694  26.9560742
  11.6002226  52.7578783  27.7261114  12.7019012  53.1977320  26.7859960
  27.8539922  25.3092711  26.1973858  27.2623192  25.4789203  26.9304466
  28.5289413  24.7367328  26.5619040  34.4881734  36.8026774  17.7344286
  34.3407199  37.2174018  16.8844330  33.6817989  36.9658892  18.2236671
   4.8282346  55.6791019  50.0150681   5.0089723  56.5151834  49.5854998
   4.9590012  55.0242662  49.3292713  52.3839173  35.8478301  36.6338348
  52.6126346  36.6936248  36.2484241  52.2921524  36.0279219  37.5694513
  32.1835473  18.5157340  41.4565182  33.1201458  18.6747973  41.5736198
  31.8550191  18.3573382  42.3415089   0.6068383  30.7331204  16.3819814
   0.6461166  29.8461151  16.7396224   0.7087669  31.3033485  17.1440065
  -0.1142790  80.2408028   8.4981245   0.6417906  80.7942867   8.3025420
   0.2495174  79.3594694   8.5825682  81.0151074   9.8979020  33.9493537
  80.3869177   9.1834003  33.8440132  81.4666478   9.7007847  34.7700167
  78.4963096  77.3093843   7.9767632  78.4970708  78.2587290   8.0991566
  78.3334620  77.1886301   7.0412797  38.8037876  31.3470862  59.5391164
  38.3227734  31.6508791  58.7693319  38.1229404  31.1075184  60.1678339
  45.2825875  62.3000364  53.1958911  44.5952851  61.6787080  52.9554758
  45.3004605  62.2790270  54.1526935   5.4818097  41.9417689  66.5996385
   5.8953133  42.5449965  67.2171826   4.7888532  42.4581168  66.1880175
  83.8809412  56.0668325  15.1251042  84.1974249  56.6622305  14.4457114
  83.7061335  55.2471304  14.6627629   4.3107989  25.5098438  11.0079944
   3.8907397  26.3352537  11.2498224   3.5862505  24.9368858  10.7570362
  84.6717493  18.9710639  61.9256530  85.2287785  18.7078497  62.6582298
  84.3844525  18.1459353  61.5346858  45.2287626  76.0201168  22.2387433
  45.2221870  76.8948793  21.8501902  44.7929621  75.4668331  21.5905261
  14.0820181  43.6449337  44.7797680  14.8764014  43.8767195  45.2608728
  14.2179811  42.7344990  44.5173645   5.0045693  53.5002899  10.2553856
   4.1158766  53.8008738  10.0653708   5.2681059  53.0203915   9.4702262
  60.6580166  17.2680686  67.0842299  59.8514385  17.7800438  67.0246759
  60.5882497  16.8076346  67.9205114  60.3167654  25.2627730  34.8956585
  60.1653935  26.2077427  34.9144220  60.7538296  25.1067972  34.0584731
   6.4715046  58.3696747  19.3513119   5.9735233  59.1162825  19.0184104
   7.2066367  58.7627029  19.8217797  82.0354373  63.4718275   2.6553634
  81.7088134  63.3332825   1.7663446  82.9029186  63.8579178   2.5343654
   9.2651457  38.8058591  18.0000627   8.8143581  38.8989472  17.1608031
   8.8781995  39.4821310  18.5560822  82.8825871  16.7649972  45.9993887
  82.4944545  15.9180593  45.7796621  82.6853893  17.3215258  45.2459812
  79.6375312  25.3624415   3.1809857  79.0153355  24.6603608   3.3712134
  80.4737030  25.0387430   3.5160500  15.6454480  38.9123130   8.7910628
  15.4952860  37.9694605   8.7223959  15.8861983  39.1816831   7.9046595
   4.2070532  30.6176734   3.4589189   3.3045208  30.3443289   3.2947558
   4.7415826  29.9413919   3.0428034   6.2740523  61.1920123  58.9680776
   5.7524974  60.3910856  58.9158342   7.0112688  61.0367017  58.3776376
  78.6189623  47.9540300   6.7862868  78.8098855  48.4316444   5.9790277
  77.8676213  47.4031401   6.5666550  59.4809223  63.4620380   2.5372064
  59.7112132  63.1267071   1.6707489  58.7364269  64.0425634   2.3792516
  29.2704736  64.8297744  67.5275162  28.8938012  64.0572219  67.9488400
  29.4119387  65.4483800  68.2441381  17.3506784  59.9628258   0.3599135
  16.9682932  59.9888420  -0.5172050  17.4780250  60.8824253   0.5930513
   3.0170780  49.5385170  22.3588133   3.5841715  48.7789011  22.4915504
   2.2145751  49.3243551  22.8345823  32.4300742  23.7503338  26.3814235
  32.6887512  24.0719676  27.2450614  32.8911781  24.3199873  25.7657051
  14.0259290  32.9100513  16.7317593  13.2735515  32.9557633  16.1417842
  13.7192571  33.3154154  17.5428486  12.9094863  11.3478720  23.0310416
  13.4003270  10.5396390  22.8824973  13.3731306  11.7814255  23.7474918
  61.5383673  53.5087442  15.5743051  61.4672804  54.1888142  16.2441444
  60.7639170  52.9616594  15.7052934  76.4958970  10.4140637  61.4536098
  76.6136340  10.2369902  60.5203286  75.5580048  10.5795548  61.5495423
  67.4332134   8.9756176  63.6423019  67.5510947   8.0548308  63.4088788
  67.7504734   9.0368054  64.5433203  14.7250867  50.0177383  28.8352275
  14.0606475  50.6012392  29.2016745  14.2729056  49.5515013  28.1321025
  20.8975792  37.5501204  47.3243475  20.1385260  37.0275712  47.0654821
  21.0403252  37.3259592  48.2439184  54.9039627  48.9510059  22.4048138
  55.8505632  48.8092518  22.4140859  54.6366597  48.7250614  21.5138984
  17.0180941  63.1108093  60.9569359  16.9008529  63.1590843  61.9057035
  17.4753976  63.9206696  60.7305956  75.6243316  40.4409239  69.4282083
  76.5052501  40.7483504  69.6419901  75.5011705  39.6664355  69.9770511
  30.2331779  14.8101466   3.8354740  29.5888610  15.5154841   3.7756109
  30.1222056  14.3148558   3.0239260  69.8122207   7.8952620  46.3587675
  69.1813008   7.1758006  46.3821468  69.2903916   8.6640523  46.1287985
  16.3654709  71.9705629  43.0213165  17.2288835  72.1883011  42.6701212
  16.2074530  71.0728693  42.7290678  20.3747249  60.0652599   3.3660725
  19.4808495  60.1206732   3.7039316  20.9247565  60.0292444   4.1486320
  10.6502652  56.1962032  32.6379132  11.4024067  56.7369318  32.8790116
   9.9610639  56.4588451  33.2480383  71.7101730  47.4537277   9.7925365
  72.3780335  48.0778742  10.0764930  71.4543677  46.9958448  10.5932486
   7.2343940  49.3344212  10.1584172   6.9073844  49.6622801  10.9961545
   7.5833732  50.1091862   9.7177589  78.9285246  26.5630744  50.8153126
  78.1233803  26.1939595  51.1782584  78.9128081  27.4818871  51.0832128
  80.5585305   6.7607806  65.4424370  80.0447384   6.9092248  64.6485773
  81.2426392   7.4296544  65.4135377  79.0661521  43.9943361   6.7007422
  79.8490853  43.6644697   7.1416914  78.6092676  43.2075071   6.4034355
  54.2997870  13.3131163  37.0826006  54.5995936  13.7847274  36.3054705
  53.5279307  13.7982981  37.3742723  44.2524132   2.3442786  30.0919318
  44.3736539   1.4475482  30.4040265  43.3028087   2.4558490  30.0468111
  16.0985184  69.6727991  14.0719044  16.7599344  70.3161907  14.3264854
  16.4550626  68.8340998  14.3646395   1.9355574  51.9077158  17.8967059
   1.9399330  51.7342329  18.8380432   2.5225252  51.2472057  17.5287008
  69.5938767  56.2494040   1.4413853  70.0087870  56.2033606   2.3027575
  70.2241398  56.7210865   0.8968531  69.3560840  44.7149420  12.6547909
  68.9862276  43.9282990  12.2540092  68.8489772  44.8358059  13.4575772
  21.8573451  49.5995092  45.9685278  22.7953362  49.4675875  45.8306837
  21.6674781  50.4344416  45.5406570  71.2844635  31.6427326  38.9069653
  71.0377468  31.2129545  38.0880308  70.6442464  31.3278008  39.5450664
  55.2006770  66.5092564  23.3021069  56.1205960  66.6667843  23.5146332
  54.9013044  65.8962679  23.9735579  14.1933978  33.0519986  36.3326859
  14.1423392  33.7589836  35.6894135  14.0042996  32.2584438  35.8319402
  31.1385298  66.7969990  38.7105346  32.0697260  66.7743063  38.9309621
  30.8478379  65.8899212  38.8051033  63.9102778   0.6698458  22.2341681
  62.9659686   0.5307715  22.1622658  64.1771278   0.1240104  22.9738235
  78.6688251  64.5014572  55.4577303  78.4707082  65.3844023  55.7698011
  78.0813439  63.9337015  55.9564781   0.7438054  12.4095986  35.2790055
   1.1783162  12.1015332  34.4836912  -0.1871714  12.2557519  35.1182351
  58.5393090  13.9305565  62.4796626  58.4627479  13.0508063  62.8490052
  58.2655285  14.5125887  63.1885448  17.4579179  63.9255476   6.7611724
  16.9163275  63.1479168   6.6262835  17.9496527  64.0194130   5.9453177
  45.3287486   7.5849364  68.0238690  46.2182335   7.2381613  67.9546199
  45.3171960   8.0492899  68.8608144  58.7578342  13.5699437  47.1821127
  57.9423671  13.9130900  46.8167410  59.3062406  14.3436120  47.3122082
  12.6140511  60.9524298  38.8405347  13.2644010  61.6256094  38.6402655
  11.8311214  61.4427948  39.0911222  51.0740081  23.4550784  67.6832974
  50.9882382  22.8760502  66.9259343  52.0057050  23.6723492  67.7143833
  20.1329207  60.2323294  28.9204907  20.2461696  59.5195436  29.5492554
  20.1890182  59.8077440  28.0644441  58.9210751   5.3345654  48.7574563
  58.3410708   4.5782445  48.8458285  59.1710002   5.5509923  49.6557507
  20.5934143  43.8509130  13.8246107  20.3602624  44.6650743  13.3785033
  20.3150344  43.9859295  14.7304285  41.6846508  79.8971610  50.2022347
  42.1165711  80.7510261  50.1778302  42.3148746  79.2984156  49.8015437
  48.2484547  39.7880385  68.4113261  48.6745749  38.9340565  68.4845582
  47.3125706  39.5879719  68.3933235  24.3075323  46.1002779  34.9664640
  24.2376542  46.8502951  35.5570769  24.1742253  45.3382635  35.5302000
  33.5170929  32.9981062  49.1378007  33.7050263  32.0930550  48.8892088
  34.1489164  33.5188172  48.6419306   1.1319709  63.2796574  40.9556103
   1.2256882  63.1071186  40.0187683   1.0446747  64.2309284  41.0163975
  35.5085507  18.9279149  69.1608751  34.8786631  18.2679055  68.8712711
  36.2302199  18.4224198  69.5349086   5.3509611  37.5907469   1.7619176
   5.0291729  37.4354506   2.6499307   5.2988052  38.5400486   1.6508585
  69.3286682  42.6609612  21.7036033  69.8061038  41.8872309  22.0029879
  69.6798576  42.8361559  20.8305597   9.4111097  45.2175999  33.7781763
   9.5021790  44.4351578  34.3219852  10.1990402  45.2245998  33.2347155
  83.1101958   2.8897688  59.9245647  83.4145919   3.6476872  60.4236934
  82.2666732   2.6667998  60.3182480  81.4251529   2.6038592  31.7817187
  82.3046098   2.9172271  31.9928885  80.9117471   2.7821391  32.5696683
  65.5153335  60.6190968   5.2568173  66.4691890  60.6982613   5.2679092
  65.2039934  61.4136934   5.6903106  72.5672976  23.7972233  59.4988749
  72.5767986  22.8748629  59.2431578  72.9975418  24.2511151  58.7742338
  30.6988072  54.8238897   7.2806829  31.3085866  55.1239300   6.6066092
  30.1195145  55.5712414   7.4294150   3.1096750  43.3553553  19.6774745
   2.5916764  43.8435221  19.0374732   3.0236521  43.8571358  20.4880595
  66.6255460  40.2443907  67.8371317  66.5397141  41.1645911  67.5879428
  65.7260016  39.9500201  67.9799496  85.7478021  63.4520340   8.0642056
  85.3940055  62.9486609   7.3309422  84.9756851  63.7971830   8.5124671
  11.2580219  43.5818217  63.7227551  10.3868189  43.1880877  63.6757592
  11.0956588  44.4952128  63.9585314  63.1487642   1.6888592  26.6029415
  63.6539374   1.0439227  27.0980081  62.9009584   1.2328408  25.7986555
  43.6814443   0.8772061  45.6038127  43.8528506   0.2507994  44.9006305
  42.8768853   0.5613539  46.0150943  77.0833511  44.1724491   9.0750283
  77.6774747  44.5038652   8.4016675  76.8507261  44.9448013   9.5903838
  72.6567436  68.7033510  27.9666805  73.1810356  69.3792248  27.5370932
  71.7996741  68.7605381  27.5443149  79.4304151  40.6445074   7.4633527
  79.1636790  39.7450972   7.2732419  80.3161425  40.7121038   7.1067727
  69.8450336  17.4345343  12.9066372  70.6807432  17.6538604  13.3186042
  69.3695554  16.9429820  13.5763669  11.5693867  63.3323908  36.5984130
  11.4479637  64.2754745  36.7083192  10.7347739  63.0228472  36.2465096
  55.8228812   6.0829203  32.3452282  55.5512509   6.3821929  33.2129169
  56.6058573   6.5972750  32.1487164  56.9797064  71.7043734  24.9010706
  56.9323946  71.6687965  23.9457035  56.7644216  70.8158970  25.1847887
  20.4234838  64.8127937  26.1936498  20.6897950  65.7317734  26.2217140
  19.4938397  64.8396349  25.9672165  84.3626704  67.0602894  35.8638287
  84.0951953  67.2692633  36.7588234  84.0789319  66.1553478  35.7341671
  30.9913564  76.8534660  13.2114518  30.7292938  77.5577641  13.8043416
  31.9481492  76.8812084  13.2147253  68.0615744   7.8546660  43.6668348
  67.7428541   8.5927718  44.1863012  67.6103840   7.0930140  44.0308952
  16.5716028  57.4355888   1.5309875  17.4187028  57.0903873   1.8129309
  16.7903078  58.1929016   0.9879613   2.4904242  16.6569922  62.1150336
   1.9536796  16.3223956  62.8334937   2.6386252  17.5767157  62.3349753
  49.3297197  44.4687843   0.1647422  50.1267053  44.6500921  -0.3334273
  49.5452977  44.7224998   1.0621753  78.0200506  48.5015965  16.6401756
  77.0937998  48.6548042  16.4535785  78.4841574  48.9501381  15.9333181
  31.1536301  75.6267218  67.8169983  31.8730319  76.2207274  68.0311287
  31.5425796  74.7532944  67.8625243   0.4882738  22.0922041   8.9870197
  -0.1805759  22.7697015   8.8876832   0.6995305  21.8309546   8.0907214
  19.8370790  63.5328531  17.9372275  20.4398513  64.2025232  18.2603979
  20.2972198  63.1322765  17.1996343   8.2739925  53.2364511  44.4007635
   8.9007461  52.7870464  44.9677229   8.7697619  53.4362364  43.6067057
  81.1663190   6.4546940  62.4316833  81.7855135   6.2604687  63.1353221
  81.4460460   7.3058007  62.0946357  84.0617857  66.1132240   6.7652494
  84.8428421  65.5600023   6.7538869  83.9806400  66.4315367   5.8661807
  17.4804378  63.6525059  28.6803412  16.8478441  63.4233856  27.9994869
  17.8824914  62.8187323  28.9240885  39.1272602  18.4578269  23.7627745
  38.8191435  17.9055922  24.4813371  38.5499284  18.2421153  23.0303860
   6.6193247  53.7303352  17.9581571   7.3157549  54.1854572  18.4315288
   6.3041651  54.3714714  17.3210919  51.6779591  60.7863903  14.3599880
  51.7873431  60.4836321  15.2614331  51.9322277  60.0360537  13.8227999
  57.9566083   0.9103911  34.9069929  58.0980954   0.0521224  35.3064752
  57.0331201   1.1015456  35.0708747  51.1835003  68.9641333  17.1201074
  50.7641697  69.7219801  17.5276148  52.0022297  68.8545704  17.6037514
  77.3574663  26.6845703  27.3189998  76.9414611  26.0754728  27.9290581
  76.6288007  27.0767903  26.8379164  75.8905796  13.0630324  56.6176281
  76.6876368  13.4625313  56.9659552  75.4647795  13.7662289  56.1272821
  19.9236369  63.8380909  11.6280484  20.7949710  63.9590836  11.2507319
  19.5075500  64.6965933  11.5500903  52.0741845  49.1987085  25.6822824
  52.1695424  49.7996569  26.4212036  51.2005545  48.8228130  25.7904649
  35.4168821  80.5819730  52.5916300  35.0717742  79.7514944  52.2638557
  35.3555370  81.1781101  51.8452439   5.2013189  62.9882531  68.8085163
   4.7774631  62.1468382  68.6394084   5.3461034  62.9976349  69.7546565
  64.4423128  20.7246089   0.3747168  64.2861868  19.9846673   0.9615237
  64.4182826  20.3434539  -0.5029928   0.7154742  23.2618783  49.3475542
   1.1812225  23.0543110  50.1576326   0.9084883  24.1861508  49.1904030
  55.3861958  80.1997928  61.4178381  54.7470028  80.8678894  61.6654572
  54.8578150  79.4322495  61.1989281  71.7567501   7.8933852  13.4038568
  71.2679157   8.3154910  14.1103303  71.1899862   7.1783965  13.1143737
  23.3419013  29.6415019  15.9656394  23.1024814  30.5380654  15.7309401
  24.2976356  29.6544600  16.0170066  70.3173772   8.8262246  60.6442032
  70.8795718   8.7727091  59.8713479  70.3731374   7.9571936  61.0415808
  24.1323113  49.1358662  32.2458720  24.0923834  49.4752550  33.1399941
  23.2342553  49.2070198  31.9223499  38.4091833  -0.0292451  24.3886566
  38.5678563   0.6026786  25.0898886  37.4603531  -0.0145871  24.2632055
  62.6473046  47.2170639  27.1659422  62.4181439  48.0291748  26.7140675
  62.1995355  46.5321112  26.6693783  38.2448840  20.6952786  26.7211294
  37.3218274  20.8937144  26.8786812  38.2871556  19.7390175  26.7180467
  75.9580423  75.2113390  26.4544511  75.0810469  75.3119707  26.0843372
  76.4845927  74.8676300  25.7327557  30.8669567  28.6919713  23.6396241
  30.2296853  28.6115789  22.9299378  31.6791654  28.9504790  23.2040548
  83.6809629  64.1331434  19.3164301  84.0923160  63.2690239  19.3340576
  84.3451510  64.7219419  19.6747661  71.2274135  24.5484948   7.0008010
  71.7573835  23.7958550   6.7383164  70.3235353  24.2632985   6.8670166
  12.9228270  44.2587948  23.2066083  13.2410848  43.7033987  23.9182830
  13.2080519  43.8130093  22.4090171   7.7769578  41.1604166  33.8294411
   7.7626640  41.9400454  33.2742763   7.6689589  41.4976358  34.7187400
  19.0856564  32.2423434  29.3467498  18.1853819  32.4142623  29.0707397
  19.0010512  31.8848133  30.2306318   2.4942927  55.2131271  22.9955935
   2.6342788  54.8799324  23.8819432   2.4076027  54.4277096  22.4553752
  13.3428088  40.6090949  45.3453288  13.2140007  40.5398581  44.3993649
  12.4593344  40.5657599  45.7111535  67.6707987  79.9679086  20.7580471
  66.8125186  80.0453669  20.3414106  68.2336072  79.5948882  20.0795674
   2.0727606  71.0567045  12.8147125   1.5742207  70.2455473  12.9132724
   2.6171449  71.1002731  13.6008286  -0.2890776  59.5808363  34.3597817
   0.4414385  59.6977234  33.7523985   0.1203535  59.2843580  35.1726151
  63.5998942  29.0401793  41.3596869  64.4934941  29.1625762  41.0391760
  63.5533382  29.5775938  42.1504116  71.9739212  52.4922371   4.7641501
  72.8900136  52.5782776   4.5003268  71.9108642  51.6082811   5.1259118
   9.4807285  27.8535700  24.6322227   8.9235252  28.5662222  24.3193603
   8.8668048  27.1729040  24.9079490  47.6557426   6.1002705  67.4749928
  48.3303819   6.0500834  66.7978114  48.0872265   5.7800314  68.2671416
  40.1728868  69.1585779  19.1306520  40.1915884  68.2017326  19.1486919
  39.2556167  69.3831968  19.2868483   0.5307549  30.8086252  13.4734595
   0.6821810  29.8672223  13.3894038   0.7432745  31.0048699  14.3859029
  77.2971733  68.1198883  47.9503775  77.5291235  67.6030636  47.1788073
  77.9647071  68.8048029  47.9894066  72.1850897  73.4454203   9.6032286
  72.2352279  72.5986433   9.1597325  71.2717475  73.5168076   9.8806101
   1.5603793  59.4820833  45.8541012   0.7403411  59.9076986  45.6038666
   2.1562707  59.6643496  45.1275158   1.9985886  41.5654421  36.0457158
   1.6299544  41.1530972  35.2644897   2.7163187  40.9878063  36.3053918
  10.4458439  37.1627331  22.1582437  11.3696885  37.3581195  22.3149824
  10.3321075  36.2686181  22.4805045  14.0874595  77.8451972  68.1049647
  14.8065776  77.5319390  67.5563558  13.9019412  78.7251882  67.7772023
  48.5905001  24.3717501  65.9857709  49.3311254  24.1649363  66.5558008
  48.9466409  24.3122933  65.0992832  21.3719559  57.6737547  14.1191292
  21.4127517  57.1562576  14.9233460  20.5715990  57.3787355  13.6848164
  71.7566289  49.2126369   4.5384264  71.4267231  48.7096977   5.2830368
  70.9805418  49.3913937   4.0074190  75.1633896  57.3376369  25.6404209
  75.7498993  58.0801201  25.7851720  74.2870642  57.6914740  25.7923555
  73.5071076  80.3639126   7.7179599  72.7048756  80.7165909   8.1030238
  73.3230961  80.3197575   6.7796522  82.3784701  43.3746910  16.8527400
  81.5040947  43.4716368  17.2299683  82.4159373  44.0361214  16.1618459
  79.8987127  32.5091076   7.1667320  79.6956648  31.9271684   6.4343715
  79.1699726  33.1293273   7.1889883  12.6711121  32.6043055  55.6465790
  13.2143584  33.3357117  55.3530488  12.2102394  32.9414628  56.4147911
  62.4740920  11.0503714  29.5102286  61.9479189  11.5899699  28.9201355
  63.2746610  10.8680861  29.0181994  73.1620873  60.7702684  12.8749025
  72.6413180  61.3460302  13.4348416  73.3931340  61.3137007  12.1215570
  33.5296631  46.6590738  14.5035028  33.3825541  47.5810671  14.7144938
  33.4780335  46.2091923  15.3468144   2.8709063  77.1582413  24.3868589
   3.1959182  76.2784386  24.1956854   3.3637819  77.7290010  23.7973332
   1.0527273  34.4688892  32.9492617   1.6761950  33.9013481  33.4024954
   1.5374216  35.2790070  32.7911139  75.7527122  22.0436232   8.7853318
  76.5320596  22.5721019   8.6133987  75.9520158  21.5806239   9.5990539
  49.5970392  54.4446898  21.3845634  50.0151396  53.6834335  20.9821892
  49.3730497  55.0125408  20.6472635  17.5168359  57.4724817  37.8188586
  16.9073880  57.5575638  38.5520458  17.1340942  56.7902803  37.2671866
  21.6827798  69.3080711  25.0539851  20.9748578  69.2674971  24.4109988
  22.4833584  69.3051338  24.5292950  32.8498459  52.1857500  48.4652853
  33.0282068  51.4875841  49.0953493  33.1567335  52.9827023  48.8976288
  58.7679681  19.5566027  32.1185493  59.3217644  18.9285701  32.5823617
  59.0318451  19.4773429  31.2018609  69.0789843  62.7215052  29.9026227
  69.5783091  63.5336113  29.8166299  69.1543531  62.3021030  29.0455031
  38.4987068  52.7712345  19.3829560  37.6702714  53.1963110  19.1610670
  38.5627794  52.0375872  18.7714922  48.3015439  21.2527983  35.3991270
  48.6511168  21.3893550  34.5185685  47.4829075  21.7486995  35.4113984
  71.3917137  44.0419149  10.7721472  71.2204374  44.7134876  11.4323616
  71.7088176  43.2898283  11.2721872  33.9967504  27.4817794  29.4200897
  34.5547065  27.7566951  30.1476455  33.1282702  27.3799937  29.8094678
  15.9349718  37.5785563  53.0272147  15.7807198  37.2102330  52.1572861
  15.0720206  37.8719733  53.3195338   2.2277978  70.7823944   2.0968059
   2.7508381  71.4372873   2.5591666   2.8655407  70.1345348   1.7971577
  25.9961834  51.2800715  60.4757694  26.0206023  52.1106932  60.9508554
  26.8661490  51.2024901  60.0841365  26.8213439  74.3946457  18.4871817
  26.1676931  74.9936342  18.1263673  26.9386721  74.6848297  19.3917596
  10.5123782  58.4592056  18.5442567   9.8838943  58.7932920  17.9042351
  11.2666166  58.1887102  18.0206275  63.3098707   1.0242789   6.7010343
  62.7513275   1.3102286   7.4238718  63.9521870   1.7270510   6.6021788
  19.9018040  24.2886565  59.5686922  19.8657885  25.0158141  60.1901243
  19.0052405  23.9547322  59.5385489  78.0434672  30.9220669  56.0960159
  78.5639302  30.4678032  55.4334519  77.3084513  31.2947819  55.6091199
  49.5378828  44.7651386  51.7236900  49.4053173  44.4519281  50.8289528
  50.4069805  44.4437265  51.9636679  77.9517755   2.4428218  16.8085015
  77.4348745   1.9472068  17.4436498  77.7035341   3.3551925  16.9574511
  40.6664714   5.2101653  27.6977873  40.5531082   5.6181853  26.8393588
  40.8653233   5.9393256  28.2851720  10.1136055  65.2859232  61.9213036
  10.5686345  65.2855513  61.0791752   9.6811190  64.4328902  61.9602368
  20.3445077  61.6130781   7.4989730  19.5889747  61.3667059   6.9653958
  19.9693775  62.0881987   8.2404363  29.1489458  68.6310911  48.7679577
  29.0901995  68.9977217  49.6502066  28.4807229  67.9460192  48.7482929
  38.5452509  63.1441975  49.1614914  38.2869864  63.9126253  49.6704626
  37.7745485  62.9368305  48.6330509  30.8991575  73.8641405   8.2821882
  31.0887527  74.7316980   8.6394429  31.7528701  73.4342241   8.2314056
  84.6890203  57.1425555  65.8815706  84.6620432  57.8603480  65.2488998
  83.7694136  56.9479392  66.0623521  68.8853992  73.0121756  16.2776423
  69.6261920  72.7307034  15.7407689  68.1472732  73.0447865  15.6690872
  38.2308364  60.5418253   1.6042976  37.4323034  60.0729179   1.3620102
  37.9199195  61.3315105   2.0469686  45.1860377   9.0799086  21.0065556
  45.6037900   8.2188075  21.0211921  44.2577109   8.8982718  21.1530185
  11.7254651  76.5922213   9.8841351  12.2855937  75.9184313  10.2694809
  12.3301589  77.1662998   9.4140154  29.7542548  66.4923286  24.0749598
  28.8793063  66.8757677  24.0143633  30.1708269  66.9594240  24.7991967
  21.8843975  15.4454730  30.8601365  21.5301838  14.5967934  30.5946121
  22.8140870  15.3972552  30.6374655  14.2458334  37.7537415  59.9711815
  13.7258997  36.9690440  60.1448259  14.4660178  38.0920718  60.8390996
  66.1991262  58.4450769  21.2196708  65.3702354  58.9102173  21.3328624
  66.3096476  58.3799791  20.2711034  66.9332291  72.4259043   4.2194885
  66.8594469  72.0274210   5.0866675  67.2600855  73.3094692   4.3889350
  12.8203321  76.5727568  15.7596004  13.0375183  76.7471123  16.6753852
  12.4822307  77.4057293  15.4308486  80.9989325   1.5767214  69.8012602
  81.8729774   1.4155791  69.4458594  80.9373323   2.5299666  69.8626186
   2.9493847  33.0458498  21.9383693   3.8935921  33.0648994  21.7823529
   2.6610291  32.2146749  21.5612340  30.0071421  47.1449683  69.4173794
  29.9311533  47.3595545  68.4876416  29.1027823  47.0465682  69.7151704
  14.0286681   1.8963092  22.8887272  14.0265486   1.4198821  22.0585155
  13.7066683   1.2623160  23.5295153  62.0525179   2.4816459  38.0994606
  61.1225018   2.4564593  37.8743601  62.4390468   3.0741637  37.4546814
  49.6398363  19.4518798  38.6328959  49.7698102  18.5403102  38.3713984
  48.7688026  19.4653933  39.0295720  26.7140436  64.9572659  26.8640947
  26.3415527  64.1582394  26.4912152  27.4480391  65.1708508  26.2880182
  56.5506587  33.9351123  17.4939680  55.7031045  34.1058772  17.9047275
  57.1319852  33.7219661  18.2239401  71.3548485  44.9450610  53.9797530
  71.1673383  45.6100104  54.6422610  72.2444061  44.6529315  54.1786883
  45.5575940   9.5726149  14.2306006  45.7067725   9.1750186  13.3727562
  46.3543472   9.3809264  14.7252476  69.9978361  12.2307818  25.7331061
  69.6910104  13.1196730  25.9119105  70.7554683  12.1188777  26.3073039
  74.4427995  43.9359305  68.0317054  73.9727072  44.7660468  68.1101178
  74.6246366  43.6773798  68.9352094  20.9463334  76.3283014  24.1946197
  20.6167960  75.9512711  23.3788466  20.2607560  76.9361353  24.4716740
  72.2715119  26.4472888  48.7355242  72.8394572  25.6833193  48.8356075
  71.9820825  26.4127753  47.8237829   4.2738169  69.1142130   1.1157817
   4.3569234  68.1871986   0.8922349   4.9412984  69.5492887   0.5853008
  65.0759409  22.0480225  40.0403509  64.6865169  21.5582583  39.3159804
  64.9389169  21.4913580  40.8068857  66.2973961  42.6415198  33.1092787
  66.9749126  42.0948642  32.7113295  66.6034135  43.5383933  32.9743576
  69.6124467   6.2452357  23.1153679  69.6005354   6.2735122  22.1586609
  70.0992260   7.0284217  23.3720875  61.4068142  44.2982600  67.1287951
  61.5005271  43.7372992  66.3588795  62.0882455  44.9625037  67.0255408
  10.8018392  15.0575371   7.8507366  10.9708231  15.9533425   7.5588312
   9.8716324  15.0505991   8.0763521  71.4927150  62.7578878  32.2110963
  70.9327079  62.6416969  32.9786396  71.3529302  63.6675787  31.9481230
  70.7985247  67.5279760  43.4166813  71.7051138  67.2736359  43.2445240
  70.6833960  68.3461332  42.9333639  43.8638735  78.0497694  52.1430588
  44.2441463  78.2298374  51.2832928  44.5304394  77.5336647  52.5964403
  81.6029845  59.1842985  57.8681660  81.7488263  60.1003790  57.6320457
  81.8722285  59.1274738  58.7849569  26.9472122   2.9988330  35.2347684
  26.4954396   3.3013194  34.4469595  26.3722278   3.2577269  35.9549069
  52.8958115  11.6217654  22.1647477  51.9515810  11.4937442  22.2556973
  52.9890523  12.5369685  21.9002581  15.6671083  71.6560078   5.2272797
  15.5906940  71.5596914   6.1765516  15.7375586  70.7591009   4.9004379
  77.4133555  35.0085042  62.2985587  78.3097426  35.3334687  62.3829541
  77.5082580  34.1464160  61.8935582  21.1061668  78.7780285  30.0815821
  21.7997050  79.4292212  30.1873302  20.9537578  78.7416267  29.1372943
  16.4427352  68.0652618  22.1516156  17.0341229  67.3261404  22.2937012
  17.0124805  68.7737370  21.8521476  21.9001332   5.0427887  52.7139435
  22.3725024   5.7067893  52.2117433  21.3088742   5.5433533  53.2761535
  56.7600045   0.4927867  11.8807673  56.5561876  -0.4173524  11.6655207
  57.6652751   0.6100695  11.5927434  66.6329908  67.7960873  17.5619745
  67.1664953  67.0922565  17.1928835  65.9530163  67.3443222  18.0617487
  38.5056233  68.5459661  40.6457901  39.1299224  69.0820122  40.1567698
  37.6539779  68.7654448  40.2679539  39.7165022  11.2454646  21.6175318
  40.2738127  11.8874877  22.0573521  39.1419539  11.7694800  21.0593772
  38.0031745  15.3293536  57.2819469  38.3526377  14.4408963  57.2129891
  37.6546089  15.5179188  56.4106402  45.3936848  10.9563392  43.6364698
  45.2484498  11.8725436  43.4004402  44.5840964  10.6900351  44.0722179
  80.0658537  41.8295336  24.5095372  79.4844831  41.0698748  24.4754601
  80.8792920  41.4919758  24.8845124   5.9291369  77.5133610  20.7548380
   6.3077933  77.8496122  21.5671110   5.6754518  78.2966280  20.2666116
  23.2946134  55.7797956  26.3159561  23.4175062  56.1212635  27.2016907
  23.4589219  56.5302849  25.7449937   0.9637067  54.7104311  36.7056918
   1.6833788  54.8670387  37.3170662   1.3873142  54.6392679  35.8502841
  31.0180083  42.8060267  66.4277715  30.1410380  42.5935481  66.1083833
  31.2546053  43.6082385  65.9622497  77.5714199  33.5791180  50.8688030
  77.4048201  33.7489007  49.9416301  77.3152057  34.3888066  51.3103781
  14.4560909  68.1491756  18.9952326  14.1226244  67.4072456  18.4906816
  14.0356612  68.0651522  19.8510432  41.7902681  34.5809214  32.1343160
  41.3475880  34.0370791  31.4827752  42.6694963  34.7120517  31.7793584
  23.6383343  56.8543434   1.2050439  23.8082075  55.9131861   1.1651670
  23.4798050  57.1078539   0.2957398  58.3690557  10.4217761  22.7971554
  57.8452739  10.9423392  23.4061742  59.2297778  10.3624003  23.2117224
  33.8468981  73.6112022  11.9867587  34.0213132  74.5072412  11.6987920
  34.4084668  73.4921980  12.7527297   7.4062783  27.5378346  20.5131412
   6.4582336  27.4556088  20.6164908   7.7325886  26.6400218  20.5738258
  57.6920886  50.5812476  62.9622373  58.1852818  49.7609828  62.9495481
  58.2192118  51.1857626  62.4398086  20.7513261  49.3074465  17.4601769
  21.0488367  49.1734123  18.3600402  20.5810833  48.4251690  17.1302748
   1.9321784   7.5880568  12.5629926   2.7589806   7.1659129  12.7962840
   2.1808632   8.2787364  11.9487143   0.0947985  13.8276332  30.2169132
   0.4732523  13.0812400  29.7522593   0.3623972  14.5899909  29.7036576
  73.8485718  66.6893005  14.6972513  73.7817192  65.7399178  14.5950937
  74.6958923  66.9125700  14.3119872  38.8589215  67.2317696  21.5914035
  39.5270205  67.2677660  22.2759318  38.5027504  66.3452816  21.6507244
   5.4346621  41.3598633  61.3780212   4.5414937  41.1211777  61.6260338
   5.3374183  41.8153238  60.5417633  17.8815594  36.3763497  65.8734012
  18.8351241  36.4181874  65.8013386  17.5818673  37.2403786  65.5907873
  33.8208580  71.2521648  16.3523972  33.6091256  70.3811455  16.0166562
  34.4254208  71.6174221  15.7063913  72.6059891  63.0524969  27.4955273
  72.9462351  63.2757282  28.3619165  72.3495628  63.8926125  27.1151519
  62.7227935   4.9574607  47.9074574  63.1004581   4.2638629  47.3666096
  61.9672093   5.2663844  47.4075651  19.5787802  41.7666743  68.6212479
  20.0477543  40.9962199  68.9417223  18.6965552  41.4479468  68.4306559
  42.0886040  50.6150532  13.3535039  41.4379120  51.3155508  13.3072269
  41.6323566  49.8924494  13.7846816  84.4889704  42.5755045  67.1134469
  85.2288310  43.1824420  67.1348665  84.5357863  42.1712801  66.2470508
   6.1646801  61.9844389  23.3545017   6.2812489  62.3367453  24.2368436
   5.9498036  61.0617781  23.4914613  61.3626766  61.0344934  13.2585013
  61.0949135  60.3688526  13.8921034  60.8305311  60.8551264  12.4833381
   6.0554042  32.4778721  58.8017521   5.3400054  32.5586484  58.1709513
   5.6215945  32.4592516  59.6548018  30.2722096  50.3376198   1.7256752
  30.9607625  50.2960157   1.0620516  30.7206249  50.1428604   2.5486118
  25.0701427  66.3001823  56.9226933  24.8732781  65.8513880  56.1004686
  24.4311213  65.9520578  57.5445414  41.8239021  76.6788721   5.5381602
  42.6871681  77.0718431   5.4093879  41.4871454  76.5449286   4.6522221
  20.0553599  34.3027995  64.6109000  20.3907242  34.3217108  65.5072281
  20.7860699  34.6115515  64.0752080  50.7829189  15.1384664  21.6898704
  51.5849829  15.5678809  21.3923335  50.7826471  14.2934835  21.2401652
  27.6524753   3.5477584  26.7849302  27.0829788   4.0718406  27.3481727
  27.8448092   4.1187041  26.0411143  50.1773605   8.4106677   4.7802460
  49.3842897   7.8746932   4.7793967  50.8900127   7.7837317   4.9039480
   0.5169972  48.6214161  45.1055145   0.2173720  49.4652557  45.4437304
  -0.1839419  48.3356714  44.5196247  25.9370685  37.1094155  15.0559950
  25.0072384  36.8989348  14.9702859  26.0931778  37.7798390  14.3908691
  75.5712010  52.0965290  41.8371534  75.0462390  52.8728628  41.6423368
  75.5914934  52.0548630  42.7932310  34.0321824  28.4760897  23.9569092
  33.9383760  29.4085543  24.1516900  34.2568669  28.0772345  24.7975421
  70.3105248  52.3937845  26.1635876  70.7997919  51.5833569  26.0219669
  70.5204500  52.6462889  27.0626998  13.9546752  62.5382614  11.9294596
  13.7476575  63.0058432  11.1202979  13.4276783  62.9738760  12.5993443
  21.3953471  51.5053177  26.8361354  21.6318870  52.4170017  27.0067620
  20.7341433  51.5546036  26.1457634  83.5967482  77.5390816  28.1875491
  83.1249538  76.8821621  27.6755977  83.8079331  77.0959902  29.0093136
  33.8600636  69.9038267  12.3404920  33.0122399  70.2662325  12.5975668
  34.0044665  70.2372217  11.4549255  25.0712848  66.1840200  17.4333048
  25.7581043  66.4848852  18.0282772  25.3290725  65.2917910  17.2015727
  78.1780569  10.1863215  66.3432253  78.3671085   9.3137143  66.6882611
  77.5808660  10.0303767  65.6115994  19.5884934  46.7999861  68.1231676
  18.7607613  46.8853877  67.6500963  20.1835766  47.4010966  67.6750906
  12.1349525  45.7378483  20.2457952  12.4851322  44.8705006  20.4490638
  12.4833381  45.9392881  19.3773019  32.2862029  47.5605679  12.0776200
  32.7681875  46.9261026  12.6080704  31.8515253  47.0320988  11.4082873
  36.1227036  51.4270592  13.9085269  36.9972348  51.6581345  13.5954261
  35.7030368  51.0063791  13.1581008  11.3001678  21.9419616  40.6832170
  11.8197271  22.4417823  40.0535631  11.6370711  22.2100299  41.5381241
  59.7450885  28.5869639  22.3620844  59.5144686  28.3295386  23.2547069
  59.3611178  29.4574683  22.2570944  24.2825103  60.2777052   3.9358574
  24.8039222  60.3456020   4.7357023  24.5059276  61.0634184   3.4368858
  59.8896492   2.9508755  65.1562977  59.3714000   2.5032828  64.4874868
  59.5289720   3.8370440  65.1855112  76.1235417  36.2747478   4.0526929
  76.4434488  36.3022852   4.9544320  75.1964189  36.0510683   4.1341937
  76.5030090  78.9823267  50.9209118  77.0413391  79.6617816  51.3268337
  76.5581445  79.1619513  49.9823353  53.5506138   2.1700328  18.4237552
  52.9724512   2.8362887  18.0521941  52.9591736   1.4790671  18.7220919
  64.8668084   3.9947646  28.5101366  65.7413969   3.6915438  28.2664490
  64.2800102   3.5496848  27.8987455  69.6365289  29.2026684  59.0395102
  70.5443875  29.4855950  59.1489467  69.5815853  28.3803484  59.5263443
  35.4792962   5.3912585   2.1241422  36.0372183   5.1996463   1.3703242
  35.1900485   4.5324843   2.4324794  12.6019716  74.4887590  11.5272558
  12.6481009  74.6356487  12.4719930  12.4765527  73.5440540  11.4375925
  45.8612952   2.0772879  21.4629531  45.9614870   1.5380137  22.2474074
  46.4371345   1.6690009  20.8164692  51.5135574  69.9751282  41.6329718
  51.1901236  70.1198673  42.5221682  52.0001030  69.1525126  41.6860199
  21.1704573  25.9612029  13.1754410  21.2890896  25.3726428  12.4299479
  21.8957982  25.7516520  13.7638307  27.3627377  46.3991594   0.7860078
  28.1024718  45.7930470   0.8266496  27.7226853  47.2363472   1.0788967
  83.5936824  24.6890900  23.4130773  82.9900137  23.9595053  23.5527811
  84.1529719  24.6893094  24.1898832  79.4574890  38.5220855  34.4571280
  79.9173936  37.8278964  33.9851022  79.0014944  39.0143912  33.7745261
  76.0719070   9.4226878  10.3399420  76.9602308   9.6249717  10.0463510
  75.6164941  10.2644389  10.3228378  67.2482204  79.6276855  42.1098471
  66.4621401  80.1365757  41.9115257  66.9393778  78.9211321  42.6769733
  41.6875562   1.0025447   8.7961143  40.7849190   0.8788531   9.0896773
  42.1785519   0.3054755   9.2311490  13.3931446  49.2159748  19.9393523
  12.5562644  49.5085430  20.3002810  13.8267696  50.0212145  19.6568799
  54.5255899  72.1084881   4.9850085  55.0686550  72.6921988   5.5147207
  53.6481905  72.4880362   5.0334895   2.0161965  72.9287148  38.5372329
   2.5914147  72.2812366  38.9448190   2.2556494  72.9122162  37.6106143
  40.8694172  41.9337606   9.7556627  41.6885614  41.5760517  10.0981224
  40.1858091  41.4139891  10.1784492  10.0504747  74.5109103  43.7202821
   9.4230786  74.8510478  44.3581805   9.5238414  74.3221018  42.9435954
  76.3224427  55.3839324  57.2368190  76.6342322  56.1604235  57.7016601
  77.0350687  54.7507498  57.3233185  17.4362445  78.3592272  15.5482829
  16.6997480  78.2323551  16.1463714  17.8046334  79.2065716  15.7983458
  43.5824785  15.7623713  26.8952012  43.5306165  16.2737029  27.7027130
  44.4152066  16.0215037  26.5006828  14.1028157  33.3730528  59.6715579
  14.0258160  34.3148015  59.8245749  14.4372168  33.0227969  60.4972276
  59.8766026  16.9062465  26.5185523  60.6529436  16.3881915  26.3060880
  59.1411457  16.3211482  26.3369131  38.1780410  66.0076380  54.3657398
  38.4044576  66.7496300  53.8050222  38.5514116  66.2293530  55.2187729
  59.7707042   2.2660296  37.0139980  59.5605573   1.8194812  36.1938357
  58.9227972   2.5477164  37.3574185  23.3499575  70.0551844   7.9907465
  23.9230895  69.4662476   7.4999237  23.8340020  70.2459002   8.7942147
  73.5502938  24.7444127  61.8147448  74.2137019  24.0552208  61.8484733
  73.0980627  24.6010659  60.9833774  60.0423908  70.9316540   7.3892099
  59.8619318  70.9114027   8.3290267  59.2649651  70.5436182   6.9876271
   5.7639682  31.8673062  31.9019723   5.2216053  32.4205494  32.4641085
   5.8801270  31.0591435  32.4015832   3.1826201  46.5926096  49.0406332
   2.8299466  47.0343039  48.2681260   2.5753394  45.8704779  49.2017684
  62.3466858  17.5959437  18.5219562  63.1999645  17.6488631  18.9524710
  61.7888841  18.1920379  19.0217173  29.3892279  80.1254866  69.7389545
  28.6185494  79.6208785  69.4788636  29.9820891  80.0602458  68.9902946
  30.8234096  58.1412745  26.2660003  31.6992211  58.2070351  25.8853960
  30.2722597  58.6732721  25.6920266   1.3349923  39.0485518   7.3994797
   0.8278855  38.2631247   7.1941185   1.5233477  38.9742225   8.3350164
  68.2640919  12.3022692   5.3511614  68.9417038  12.5877898   5.9639835
  68.4336576  11.3687651   5.2244985  38.0187842  22.6886790  21.8011880
  37.0945379  22.5290244  21.6101146  38.1476608  22.3284858  22.6786184
   6.9864472   5.7627719  32.8873754   7.5214060   6.4410250  32.4750376
   6.4686688   6.2312072  33.5421371  68.9676193  19.9895833  57.2693083
  69.6292070  20.6670830  57.1295700  68.6294917  19.8008273  56.3939378
   3.0776083  70.7948828  46.5299654   2.6461411  70.3371382  45.8084869
   3.6397207  70.1324892  46.9318295  48.6722089  25.8151913  25.7249069
  47.7947522  25.5675411  25.4334068  49.1692401  25.9327817  24.9153614
  32.0896149  66.5034866  17.3239446  33.0454993  66.4785433  17.3674691
  31.8487120  67.2969532  17.8020787   6.0079527  12.9560757   8.9888334
   5.2021360  13.4680200   8.9195198   6.4634651  13.3275306   9.7443211
  74.6156431  37.3669076  28.2139683  75.4102434  37.6761723  27.7789998
  74.9147321  37.0619249  29.0705705  63.9105708  78.9369302  63.7156329
  64.4502575  79.6149568  64.1221407  64.5328290  78.3930211  63.2327363
  41.5913248  55.8309221  12.5626385  40.9087229  56.1002254  11.9480157
  42.1736670  56.5883732  12.6207852  54.9445928  21.5880082  53.3265958
  55.7079474  21.2445090  52.8623423  54.5370207  22.1905491  52.7044532
  80.5845683  45.8053992  53.7853966  79.6535771  45.5854723  53.8187966
  81.0306065  44.9990199  54.0442834  73.5040394   0.5297158  54.5048282
  74.1583447   1.0531781  54.9675414  72.9497329   1.1739180  54.0644011
  70.1908554  74.9861908   6.6352469  70.6372238  75.7992506   6.8717206
  70.2249313  74.4542694   7.4303132  78.5861714  25.5581594  30.2678514
  77.6596607  25.4844213  30.0389981  78.8487841  24.6658897  30.4939461
  23.9890289  67.7390623  12.2897398  23.2444191  67.1599150  12.4521542
  24.6890783  67.3894739  12.8410578  19.5338017  70.2299099  42.8865299
  19.1270805  71.0080604  42.5053582  20.4146094  70.2123193  42.5122294
  82.5471715  38.1503081   8.6470151  82.5293575  38.3173275   9.5893627
  82.3446638  37.2183704   8.5650730  80.4707096  36.1428952  20.6393170
  80.9912087  36.3821363  19.8724556  80.4095341  36.9509077  21.1488318
  26.3669660  48.5375123  56.3070283  25.8074153  49.1702472  56.7573414
  26.5495909  48.9407037  55.4583142  63.3647991  63.7735033  15.5880523
  62.9476787  63.3594799  16.3435829  63.3887745  64.7047472  15.8081555
  21.0847229  71.8007474  26.3357267  21.9630248  72.1811681  26.3456449
  21.1852736  70.9784488  25.8562002  29.6169463  11.7078612  68.1683405
  30.4927197  11.5618203  67.8106767  29.6149292  12.6291010  68.4282318
  30.0443292  21.9841766  10.4217303  30.5466032  21.7605376   9.6381885
  29.4099379  22.6352119  10.1218426  51.4516906   5.8784936  63.4352765
  51.9446389   5.8418391  64.2549655  52.1032209   6.1124966  62.7742282
  43.4736974  59.5630030  57.9364881  44.0886886  59.2708127  57.2637019
  44.0216810  59.7409932  58.7008605   8.5896140  36.7366552   5.1442522
   8.8683808  37.2795224   5.8816922   8.8416111  35.8473015   5.3928030
  24.1180057  50.4251044  34.8574195  23.8218946  49.7136365  35.4251895
  23.8270072  51.2220876  35.3005538  28.4875512  27.8585029  27.9754019
  29.1099048  27.7204132  27.2613716  27.6610613  27.5073099  27.6440263
  45.4660646   9.1160176  54.7172365  45.8659843   8.4307835  55.2527270
  44.5705537   8.8121483  54.5690570  15.1505446  54.6877337  13.3167481
  14.3939590  55.0484037  12.8544426  15.3863704  53.9061689  12.8169715
  38.0783213  80.4484062  67.5906086  37.9585261  81.2577848  68.0873865
  38.1887502  79.7716026  68.2584243  36.1452097  50.6591778  68.2276181
  35.3575165  51.1895923  68.3477505  36.7546976  50.9817116  68.8914920
  67.5718433  53.4750848  49.7145400  68.3025677  53.5274868  49.0984807
  67.9862124  53.4653585  50.5773458  73.7035121  20.8230352  25.0818372
  74.6493269  20.9386969  24.9907923  73.5629417  20.7322454  26.0242963
  84.7656405  46.4856863  -0.0088051  84.9606194  46.3131618   0.9123088
  84.8411545  45.6312943  -0.4337111  70.1061357  46.2629652   2.9557639
  69.7637416  47.1080875   2.6646221  69.4106043  45.8984661   3.5031316
  57.8761650  70.2498150   4.7617409  57.5530888  70.0968075   5.6496841
  57.2279049  70.8339548   4.3683344  12.9544306  43.0985165  20.6593513
  13.1594968  42.1674585  20.7448483  12.0497847  43.1168270  20.3470778
  14.6502819   0.6894228  66.3492686  14.9150029   1.2925169  67.0438421
  13.7070027   0.5823348  66.4716855   7.6452857  73.8535929   6.2552416
   8.4907264  73.4294462   6.1084116   7.8682303  74.7387123   6.5435040
   3.5138521  56.5367460   4.6759444   4.3966010  56.8949270   4.7691724
   3.4039754  55.9689474   5.4386789  82.4482162  68.6970282  17.7699649
  82.1167366  69.0574074  16.9474792  81.9974489  69.1978693  18.4498203
  26.4946342  36.2269402   6.2912458  27.4197316  36.2384725   6.0456955
  26.0585117  35.7875466   5.5612034  62.5683323  31.3667843  53.9306662
  63.4585790  31.0175488  53.9721987  62.6769439  32.2619078  53.6094317
   9.2079931  17.1902537  15.9976494   9.7025126  17.8920138  15.5743098
   8.5622996  17.6448941  16.5385866  84.8039990  17.0412266  36.3394260
  84.7736854  16.0886502  36.2504864  85.2326638  17.1895587  37.1823239
   6.2266451  53.3805418  20.6794262   6.6867453  52.5831318  20.9414840
   6.3026822  53.3983994  19.7254193  22.7002782  72.9320864  44.7879610
  22.8467376  72.8184395  43.8488827  22.0360250  72.2788028  45.0075564
  78.3748857  26.2403939  67.2804173  78.5638801  27.0553372  67.7455812
  77.6850859  25.8240626  67.7972123  15.2814090  58.4387350  19.6055079
  14.3715847  58.6489391  19.8159027  15.7123899  58.3615208  20.4566979
  83.8723318  15.7576821  61.5165475  83.1401531  16.2298558  61.9130299
  83.9742366  14.9751971  62.0583645  15.4550457  41.3718033  13.3253920
  15.6751382  40.6739283  12.7083313  14.8160279  40.9752274  13.9175200
  71.0560457  19.4262955  33.2577190  71.1842362  20.2486250  33.7305555
  71.2926332  18.7473080  33.8895688  51.5839032  16.4870856  64.3314627
  50.9281889  15.7921717  64.3894539  51.8546305  16.4849255  63.4133485
  64.0160475  15.8599303  66.8852142  64.2565278  16.4809487  67.5727705
  64.3286399  16.2652276  66.0763580  31.4175630  71.3131380  13.1924629
  30.9760523  72.1308947  12.9631639  31.0937333  71.1035919  14.0685081
  50.3695075  40.6474803  66.8509388  49.4471703  40.5175707  67.0715076
  50.4843000  40.1863978  66.0200003  74.9539972  29.3793464   8.2625163
  74.4959522  29.0909743   7.4730432  75.4662044  30.1366806   7.9791033
  13.4547234  68.3856916   5.9134251  13.8051677  68.4941196   6.7975426
  12.8363323  69.1090393   5.8105201  11.1054507  13.6816714  45.2981505
  10.8734098  14.2998383  44.6051440  10.8917704  14.1410420  46.1102781
  29.2545128  68.0176687   8.3372670  29.7045255  68.5009241   9.0302193
  28.5042977  67.6148939   8.7745106  26.4050174  74.8417759  10.4017079
  27.0018697  75.4101038  10.8885372  26.9763494  74.3250847   9.8335153
   8.0588284  37.7339671  46.9508347   8.3581176  36.9071124  47.3289523
   7.6438513  38.1945393  47.6801452  77.7537171  29.2563746  66.8328509
  77.6735679  29.5156930  65.9149394  78.0335156  30.0532601  67.2833120
  85.5399386   4.0043376  51.3438973  84.8149101   4.6083138  51.1833439
  85.1307766   3.1392548  51.3652322  71.4539567  29.8780558  55.2158723
  72.0204500  29.4723485  54.5595786  71.7600147  29.5214961  56.0497937
  37.2082019  56.2604141   0.5593050  37.8164458  56.8512535   1.0033572
  37.5706959  55.3871489   0.7084130  54.9787933  78.9802484  65.2078748
  55.6536586  78.3821802  64.8867795  55.4621679  79.7550659  65.4946441
   0.5956801  35.7871747  53.1239033   0.7232107  35.5188894  52.2139597
   1.1587442  36.5541315  53.2286406   2.5361243  53.0122137  14.2788398
   2.2386874  53.3558321  15.1212704   2.3855144  52.0688105  14.3383288
  15.8516181  76.7637014   8.5402554  16.6519248  77.2770834   8.4298819
  16.0064292  75.9667683   8.0331409  32.1678772  29.9131129  64.0556971
  31.3116732  29.8613474  63.6308828  32.1734133  30.7713006  64.4796303
   7.8480524  72.5317812  14.1418314   7.9987931  73.0460501  13.3487129
   6.9943422  72.8259897  14.4594038  16.0734630  66.5060520  27.6463819
  15.9924626  65.5794716  27.8724933  16.7758512  66.8297148  28.2104063
  77.3791594  24.8504925  13.9710510  76.8630726  24.4805598  14.6873164
  77.8472329  24.1017628  13.6015332   1.0887461  79.9086432  32.2393117
   1.8047839  79.5522313  32.7651343   0.3743678  80.0372748  32.8632936
   4.0377468  32.7534604   9.5284849   4.6731484  32.4842906  10.1918423
   3.2828647  32.1833467   9.6746105  38.7687451  76.8877678  42.9185734
  38.1667936  76.2053351  42.6216349  39.4961471  76.4091282  43.3160934
  22.7060628  62.7542114   5.7078111  23.0043697  61.8900013   5.4242975
  22.0257854  62.5720072   6.3560820  18.9186943  23.1138659  15.5140972
  19.2400503  22.7775955  16.3506877  18.1221712  23.5945845  15.7392478
   5.8560252  53.0037069   6.1522317   5.5944270  52.7711916   5.2613139
   5.3520763  52.4127817   6.7117602  27.5076818  46.3710451   4.0599886
  28.1120348  47.0740318   4.2983130  27.2250152  46.5890265   3.1718364
   0.7571768  80.2689552  20.6220913   1.3105100  79.5335150  20.3590536
   1.3347398  80.8302021  21.1394405  10.9570208  30.0736973  59.3908140
  10.1052442  30.3808949  59.0804372  11.5071478  30.0614235  58.6075887
  15.2968347  57.5102520   4.8865888  14.8752642  58.2393408   5.3414959
  14.6123672  57.1530771   4.3207625  18.1355372  10.6961319  64.6709809
  17.4235573  10.5237982  64.0548471  17.9725113  10.0966046  65.3991455
  57.2527443  70.1142533   0.1468663  56.3489521  70.2009506   0.4499754
  57.5788765  71.0132439   0.1058078  35.2663040  76.0136175  15.0144494
  35.8816147  75.5829334  15.6078613  34.5131612  76.2282753  15.5648375
  14.5221567  37.0859551  12.0640707  14.3524814  36.2980986  11.5476155
  14.3569803  36.8196392  12.9685175  29.9443722  65.6771803   7.0812863
  30.1610732  65.1384974   7.8422654  29.8703456  66.5655422   7.4299532
  48.8079769  51.7030387  62.4503950  48.6808807  52.5420551  62.0075295
  48.1029422  51.6641073  63.0966476  69.6945170  40.8673689  59.8364285
  70.4073850  40.2659056  59.6212754  69.4409601  41.2486956  58.9958749
  59.5404098  11.9524548  66.6448951  60.2137966  12.5518534  66.9666174
  59.5457543  12.0735953  65.6954068  31.1778021  68.0984211  20.7480121
  31.4739180  68.2488108  19.8502767  31.9385648  68.3086872  21.2895465
  31.5800166  66.4241695  12.0252824  31.0120797  65.6600332  11.9264328
  32.2918725  66.1221361  12.5894368  48.9692298  47.6389906  69.0184660
  49.7070531  47.0643733  69.2225923  48.4625564  47.1555731  68.3659158
   9.9241561  68.9113760  58.1812048  10.4440677  68.4066916  58.8066816
   9.0525353  68.5178375  58.2216406  81.3337455  62.1684647  17.8958070
  80.8749567  62.0469379  18.7270570  81.3876040  63.1181097  17.7885628
  23.6769203  17.7121966   9.3614340  23.6838135  17.4032443  10.2673757
  23.7242452  18.6655371   9.4331300  63.7742178  28.1590436  56.6547630
  63.6704818  27.8552792  55.7529876  63.9586578  29.0947030  56.5726003
  25.1359034  63.2313490  22.8791285  24.4866729  62.5313330  22.8105116
  24.8614788  63.7384844  23.6431575   3.1793186  67.3690033  34.3248653
   2.2655654  67.1845770  34.1074371   3.4761083  67.9587460  33.6317921
  38.1820273  72.2989798   0.3345706  38.2469869  72.3436356  -0.6193778
  37.8639984  71.4137220   0.5118017  36.9519353  59.0246391   4.4290715
  36.1261082  59.3640280   4.0840244  36.6915536  58.4348917   5.1366222
  19.0231299  14.3106043  26.5246344  19.1512167  15.0912309  27.0635676
  18.6342049  14.6400785  25.7144403  72.8966531   4.2692893  11.5269148
  73.0822382   4.6058600  10.6502700  73.6053571   3.6497729  11.7006159
  60.1265819   6.1789200  56.7280230  60.1002313   5.2895472  56.3751075
  60.8521230   6.1674902  57.3522768  65.3893165  14.4760964  62.3137930
  65.5812184  14.3903277  63.2476285  64.5464621  14.9287341  62.2830674
  23.7409568  34.9493766   5.3096616  24.3845773  35.1897264   5.9761578
  23.2030487  34.2769265   5.7276267  26.2308407  54.9854279  28.1011462
  25.4533219  54.4484663  27.9482841  26.1951947  55.1985407  29.0336418
  10.8861530  79.5200062  28.3588147  10.0411141  79.9476719  28.2200909
  11.5048301  80.2420712  28.4687901  35.8465886  69.9738455  14.1426027
  36.1388254  69.0707064  14.0194571  35.0240016  70.0278568  13.6561215
  15.5826945  67.5513248  63.3441738  16.4199752  67.9675774  63.5489336
  14.9631149  67.9444651  63.9588222  63.7022234  20.0378489   3.3103383
  63.3244373  19.3127131   2.8126541  64.6379567  19.8400068   3.3489513
  45.4606924  12.3784201  23.8513064  44.6748254  11.9203322  23.5533094
  45.2262351  12.7197020  24.7143149  15.1156628  16.9894087  26.2126207
  14.2908454  17.3711395  26.5129375  15.0059605  16.0477555  26.3448548
   8.8540447  65.0453377   9.8051244   7.9437721  65.2998877   9.9562478
   8.8558942  64.0931606   9.9030662  82.0789022  42.5639343   4.6496394
  81.1627282  42.3354959   4.8067108  82.3735980  42.9520893   5.4734862
  39.3739203  53.7917540  45.5202303  39.0027992  54.4055579  44.8864016
  40.2211610  54.1712782  45.7534036  17.7528191  51.7932034  20.0082684
  16.8258011  52.0299816  20.0366688  18.2122457  52.5929785  20.2642393
  14.1722834  32.8000522  23.8699532  13.2890809  32.5546765  24.1455889
  14.6429205  31.9689727  23.8063931  79.3192641  31.8238518  63.8649056
  80.0418512  32.0305989  63.2721523  79.0923325  30.9170792  63.6587677
  13.1338370  60.0908375  10.7522619  13.5922492  59.7275972   9.9945354
  13.5648787  60.9301949  10.9132278  61.6858325   4.2476123  33.3365560
  60.7518897   4.3790477  33.4999800  61.7212257   3.5059588  32.7324581
  14.9709010  50.2739620  10.4700303  14.6443880  49.4064093  10.7087290
  15.8297992  50.1080513  10.0814450  21.8883657  46.0751486  26.0493803
  21.8762136  47.0260429  25.9403706  20.9692001  45.8359337  26.1683083
  73.4801826   2.2305148   0.9481721  74.0196952   2.8380530   0.4421549
  72.6752529   2.1427481   0.4376673  69.2809526   0.7964585  58.8194558
  69.7553424   1.6257260  58.8786039  68.3574311   1.0481188  58.8220534
  61.4063157  17.5143979  64.4318512  61.2384895  16.7429373  63.8906333
  61.0167981  17.3013852  65.2798686  13.8932300  59.9148989   5.4204595
  13.2874346  60.0627851   4.6942544  14.2453849  60.7825232   5.6190747
  80.2717723  34.3216014  24.8293233  80.8553271  35.0774240  24.8958659
  80.7912568  33.5881948  25.1586866  13.6907268   6.3802648  30.6743383
  13.8357055   6.3024724  29.7313857  12.7641058   6.1712140  30.7922482
  84.9767728  36.8924952  21.2668300  84.8712907  37.4397898  20.4886436
  85.7557972  36.3665366  21.0859394  68.3500887  78.7900209  26.4983916
  68.1464196  79.5149946  27.0892930  69.1970183  78.4637976  26.8025637
  11.4758813  31.2703872  12.4490941  10.7488060  31.8555069  12.6617682
  11.1216092  30.6800580  11.7840874  33.4921455  50.0758171  19.7494185
  32.7751160  50.6992531  19.6335459  34.1980124  50.5922127  20.1384139
  50.3085027  37.8557847  68.5274336  51.0054199  37.7134631  69.1679661
  50.6147830  37.4105952  67.7373517  17.7170029  22.5896666  63.4327457
  17.6099196  23.5002015  63.1576261  16.8567887  22.1941636  63.2919166
  56.4210138   3.4146855  65.6361607  57.0672563   3.9480183  66.0989321
  55.8962932   3.0175040  66.3312480  11.4715421  43.6351252   9.1434789
  11.3018775  42.7949905   8.7173045  12.1881723  44.0194368   8.6385268
  32.7932954  56.7246485   8.5703504  32.5219512  55.8996916   8.1677932
  33.2562900  56.4620543   9.3659085  80.8167143  69.9667931  42.2992754
  81.5372930  69.3804312  42.0686722  80.3323437  69.4958544  42.9773855
  79.2953218  23.1529617  11.2722778  79.9381806  23.4370136  11.9221079
  78.8042356  23.9462924  11.0585165  21.3948536  78.6379814  18.3405328
  21.3538146  77.9008961  17.7312315  20.8826923  78.3522081  19.0970075
  60.6940112   8.4264605   2.0401585  60.5398736   7.5453990   1.6992739
  61.6336021   8.5673373   1.9237369  48.7585813  72.5505094  53.2459101
  48.2202012  72.0705156  53.8751814  48.2406814  72.5537042  52.4409244
  23.4683409   7.0713685  51.5088556  23.0315152   7.8123019  51.9288943
  24.1469803   7.4706194  50.9645424   9.5368844  33.2117724  13.1950545
   9.7366339  34.0671945  12.8148091   8.5994214  33.2471776  13.3851647
  64.5274464   2.2122691  61.9011119  64.3688748   1.2833712  62.0691440
  65.4652909   2.3267529  62.0546469  47.7587986  73.4284449  14.8245060
  48.0329561  72.5141764  14.7524953  47.6225042  73.5644817  15.7621360
  66.9826809  55.3637908  54.3759939  66.7385594  55.6801722  55.2457843
  66.7014305  56.0586188  53.7807283  15.1838541  62.0279360   2.4955395
  14.6894097  62.5682783   3.1118077  15.9085035  62.5868225   2.2148947
  41.5952682  63.9258242  24.4754887  41.1481571  63.3492994  23.8558602
  41.3072634  63.6217737  25.3362060  83.8726776  53.6628437  13.6252880
  84.0479658  52.7852726  13.9649642  84.3696311  53.7071609  12.8084004
  35.9102583  19.8694170   3.8067535  35.9994507  19.5349634   4.6991763
  34.9757409  20.0537944   3.7123531   5.3085673  58.9514112  16.1412930
   4.8779365  59.8060322  16.1616611   5.2201569  58.6602306  15.2337527
  83.2639649  66.8200541  21.7718625  82.8647782  65.9649992  21.9323945
  82.8340192  67.1399975  20.9787607  73.2325379  14.4166491  55.9470138
  73.5754208  15.3097556  55.9790096  72.3670808  14.5065091  55.5480907
  61.8814162  17.0760939  54.9222228  62.1298907  17.5084851  55.7392475
  61.3253404  16.3469098  55.1966367  74.7283591  58.6844635   7.8314650
  75.3416432  59.4191837   7.8489512  74.8010672  58.2910395   8.7010407
  72.0464877  24.4706223  64.0846673  71.2200932  24.8842452  63.8352302
  72.6476637  24.6877835  63.3721647  19.6691552  10.2121422  57.8131840
  18.8387194  10.4648659  58.2165894  20.0276032  11.0306475  57.4699781
  72.3710445  21.0998652  57.9150150  72.9266600  21.6829608  57.3977885
  72.8993575  20.3109572  58.0364177  84.1487519   7.5422070  63.3412466
  83.9959685   8.2710717  63.9426122  83.8484780   6.7696688  63.8200549
  17.4251878  72.4515963  11.3993645  17.0507872  73.2740831  11.7149162
  16.6798317  71.8532228  11.3481236  36.7372647  19.6237824  41.8049106
  36.0560599  19.9374268  42.3997364  37.2240916  20.4112599  41.5617833
   9.4005811  67.6870251   6.0403073   9.3250012  67.1254539   5.2688432
   8.5063273  67.9837656   6.2090862  24.8147106  22.6634359  15.8760130
  25.5626035  22.5364780  15.2922583  24.5348787  21.7766643  16.1030912
  43.9413411  79.5712189  60.3088215  43.5122723  78.7211137  60.4060582
  44.0651054  79.6704654  59.3648598  26.0846448  57.9683018  14.5898843
  25.3348351  57.8579521  14.0052128  25.8005905  58.6289692  15.2215970
  75.4044906   8.4535382  44.4265971  75.1172320   8.3228800  45.3302798
  74.6188120   8.7476323  43.9656744  71.1814076  44.6641274   0.9594956
  70.7325334  45.4068299   1.3634005  71.4986212  44.1451950   1.6986313
  20.6660676  32.6215124   3.1019080  21.1155534  31.7818069   3.1972319
  20.7208705  32.8176999   2.1666333  18.4297323  38.5152817   8.6551458
  17.7477014  38.1380057   9.2107797  19.2503631  38.2613087   9.0773970
  70.6058464  21.3619559  18.7242687  70.9797058  21.6053241  19.5711660
  70.3213558  20.4553263  18.8396800  61.9328222   3.1302779  41.7605257
  62.0025859   3.7393325  41.0253954  61.8865308   3.6925071  42.5338173
   8.4351343  71.3185406   3.5839060   8.7810510  72.2067785   3.6711559
   8.9792490  70.9149599   2.9076737  45.4018066  16.4170306   7.4105698
  45.2693245  15.7778971   8.1107092  46.3500568  16.4379733   7.2816670
  73.4123278  55.7843351  24.2542267  74.0890121  56.3324356  24.6516132
  73.7623119  55.5588865  23.3923006  34.7999167  63.3311987   4.4539505
  35.5460691  62.9994059   4.9533546  34.1797733  63.6292028   5.1194167
  14.8862448  53.0799601  68.4130694  15.7850256  52.7760432  68.5397962
  14.9777689  53.9967082  68.1534021  23.6144629  58.3021567  49.2749390
  23.9377299  58.6271784  48.4346471  24.4032088  58.0407546  49.7501049
  24.8188486  28.3096478  65.7637608  24.5950547  27.6654360  65.0920895
  23.9940014  28.7583468  65.9495637  40.5127764  65.3891420  14.1437042
  40.0132322  65.8995628  13.5063958  41.0645962  64.8158026  13.6117172
  46.9145060  79.9550867  27.8967953  46.5597534  80.7896709  27.5904560
  46.7762089  79.9692154  28.8438463  66.1672322  15.2480338  49.4735727
  66.6075871  15.4481576  50.2995691  65.4804532  14.6257184  49.7129283
  47.2291660  38.0590463   9.0221536  47.9790354  38.2310700   9.5916539
  46.5407515  38.6368418   9.3515074  34.9195433  17.2159660   0.4569487
  34.5182061  17.8651631   1.0346191  34.8427582  16.3901412   0.9348083
  39.0509176  65.0265455  20.0436950  39.5667219  64.8937511  19.2483675
  39.2627525  65.9180260  20.3204870  56.2998209   4.1698115  11.1974990
  55.7971320   3.3998816  10.9315169  56.1482701   4.8075145  10.4999328
  32.5352144  60.3747368   0.4027256  32.1463037  61.0005426  -0.2082967
  33.1256557  60.9013653   0.9414938  77.9812662  11.8188784  41.6731772
  77.7775375  11.8015358  42.6082859  77.1443168  11.6450570  41.2424407
   7.6516283  62.4683380   3.2611731   8.5114187  62.6909113   2.9041672
   7.7227420  61.5436602   3.4981254  27.1314430  48.3107948   7.5575471
  27.8118038  48.0455112   8.1763899  26.4446616  47.6519060   7.6596880
  82.2550551  22.0871708  51.4782116  81.8530098  22.8812525  51.1260340
  83.0517165  21.9720814  50.9602198   6.4167538  39.2716048  48.6100373
   5.6128183  39.3511698  48.0966315   6.4440527  40.0698683  49.1375479
  84.7229759  10.6839297  69.5034758  85.3047172  10.0593588  69.0702117
  85.2911989  11.1603854  70.1087409  55.6056976  56.2178898  11.8467128
  56.0536194  55.9175253  11.0559034  55.3079748  57.1019602  11.6321981
  66.9539306   2.3442338  68.8868843  66.6741983   2.6654408  69.7440934
  67.4068133   3.0875800  68.4886815  84.9480861  54.3267584  30.2657008
  84.5044662  55.1331758  30.5286121  85.4562116  54.5738888  29.4930625
  80.1716167  77.9193024  28.8141498  79.4033653  77.7090697  28.2832775
  80.8870823  77.9908137  28.1823072  83.5005703  44.5266342   3.4434763
  83.0052502  44.4768667   2.6259112  83.3234414  43.6943674   3.8818729
  43.1632328  10.7927501  24.0748835  42.7146959  10.8370960  24.9193239
  42.6431942  10.1761329  23.5595441  65.8498103  22.6797409   2.1172276
  65.2201844  23.2621546   2.5421944  65.3228766  22.1582766   1.5117111
  21.1924577  40.8007336   6.2358677  20.9754825  41.2090731   7.0739669
  20.8006597  41.3773537   5.5799437  58.3817101  58.1370831  14.2779636
  59.2119408  58.4675026  14.6211433  58.1237507  58.7787390  13.6161768
  52.3116049   8.6413138  22.8936100  51.7916116   9.4442504  22.9272676
  52.4654302   8.4945243  21.9603252  84.7584533  45.7416105  15.5796266
  84.0481783  45.5461121  14.9684632  85.5500306  45.7194042  15.0419056
  49.0089750  16.9949150  11.5769351  49.0156603  17.8234279  12.0562613
  48.6044836  16.3720834  12.1808386  75.8644907  31.8636725  57.9425916
  75.5194942  31.1531804  57.4018357  76.8013219  31.6794989  58.0108485
  81.2944032  26.7506456  16.3920617  81.1803417  25.8587480  16.7203045
  80.8804221  26.7430234  15.5290473  27.1903324  31.3171268   3.0428675
  26.7273664  31.6006923   2.2545248  27.8929114  31.9580531   3.1516227
  62.1327764  77.7409248  60.6793437  62.8954918  78.0154829  60.1703111
  61.4065964  78.2466011  60.3143958  77.8369323  20.0005076  63.7251589
  78.1149808  19.8777030  64.6328149  77.3388831  20.8178637  63.7357346
  10.3564134  31.2794135  66.4987678  10.4032030  31.7134783  65.6469277
   9.5617142  30.7477877  66.4533592  84.9716466  44.4414473  34.4697499
  84.5416212  44.3963099  33.6157751  84.7628569  45.3163624  34.7971034
  26.0372868  31.7575810  49.6019897  26.6487112  32.0984814  50.2548144
  26.1153689  30.8063242  49.6744189  29.7884741  27.3173068  25.7076988
  30.0679007  27.7994988  24.9294672  29.1759291  26.6609643  25.3756819
   9.7302085  62.8174639  29.1099334  10.5639422  62.3711061  29.2578697
   9.8595989  63.3026934  28.2950449  49.9622202  30.3214860  24.7137260
  50.4959249  31.0543776  25.0207472  49.7889614  29.8051000  25.5008483
  54.5225043  18.9160464  26.9473514  53.8784752  18.7841008  27.6430855
  54.5060039  18.0997441  26.4477405  77.3440504  67.5954485   7.1918255
  76.4967442  67.2110987   7.4167329  77.9151630  67.3609495   7.9233116
  75.2072553  28.3823273  59.5391986  76.0076145  28.6853716  59.1104517
  74.8927883  27.6695321  58.9830837  34.0412426  50.9537888   2.4924260
  33.6453509  51.8107414   2.6509666  33.4943700  50.3423548   2.9856932
  22.1864343  74.2489433   1.4909464  21.8458652  74.2419434   0.5964094
  21.6857719  73.5699177   1.9431619  21.6707492  37.8011012   1.0788129
  22.5131106  37.8813076   0.6313449  21.8536806  37.2445202   1.8357703
  62.5154099  17.0892089  12.9028797  62.7494201  16.2131636  12.5962770
  62.6166210  17.0451777  13.8536942   7.0890537  31.9298289  42.1624980
   7.1659913  31.8510840  43.1133470   6.2642899  31.4920733  41.9518695
   0.6288829  34.1735480  60.4520849  -0.2064762  34.5188401  60.1371524
   0.3854313  33.4880946  61.0742739   5.7078797  61.7132759  16.3903797
   5.2056903  62.5271797  16.3503897   6.2087375  61.7005587  15.5747747
  37.4937224  42.7473164  18.5228717  37.2391105  43.3259964  19.2415750
  37.6188159  43.3332777  17.7763939  11.2557617  50.1006243  44.9061260
  11.7387190  50.4762957  45.6422314  11.7475644  49.3129084  44.6740255
  22.7390790  60.8028555   8.6972749  23.3757997  60.6910753   7.9913551
  21.8963885  60.8795500   8.2498133  39.9557638  68.6468744  32.9948163
  40.3496552  68.4667063  33.8484073  39.0127254  68.5951710  33.1504846
  34.2200780  80.0635529   4.6326369  33.6517859  80.7164192   4.2239234
  34.5120430  80.4755974   5.4457867  83.8478629  34.7742436  32.3076710
  83.4720723  34.7967217  33.1877336  84.7076217  34.3700526  32.4246082
  58.7871695  73.0939817   3.0822045  58.8569641  72.1437740   3.1741920
  58.1131029  73.2211161   2.4145921  56.0607767  73.2098341  63.9556789
  56.9101715  73.1592131  64.3940878  55.9405947  72.3440123  63.5656214
  58.5313129  43.4168196  13.0616224  58.7086868  44.2068052  12.5510418
  58.2382727  43.7424660  13.9126897  81.3638553  18.9084761   6.4141953
  80.6593046  18.2652514   6.4923155  81.7342577  18.9661544   7.2949386
   3.4919479  54.6407413   6.7924243   3.2747647  54.8441029   7.7022076
   4.4128469  54.3809223   6.8183428  35.9142375  74.2135429   2.8297460
  35.7322216  73.2782078   2.7388984  36.3869143  74.2861319   3.6589259
  84.3267690  18.2911742  20.6219196  84.8517974  18.9815319  21.0268664
  84.2622947  18.5477233  19.7019970  53.4838343  77.3639154  13.9179599
  52.7280331  77.9445791  14.0064144  53.1050539  76.5035152  13.7377763
  39.2962313  74.6486092  14.1717517  40.0787544  75.1465178  14.4083297
  38.6869335  75.3056574  13.8351905  28.5916701  16.1324523  56.5829048
  29.2193547  16.6863987  56.1188099  28.2462922  15.5460236  55.9098146
  35.7502055  51.3894844  20.6177711  36.0595226  52.0505095  19.9984157
  35.7947445  51.8211937  21.4709282  60.6908662  77.9699926  36.3800320
  59.9729068  77.5737409  35.8863196  61.0534722  78.6290722  35.7881174
  25.4855323  71.7508507   3.9952964  25.2824283  71.0962248   3.3271280
  24.6542811  71.8986273   4.4463110  46.2718487  67.0706606   7.5752318
  47.2094440  66.9782972   7.4060738  46.1578035  67.9956722   7.7933592
  19.6920168  55.7378387   0.4263439  18.9944935  55.6816483  -0.2267534
  19.8077381  56.6766310   0.5730163  84.6699611   9.1533682  58.6882994
  84.1748587   8.3343432  58.7057183  85.2633587   9.0587304  57.9432127
  10.0583065  50.9713697  19.5035803   9.7784072  50.0611591  19.6005547
   9.6044201  51.4376163  20.2056026  61.0093689  58.8401413  15.1872027
  61.6426420  58.1249809  15.1260185  60.9847307  59.0592051  16.1186731
  38.8203502  64.7439098  10.9392953  39.6838689  64.8829699  11.3281775
  38.5664535  65.6044674  10.6058156   7.1727791  16.2365696  54.0727565
   7.9257574  15.8334181  54.5048771   6.4437285  15.6456635  54.2613003
  22.3300305  21.4425204  55.1359556  23.1563321  21.6606066  55.5671117
  22.2896376  22.0324490  54.3832395   3.8052407  44.3905449   3.8891801
   2.8791749  44.5664692   4.0555686   3.9301074  43.4828091   4.1660404
   2.8790322  42.0108531  55.9235403   2.5293770  41.5043280  56.6566155
   3.6551919  42.4432013  56.2797472   4.0859118  39.0025923  63.8620678
   3.1772700  39.0205643  63.5615984   4.3755498  38.1055901  63.6955396
  46.1969090  47.2827148   9.0636969  45.3545666  47.0768881   9.4690710
  46.7183399  46.4882183   9.1782343  26.5679598  33.9127541  21.3822031
  27.3144984  33.5374475  21.8491721  25.9678912  33.1771803  21.2593889
  13.6718857  72.8137779  28.5028625  12.9669738  73.4272003  28.2953906
  14.4178700  73.3717203  28.7229514  36.6326418   3.3130095  69.5734688
  36.8435564   3.1146023  68.6611183  36.2269345   4.1794226  69.5425498
  34.9737752  80.2170520  56.5397498  34.9695814  80.3221493  57.4911532
  34.0789515  80.4260854  56.2717423  27.3535323  59.5464230  17.1738946
  26.7760324  60.0197363  16.5749776  26.7604637  59.1284513  17.7982318
   7.6830572  74.4019508  24.9497223   8.3851385  74.8526764  24.4805074
   7.7115738  73.5042667  24.6186876  85.2241628  20.2808738   3.3390081
  85.5618362  19.7116077   2.6475284  84.4990222  19.7876084   3.7225333
  20.2009368  71.8087387   5.5018926  19.6196365  72.5453949   5.6907368
  19.7631907  71.0521078   5.8919191  28.1934786  70.5877495   9.3270177
  27.8188586  70.7021952   8.4536362  28.4801555  69.6747017   9.3469077
  12.3935759  79.7658682   5.6480497  11.6239691  80.3228664   5.7650626
  12.3374617  79.4674349   4.7402939  64.0384865  28.3787107   4.6763334
  63.5748720  28.8995886   5.3320605  63.4043074  27.7147722   4.4057202
  29.1180444  69.0326405   5.5498672  28.7356496  69.0223551   6.4273071
  28.7862301  69.8382235   5.1534212  47.4426365  67.6635075  16.2966239
  48.3939362  67.7511644  16.3564956  47.1510315  68.4841061  15.8993614
  83.9009363  79.0401940  65.0099612  84.5581753  78.3453135  65.0474930
  84.3551809  79.7777586  64.6026591   5.8593911  64.7692108  26.5336204
   6.4324862  64.0915012  26.1751485   5.1428336  64.2847204  26.9435549
  20.1563445  26.6306565  56.8434403  20.4416981  26.2819121  57.6879427
  19.2263832  26.8219254  56.9651816  58.5522747  68.6174154  23.3041358
  58.4226322  68.5466623  22.3584008  58.6307621  67.7116489  23.6035585
  33.7937355  77.1711302  12.7992749  33.9232683  76.6660213  11.9965804
  34.3145418  76.7117262  13.4580183  83.9775793   4.8358128  67.5729558
  83.2641713   4.1997263  67.6246468  84.4556514   4.7268603  68.3950314
  84.1125449  49.9634218  29.2605042  83.9638638  50.5464840  28.5160828
  84.3753488  50.5464983  29.9726748  38.1932831  11.1908603  17.6539791
  39.1473508  11.1535084  17.7217364  38.0175042  12.0148683  17.1997261
  33.4902811  76.2827587  30.7703781  33.7824154  77.0878887  30.3429961
  32.5427651  76.3876247  30.8566999  16.7349780  58.6888790  22.3463035
  17.1191740  58.7566042  23.2203960  17.4764299  58.7934208  21.7500234
  14.8758784  12.8547833  57.8801975  14.5105257  13.2888148  58.6511514
  14.3501273  12.0611355  57.7804813  13.4225884  19.5694420  31.8254838
  13.4431591  18.6286185  32.0005832  13.5270157  19.6387932  30.8765278
  32.0292321  23.6819384  53.9452562  32.6291504  23.5372660  53.2135460
  31.1771145  23.3954022  53.6165926  35.9492326  68.4407520  26.6030455
  36.4526558  68.5092497  25.7918072  36.5343618  68.7850237  27.2778273
  13.3684289  77.6033020   7.7377290  13.4804821  77.9339266   6.8464583
  14.2573094  77.4077129   8.0341548  64.6417026  22.0388196  69.5553564
  65.4430012  22.4571917  69.8701805  64.9141959  21.5562031  68.7749308
   3.3886427  67.4406528  25.1428199   2.4576724  67.2618198  25.0103641
   3.8319218  66.8980360  24.4906664  16.8718207  62.6528311  25.4809260
  16.8738747  63.6073542  25.5524278  16.0392714  62.4462605  25.0561666
   4.9497223  21.9100237   0.4654952   5.7138765  22.1974921  -0.0341674
   4.2500669  22.5054789   0.1968939  35.2299500  33.7007475  17.5625074
  36.0094786  33.5587621  17.0254683  35.2651525  34.6285653  17.7951980
  17.2194615  18.3868001  47.8426013  17.1565857  17.4862597  47.5243101
  16.3500681  18.5776398  48.1946907  36.0574201   9.2308848  13.9477074
  35.9396675  10.1337951  13.6525464  35.5812797   8.7048381  13.3052099
  83.2719008  34.9349282  48.8925872  84.0991560  35.1627419  48.4683451
  82.7955762  34.4303534  48.2332310  64.7833786  65.6505702  67.7337122
  65.1227889  66.4045069  67.2514144  65.3205464  65.6108401  68.5249797
  84.5846478  42.7215884  53.7368545  84.4679920  41.8898032  54.1959343
  85.5336658  42.8283808  53.6721012  39.2690039  42.1061897  21.4274478
  38.9029598  42.6299286  20.7147479  39.7766328  42.7298260  21.9466996
   4.8351476  41.8076897   4.7308624   5.3212792  41.5201521   3.9580551
   4.2124468  41.1004257   4.8989630  25.3295174  17.3330662  50.7164368
  25.9240141  16.7675421  51.2093756  24.5432272  17.3854992  51.2597856
  18.1533184   7.6875947  50.9757504  17.7849999   6.8338511  51.2031135
  18.4221211   8.0634139  51.8140456  19.2017615  66.9499207  35.8366346
  18.6902416  66.4142418  36.4429569  18.6198151  67.6746464  35.6078529
  60.6321702  22.1563695  50.0344488  60.6752560  21.7201493  50.8853838
  59.8851643  22.7504180  50.1073811  74.4915355  70.5478621   4.5095631
  74.7637380  71.3649273   4.0917790  75.3076101  70.1513815   4.8146129
  57.2404463  78.5265641  59.6317658  56.7420465  79.0737443  60.2387432
  56.5980107  78.2448463  58.9805040  35.1268888  76.2214518  46.3966942
  35.3328705  75.3304148  46.6792727  35.3129697  76.7646456  47.1625566
  56.2364912  31.6395950  24.3385863  56.1669922  30.9980655  25.0455832
  55.3594446  31.6708112  23.9564252  44.8406219  79.1353035   6.7395443
  44.7478294  78.3585024   6.1879975  44.9214029  79.8605871   6.1201316
  37.7534363   6.0373824   5.7942700  38.2886872   5.3875773   6.2497747
  38.3323470   6.7921584   5.6874323  37.6812887  79.1531992  36.0974407
  38.1419086  78.5841274  36.7140651  36.7544150  78.9636850  36.2431192
  68.4992838  77.3624039  10.1146519  67.5462341  77.4502420  10.0999033
  68.8057899  77.9640627   9.4362038  57.5779936  37.8491757  66.7797083
  57.3454500  38.5033724  67.4386360  58.5317389  37.9008839  66.7170334
   8.4903964   3.0479091  12.9334152   7.7585133   2.4371474  13.0202973
   8.1443032   3.7618296  12.3979020   8.8267001  10.6593650  25.7851791
   9.3809374  10.4794448  25.0257874   8.5898121   9.7941726  26.1191797
   8.4872371  57.8347349  24.3237472   8.8876706  57.9832506  23.4671092
   9.0938240  57.2460270  24.7728610  35.1971712  20.7245276  59.3977997
  35.1637831  21.5368245  58.8925359  36.0469714  20.7507536  59.8375520
  23.6914325   3.6153188  54.4306192  23.0351591   3.9132467  53.8007185
  24.1118455   4.4189420  54.7366676  26.9888546  17.6320212  13.9264941
  26.1208439  17.9035609  13.6280739  27.2777406  18.3416884  14.5002091
  30.3978243  24.9191496  59.0515063  29.5670929  25.2004406  58.6681077
  30.6978360  24.2118905  58.4805355  73.1492862   0.8813422   8.5578346
  73.6007032   0.7345813   9.3890500  73.6423740   0.3621619   7.9225725
  31.8499556  17.0406983  59.1847322  31.8639603  17.7673647  58.5618446
  32.6153746  17.1869252  59.7405944  20.9195662  48.9860201  13.5625768
  21.2431526  49.8302746  13.2483208  19.9664402  49.0711212  13.5393214
  56.3058457  28.5378974   4.3896276  55.6475172  28.8793319   4.9948204
  55.9265813  27.7243274   4.0572339  67.5010762  11.5885489  31.8732285
  67.8878770  10.7321112  31.6912413  66.8446765  11.4163440  32.5482941
  45.1948929  69.7890234   6.0166568  44.7102547  70.1530886   5.2758360
  45.8469248  69.2135477   5.6167650  46.9069156   3.8104766  17.3846686
  46.4206025   2.9930823  17.2769654  47.3054287   3.9666694  16.5285003
  78.9145882   7.7594056  67.3899611  79.4284726   7.2742334  66.7443887
  78.2527352   7.1351400  67.6874052  19.6133891  65.4707453  57.3404381
  19.6476689  64.5868037  56.9747863  18.9374867  65.9154723  56.8289659
  25.8310723  49.7527885   3.6591846  25.2271056  50.3551006   3.2248205
  26.0609269  50.1928282   4.4775742  54.7221503   1.4401191  14.2251062
  55.2524194   2.1104949  14.6559560  55.3412375   0.9642642  13.6714602
  67.9776859  40.7202101  14.6127677  68.4968042  40.9028435  15.3959596
  67.5434017  39.8884201  14.8018646  47.8525066  55.0520945  27.6885486
  48.3449936  55.0147104  26.8686175  48.3476973  54.4969463  28.2909036
  58.5380602  75.6294298   4.2936075  58.6588144  74.7635603   3.9038318
  57.5901031  75.7621193   4.2933577   2.9707011  23.7572997   1.7413101
   2.2867354  24.0129988   2.3602144   2.5346478  23.1562178   1.1373264
  35.5788302  60.6204414  26.5566468  35.3611970  60.8458710  25.6521869
  34.7331333  60.5776978  27.0029664  79.9072886  67.6252508  21.9877958
  80.2629185  66.7478180  21.8468308  79.0541458  67.6104450  21.5540242
  65.7113585  15.9301226   9.5865130  65.2268419  16.5369361  10.1462030
  65.0772032  15.2470916   9.3684417  49.9726185  16.4174407   0.4866986
  50.2131590  17.2552340   0.0911415  50.6912670  16.2212508   1.0877680
  53.6329326  45.6703227   6.7059916  54.0896878  44.8520606   6.9010466
  53.1755790  45.4989665   5.8827680  15.7535398  35.2407765  24.5216751
  16.3205254  35.3987932  23.7668300  15.0947416  34.6245456  24.2015529
  75.0317583  37.5256865  39.1851687  74.3117437  36.8975966  39.1276240
  74.6873340  38.3224910  38.7817931  73.5032789   6.9091580  61.4201215
  73.4257523   7.5274489  62.1467159  73.0418078   6.1265061  61.7213449
  58.7676259   6.9261763  53.9998350  59.0966208   6.3173554  54.6611450
  58.1065887   7.4442790  54.4589994  23.9127341   0.2822182  36.6692672
  24.7718802  -0.0205448  36.9632754  23.9731970   1.2371275  36.6961512
  79.7746665  46.9487953  38.4053206  79.4693948  46.0978603  38.7198949
  79.4809664  47.5699520  39.0717554   4.5710233  26.9505739  31.6830969
   4.2127463  27.2686696  32.5117636   3.8924214  27.1475959  31.0374093
  43.7698507  44.1069698  13.9000499  44.6369648  44.3908978  13.6107016
  43.5821819  43.3323908  13.3699143  64.9666864  68.0536871  65.8628786
  64.5076448  68.8242082  65.5284980  65.6447417  67.8770952  65.2107391
  62.7507327  35.6131384  25.9167299  63.2571874  34.8010943  25.8987293
  63.4094337  36.3069651  25.8859548  67.2705130  26.2806389  52.8935990
  67.2042338  26.5214465  51.9695577  67.1681909  25.3289530  52.9010341
   9.4709146  78.5796022  32.4498916   8.8115132  77.8881073  32.3928595
   8.9680964  79.3934059  32.4162173  71.6526739  19.7494290  68.6671527
  70.7412199  19.5894501  68.4224283  71.7178742  19.4328091  69.5681140
  13.2796755  12.7089331  55.0841055  13.1274739  13.6322567  55.2854452
  12.8438130  12.2344229  55.7919869  11.8526116  27.1459315  47.7210483
  11.3185325  26.7214510  48.3924732  11.9051924  28.0602381  47.9994521
  43.5167262   5.8365386  12.3857844  43.1776139   5.0055735  12.7185261
  44.4681785   5.7430976  12.4330878  38.6603975  65.6473637   2.6654014
  38.7701869  66.5917253   2.7765712  38.8296342  65.4943562   1.7357892
   3.9483004  52.7585594  62.4050686   4.6962815  52.6355498  62.9895589
   4.1943675  52.3003463  61.6014997  82.3137103  27.1069002   5.3240430
  81.7063604  26.9182754   4.6086568  81.7749209  27.5358343   5.9888399
   3.1716457  11.2299511  56.0858545   3.1972781  10.2738688  56.1243651
   2.9142490  11.4983676  56.9678590  27.2450867  37.4945710  30.8578954
  28.1409779  37.1668885  30.9369073  27.2424736  38.3085177  31.3615975
  47.5544739  44.7125769   9.2233747  46.9795132  44.0432215   9.5943427
  47.8434277  44.3441772   8.3884990  31.8691039  59.0411186   6.9914281
  32.2287035  58.6252546   7.7749944  31.8375397  58.3395720   6.3409925
  79.7780911  45.2409289  57.3322544  79.5658628  45.7766554  58.0965731
  80.7342521  45.1964495  57.3289726  83.4952895  30.6784461  47.1564803
  83.3427063  30.1692460  47.9525122  83.9849106  30.0875447  46.5843448
  46.4006567  46.3120985  29.0447283  45.7671690  46.2535286  29.7599173
  46.2716198  47.1883059  28.6816287  52.1449882  55.6817202  66.5062291
  51.6585905  56.4965396  66.3808552  51.8960554  55.3865247  67.3820857
  37.7226520  69.6370983  19.8770463  38.0123615  69.1567469  20.6526542
  37.5390172  70.5203295  20.1970553  38.5473830  58.5778801  45.5539474
  38.6205286  59.4022159  45.0729570  37.7410013  58.1799142  45.2259168
  51.4513001   6.7751258   9.0187633  52.1002564   6.4150565   9.6232760
  50.8661303   6.0413497   8.8306433  84.6425287   1.4855073  21.3216600
  84.8077265   2.4266503  21.3781318  84.0672366   1.3884184  20.5628166
  81.5550548  74.3707113  20.7002792  82.3177463  74.2640977  20.1318035
  80.8043844  74.2831259  20.1128635  15.0065508  29.2041371  66.0597429
  14.1646185  29.5371411  65.7491085  15.0907174  29.5553753  66.9461862
  65.7991552  39.7846723   0.5670892  66.4396095  39.1214991   0.3096950
  64.9710608  39.3081045   0.6251739  51.7123365  39.9981213   6.3664699
  52.4097538  39.4157887   6.6676813  51.4313602  39.6234918   5.5316430
  27.0843792  61.5908098   6.3710827  28.0353904  61.6735458   6.4415503
  26.9151235  61.5675068   5.4292542  47.5212116  67.6013784  52.1268306
  46.5816814  67.4194722  52.1062240  47.6437551  68.3014064  51.4855990
  39.2794561  27.3306060  13.0486250  39.8167801  27.5953150  13.7952459
  38.6827159  28.0661225  12.9102457  15.1243794  54.8332930  19.3096757
  14.5206749  54.4746637  18.6591697  15.8359265  55.2116442  18.7931669
  59.7835445  48.8995028   6.9074136  59.3182755  48.5154533   7.6505548
  59.0968895  49.0940046   6.2695223  65.0560808  42.0672369  29.5627308
  64.6916819  41.2135458  29.3289471  65.4399204  41.9345856  30.4295063
  34.3211627  57.9196548  16.8164468  35.2459335  57.7877617  16.6075528
  33.9027619  58.0675316  15.9683287  44.1827536  54.8760462   5.0635982
  45.0016737  54.5179892   4.7209609  44.1683578  55.7811499   4.7524565
  69.5991890  18.7894652  62.6526091  70.2986077  19.1331313  62.0967886
  69.1400961  18.1590531  62.0975897  82.4905793  27.7325509  59.9860147
  82.3716108  26.8064663  59.7751913  83.3083216  27.7619956  60.4826650
  79.1892919   9.5311206  21.7158747  80.0898323   9.2655604  21.5294838
  78.6509285   8.9307063  21.2002206  51.4455325  52.0467047  69.4884580
  50.8020336  51.4340358  69.8445169  52.2912294  51.6921394  69.7628869
  59.4911987  79.6755533  64.1213850  59.3775303  80.6242161  64.0635309
  60.3188188  79.5056157  63.6714968   9.1689053  20.1303456  51.7733726
   9.5027819  20.7626841  52.4096939   9.5338073  19.2915080  52.0552060
  24.0822640  41.6165946  48.2399950  24.8193922  41.3311026  47.7002058
  23.3109322  41.2579367  47.8010902   2.6944938  25.3684828  67.1647829
   2.0499387  25.1690362  67.8437543   3.5369316  25.3393528  67.6183026
  10.1549155  77.9338436  52.2315011   9.2688770  77.9090981  52.5928280
  10.0301809  77.8550653  51.2857387  69.2194287  21.6862700  60.8630106
  70.0782315  21.3454936  61.1131344  69.3858151  22.5953124  60.6136391
   6.4746529  68.5301304  18.0887318   7.0382828  69.2181301  18.4425795
   6.8829459  68.2902479  17.2568750  18.4670627  60.3961515   5.9586287
  18.5755181  59.5311642   6.3539284  17.8806889  60.2485657   5.2165931
  46.0559866  26.4210170   9.5165485  45.6990430  25.5629676   9.7458243
  45.9711120  26.4690726   8.5643309  29.8403933  70.8073263  53.5316703
  30.0764882  71.7328982  53.4699390  30.6182540  70.3855614  53.8967428
  29.4227829  15.9100792  28.3779440  29.4248524  16.6865656  28.9376745
  28.5292378  15.8622143  28.0380640  66.8116173  14.7661536   7.3846376
  67.7122745  14.5647185   7.6385486  66.4888439  15.3384822   8.0806935
  43.1899920  27.9345057  35.8652291  42.2820511  28.2329104  35.9184131
  43.2855740  27.3264048  36.5982446  14.1912782  14.0842938  13.6191928
  13.8967514  13.3058405  13.1464386  14.1968417  14.7775269  12.9591715
  37.7064580  79.3776469  13.0984983  37.9845071  79.7920732  12.2816906
  37.2878999  80.0816540  13.5938940   9.3422642  13.5630581  57.3658774
  10.0416389  13.8662789  57.9448137   8.8826957  12.8952239  57.8748259
  14.9256182  43.3803606   5.4412740  14.1124856  43.1314707   5.0018412
  15.6077850  43.2270527   4.7875327  60.2922828  46.0705511  69.5236733
  60.1213414  46.8926095  69.0640743  60.4830081  45.4420380  68.8273781
  76.7355792  41.0261366  66.7598245  76.3426701  41.3975737  65.9699577
  76.0043041  40.6144640  67.2202492  73.6981670  43.0599234  46.9302711
  73.2169870  43.2310698  46.1206994  74.0165392  42.1623251  46.8344722
  10.2099481   9.3508933  51.3694939  10.2865138   9.5495961  52.3027084
   9.4813600   8.7324688  51.3152799   9.1587668  76.5574555  62.9585955
   9.2411834  77.2027092  63.6607966   8.8490229  77.0609812  62.2057680
  31.7373657  56.4853477   5.1826501  32.5059009  56.1054516   4.7569025
  31.2747955  56.9411373   4.4794297   7.1656337  48.2518313  52.0860097
   7.7606693  48.0693743  51.3587711   6.3102713  48.3677504  51.6723070
  63.9578233  13.4831736  55.1215312  64.7621618  13.0900357  55.4602287
  63.2593671  13.0845854  55.6406865  79.9978265  14.9142878   0.5759296
  79.8093090  15.1891272  -0.3213731  80.2261362  13.9878409   0.4996912
  62.8603458  62.5130653   5.3752333  62.8565359  62.8334284   6.2772226
  62.5927210  63.2683706   4.8516664   2.8927386  58.5214376   8.4489965
   2.2836332  57.8233719   8.2083249   2.6080608  59.2760086   7.9334277
  85.4536439  85.4536439  85.4536439 109.4712190 109.4712190 109.4712190
