
52399  0.0000000e+00
  37.6439667  63.4307766  65.5938101  37.7067566  62.7618217  64.8397160
  38.5033965  63.9416027  65.7371187  36.9019032  64.0894604  65.4051971
  37.3409486  62.7298164  66.8012905  37.2269034  63.4508419  67.6107502
  36.0209584  62.0050907  66.6201925  35.9135008  61.3811541  67.5074673
  34.8596644  62.8963900  66.4837885  34.0034628  62.2587585  66.7039108
  34.7933316  63.6466169  67.2717381  34.7251582  63.4189987  65.5367470
  36.0562301  61.1333799  65.5452394  35.2958298  60.5476522  65.5630064
  38.4266829  61.7648077  67.1252251  38.9082623  61.1701965  66.1240721
  38.6186790  61.4126348  68.4161568  38.2032371  61.9286633  69.1785383
  39.6311045  60.4378414  68.8230562  40.6314135  60.5963612  68.4201145
  39.6442294  60.4932642  70.3984165  39.9592757  61.4730167  70.7574844
  38.6582470  60.3378248  70.8363438  40.5508804  59.4802999  71.1131668
  41.6206694  59.1947603  70.6394291  40.0521040  58.8486052  72.1404982
  40.7060146  58.2850695  72.6648331  39.1797543  59.1540241  72.5477171
  39.3672562  58.9828062  68.3559799  40.2491665  58.2896519  67.9188299
  38.1605649  58.5308886  68.3602667  37.4127173  59.1153431  68.7055779
  37.8257084  57.2957325  67.6503897  38.4338880  56.5075397  68.0942059
  36.3508177  56.9754934  67.7859592  35.8336377  57.9348230  67.7681971
  36.1046076  56.3046837  66.9628572  36.0912132  56.2512255  69.0806675
  36.7206097  55.3755522  69.2392874  36.2141180  56.9195414  69.9329281
  34.6039414  55.9200954  69.1277599  33.7195277  56.5275812  68.5384130
  34.3160987  54.9342823  69.9806213  33.3700061  54.9670362  70.3326654
  35.0132704  54.5277405  70.5878925  38.1745338  57.2738457  66.1465025
  38.6993694  56.2254429  65.7648039  37.9229569  58.3218765  65.3157663
  37.4527669  59.1483927  65.6561947  38.4206796  58.3268118  63.8878584
  38.1745911  57.3266602  63.5311413  37.6641679  59.4119978  63.0437660
  37.4679708  60.3058052  63.6359739  38.2783127  59.7380304  62.2043419
  36.2942386  58.8619661  62.5890541  36.0127950  58.2689810  63.4592628
  35.3209424  59.9328423  62.2690868  35.0662851  60.5585098  63.1245375
  35.7482314  60.6104279  61.5298939  34.3857145  59.4927597  61.9229984
  36.3164568  57.7780962  61.5325499  36.9173312  58.0054808  60.6520081
  36.7052197  56.8445826  61.9393873  35.3471327  57.5867891  61.0722065
  39.9594879  58.4440994  63.7688828  40.4758501  57.6573658  62.9887915
  40.6246471  59.2319107  64.5842981  40.0495243  59.6912098  65.2759409
  42.1257162  59.1299868  64.6887207  42.4968863  59.3352556  63.6846304
  42.7691078  60.1015806  65.6599951  42.2659349  59.9499941  66.6149473
  43.7870216  59.7355556  65.7940626  42.6551294  61.5639067  65.1032066
  43.2817793  61.6476297  64.2152882  41.5954685  61.7353010  64.9138832
  43.0772877  62.6053858  66.1476851  43.8051796  62.2768307  67.1384239
  42.6217461  63.8021708  66.0793114  42.9281378  64.3679094  66.8578768
  41.9574165  63.9129782  65.3266573  42.6069212  57.7663803  65.0605583
  43.5723591  57.3217535  64.4848490  41.9746256  57.0719290  66.0043812
  41.2992620  57.6051331  66.5332270  42.2276449  55.6465864  66.4108133
  43.2801056  55.5104876  66.6596127  41.4276505  55.2397203  67.6768303
  41.5479612  55.8990574  68.5364246  40.4197693  55.5097580  67.3616219
  41.7898417  53.7807894  68.1429005  42.6862144  53.7033129  69.2405033
  43.1173801  54.6126556  69.6324110  43.0148029  52.4279881  69.7351742
  43.7091541  52.3036051  70.5529785  42.4474049  51.2371922  69.1993237
  42.8604507  49.9743032  69.5471811  43.7830162  49.8764181  69.7939396
  41.5187263  51.3653898  68.1177282  41.1531115  50.4713249  67.6346254
  41.1552095  52.6267672  67.6157904  40.4787016  52.6599550  66.7745733
  41.9791031  54.6444178  65.2785778  42.8678989  53.8673592  64.9265099
  40.8218527  54.7282171  64.6140480  40.0910044  55.2695847  65.0532436
  40.5084276  53.9763594  63.3508539  40.4562998  52.9042292  63.5403872
  39.0810847  54.3970013  62.9124546  38.3580351  54.2844296  63.7203074
  39.0045881  55.4486513  62.6362610  38.5503745  53.6544371  61.6718578
  37.5762224  54.1124630  61.5005684  39.1481948  53.9621258  60.8139277
  38.1042075  51.8718100  61.8816662  37.0093703  51.7497301  63.4170294
  36.1707020  52.4044275  63.1801796  36.5795517  50.7502270  63.4829807
  37.5350404  51.8748236  64.3636608  41.6007185  54.2248154  62.2460604
  42.1601963  53.3173704  61.5701628  42.1456575  55.4845190  62.1649885
  41.7608595  56.3270140  62.5677633  43.2146645  55.8320236  61.1701059
  42.8758860  55.3758955  60.2399015  43.1620264  57.3310709  61.0142136
  42.2818279  57.3963737  60.3746223  42.9743719  57.8244877  61.9678545
  44.3675900  57.9973364  60.3492069  45.2323818  57.7755690  60.9745502
  44.5933676  57.6285744  59.3486357  44.2020321  59.5318508  60.3027725
  43.3967209  60.0769711  60.9692430  44.9040461  60.1658154  59.4300890
  44.7664356  61.1601734  59.3186522  45.5549765  59.7554159  58.7758970
  44.6746302  55.3307581  61.5546322  45.3925037  54.7506142  60.7077599
  45.0831127  55.4918432  62.8314829  44.3768358  55.8586121  63.4533882
  46.3826227  55.2875137  63.4503984  47.1024275  55.1292944  62.6473141
  46.7940569  56.5192986  64.2236853  45.9659529  56.7335606  64.8992872
  47.7203751  56.4468622  64.7935867  47.0023251  57.7448368  63.3973837
  47.5653219  57.6651621  62.2951651  46.5348959  58.9005184  63.7479019
  46.7763567  59.7018528  63.1825161  46.3313007  59.0994358  64.7169638
  46.5308952  53.9580345  64.3062925  47.6444101  53.7175798  64.7568560
  45.5053902  53.1003141  64.3109083  44.6096373  53.4922695  64.0577221
  45.5847931  51.6898346  64.8237419  46.6452169  51.4388704  64.8486137
  45.0904417  51.4237785  66.2395048  44.0344667  51.6911268  66.2787199
  45.2373505  49.9645281  66.7133760  44.7411680  49.2396450  66.0680437
  46.3007689  49.7321510  66.6564369  44.9752951  49.8506308  67.7652597
  45.6702375  52.4046803  67.2924042  46.7588472  52.4250984  67.3435450
  45.4126930  53.4349060  67.0466185  45.2134895  52.2466850  68.2693958
  44.9354458  50.6578922  63.8584328  45.5817080  49.7503042  63.2756233
  43.6039877  50.7671547  63.7011099  43.2232571  51.5874577  64.1508389
  42.7870178  49.7088480  63.0741882  42.9249811  48.8353539  63.7114286
  41.2862873  49.9306726  63.0891323  41.0344172  50.8123207  62.4997616
  40.4216576  48.7641668  62.5443649  39.4008088  49.1431808  62.4961948
  40.7364130  48.5263777  61.5282488  40.3959370  47.9189968  63.2322073
  40.8013058  50.2120018  64.5575237  40.8379793  49.3041849  65.1597023
  41.3390160  50.9973001  65.0888157  39.7674990  50.5201530  64.4013309
  43.3261108  49.3704510  61.6772938  43.7037563  48.2329798  61.3487864
  43.2189655  50.3972816  60.8389711  42.6607609  51.2028599  61.0829973
  43.3773708  50.2590752  59.3922281  42.8762913  49.3394947  59.0899038
  42.9089260  51.4600229  58.5528135  41.9374752  51.6999102  58.9850712
  43.7501621  52.7398968  58.6510134  43.9899683  52.9486704  59.6936083
  44.6633863  52.7792883  58.0572367  43.2075977  53.6242437  58.3168602
  42.6930380  51.1511993  57.0483875  43.6596346  50.9506702  56.5862226
  42.0843697  50.2497673  56.9773340  42.1113825  51.9337654  56.5611839
  44.8511839  49.9329710  58.9619255  45.0712061  49.0792847  58.0690765
  45.8434963  50.4597473  59.7238731  45.5575514  51.0285044  60.5080032
  47.2970390  50.1377010  59.6413088  47.6665974  50.2447891  58.6214781
  48.0512953  51.2117815  60.4371881  47.7023458  51.3192940  61.4642096
  49.0784359  50.8515358  60.4947138  48.0460453  52.6088428  59.7633171
  48.5642481  52.6397705  58.8048744  47.0202351  52.9067945  59.5464325
  48.6479855  53.7292576  60.7269907  48.1355333  53.8148451  61.6851997
  49.6922207  53.4730673  60.9060240  48.7911224  55.0030136  59.9410772
  49.2455912  54.7461414  58.9842224  47.7634144  55.2521753  59.6767998
  49.3892813  56.1698437  60.5599833  50.3409529  55.9649658  60.8291435
  49.3855190  56.9075489  59.8701429  48.8685608  56.6094065  61.3054514
  47.5936174  48.7270927  60.0448036  48.2424021  48.0257750  59.3304396
  47.0829201  48.2207155  61.1940527  46.5321493  48.8155270  61.7965031
  47.2958517  46.7683077  61.5927076  48.3255339  46.6032219  61.9098949
  46.4790630  46.3302898  62.7705336  45.4139423  46.3655090  62.5416756
  46.8581867  45.0611115  63.4446859  46.1516333  44.7765779  64.2243814
  46.8395662  44.2296124  62.7401495  47.7960348  45.1822138  63.9867878
  46.6487026  47.2729015  63.7959766  46.1919260  48.0471706  63.4591293
  46.8032694  45.8049440  60.4704952  47.4793386  44.8033524  60.1818371
  45.6167316  46.1007929  59.8555899  45.2353764  47.0047283  60.0955296
  45.0173473  45.2469158  58.8621664  45.0103998  44.2182589  59.2226028
  43.5203648  45.6577253  58.7708998  43.4327078  46.6752863  59.1516781
  43.1886864  45.5423212  57.7390242  42.4581242  44.7425747  59.5193243
  42.7068758  43.6992073  59.3254089  42.3560238  45.0161028  61.0655022
  41.7580986  44.2819786  61.6055489  43.3396530  45.1847076  61.5038490
  41.7661953  45.9129238  61.2550449  41.1038208  44.9633026  58.8713121
  40.6858110  45.9590054  59.0194273  41.0516691  44.6042585  57.8434610
  40.4413271  44.2145634  59.3055820  45.8134556  45.3500080  57.5314093
  46.2956905  44.3660879  57.0682240  46.1809778  46.5277958  57.0363569
  45.8453417  47.4028826  57.4127531  46.8906450  46.7580414  55.7790899
  46.2854338  46.5000010  54.9100447  47.0342541  48.3079481  55.6008387
  46.0222292  48.7127686  55.6062651  47.6345015  48.7659550  56.3869953
  47.6596069  48.8224554  54.2748499  48.9246130  49.1401911  54.1898966
  49.6295786  49.0539598  55.0035286  49.1724682  49.5518160  52.9144239
  50.1235390  49.4798422  52.5821781  48.0412912  49.6001673  52.1412373
  47.8737211  49.9896908  50.7673693  48.7003565  50.3897524  50.1990175
  46.5607548  49.7796345  50.2103281  46.3354874  50.0638390  49.1930342
  45.6167793  49.2461443  51.0639191  44.6628857  49.0270805  50.6072950
  45.8469534  48.8238287  52.3928976  45.0060558  48.4714603  52.9717970
  47.1031237  49.0196848  52.9823399  48.2428169  46.0821390  55.8151436
  48.6758375  45.7252693  54.7415733  48.8520145  45.8241749  56.9399118
  48.4652042  46.1873245  57.7993298  50.1166296  45.1952505  57.0700693
  50.8385277  45.3090429  56.2613583  50.7836246  45.7622766  58.3037710
  50.1017952  45.5392790  59.1244316  51.7524719  45.3135061  58.5229635
  51.1139631  47.2796440  58.0057621  51.7286110  47.3330927  57.1071768
  50.2770138  47.9377413  57.7722454  51.9595909  47.7997446  59.1856098
  52.8440714  47.2194290  59.4483423  52.2767305  48.8308239  59.0294075
  51.1346579  47.6683474  60.4554367  50.1915121  48.1554651  60.2078629
  50.8895636  46.6594791  60.7874298  51.7796564  48.3978415  61.5826035
  52.1951675  49.2869997  61.3441563  51.1593962  48.4851551  62.3749113
  52.5908136  47.8149366  61.7321396  49.9349976  43.6968994  57.1587467
  50.8533001  42.9402161  56.8035698  48.8317013  43.1728268  57.7811766
  47.9665422  43.6935139  57.7590704  48.7916470  41.6966248  58.1265640
  49.6387672  41.3716459  58.7306166  47.5136328  41.3685417  58.9924097
  47.4451971  42.1105480  59.7879267  46.5924835  41.3564348  58.4098005
  47.5391626  39.8980331  59.4451618  47.1350098  38.7451172  58.7362528
  47.3732662  37.6765418  59.5019054  47.0970249  36.6626978  59.2524862
  47.8344488  38.0741334  60.7288694  47.9701376  37.4666882  61.5242910
  47.9795504  39.4215775  60.6522512  48.4292316  40.0428486  61.4126492
  48.8209534  40.7608032  56.8689728  48.2243156  41.0573006  55.8573484
  49.4914818  39.5896912  57.0313740  49.8906231  39.5196462  57.9565144
  49.6846437  38.6211014  55.9703827  50.4416895  38.9108157  55.2416515
  50.2802229  37.3458815  56.6837406  51.1920977  37.6355720  57.2059155
  49.6269512  36.9523597  57.4625063  50.4632282  36.1884975  55.7541800
  50.8057356  35.3058863  56.2943554  49.4736767  35.9240532  55.3814077
  51.4613342  36.4661551  54.5989466  50.9785748  36.7647839  53.4861565
  52.8236723  36.3902998  54.8246002  53.4731913  36.6043139  54.0813494
  53.0255842  36.2594700  55.8055258  48.4374189  38.3650970  55.1183939
  48.4757233  38.3102536  53.8544607  47.2178125  38.1640196  55.6797695
  47.1205664  38.2436776  56.6819191  45.9677696  37.7314043  54.9295807
  46.2498474  37.0127058  54.1601610  45.0126982  37.1370077  56.0346270
  44.8947191  37.8695154  56.8331337  43.9987707  37.0202184  55.6519890
  45.3841448  35.7707119  56.5753031  45.9406185  34.8141980  55.6972361
  45.9328318  34.8858309  54.6196413  46.4683819  33.6163902  56.1721754
  47.0859385  32.9283929  55.6138802  46.3262224  33.3420205  57.5012779
  46.7850876  32.4491882  57.8996515  45.6210995  34.2448664  58.4064007
  45.5079699  34.0404701  59.4608307  45.2303171  35.5179954  57.9125977
  44.7925043  36.2781787  58.5425520  45.3004026  38.8806105  54.1286039
  44.3080425  38.5921264  53.4366608  45.7097769  40.1579475  54.2220879
  46.4920092  40.3132868  54.8418331  45.1086664  41.3491392  53.5714626
  44.0204191  41.2938786  53.5435438  45.3975201  42.5834179  54.4957685
  46.3793850  42.9762793  54.2317677  44.6694946  43.3693981  54.2949820
  45.4236603  42.3235798  55.5540180  45.4712486  41.7204952  52.1217203
  44.7760010  42.5492382  51.4915991  46.4012766  40.9769106  51.5251493
  46.9847202  40.4381227  52.1491718  46.7538881  41.1952257  50.1203775
  47.0284462  42.2492695  50.0789213  47.8982925  40.3363419  49.6591520
  48.2107019  40.7100201  48.6840296  48.7840176  40.4201126  50.2888918
  47.7411032  38.8646746  49.3691874  48.1903696  37.9419303  50.2174568
  48.7063694  38.1536222  51.1422968  47.9187822  36.6665339  49.6836662
  48.1985140  35.8281827  50.1725578  47.2601700  36.7955494  48.4626245
  46.8549347  35.8757353  47.5064325  46.9894028  34.8094392  47.6128769
  46.2508440  36.3382578  46.3300562  45.9339857  35.6654024  45.5469418
  45.9908104  37.7194285  46.1390162  45.4506540  38.0466318  45.2629042
  46.4797926  38.6419439  47.0489454  46.2056923  39.6808100  46.9392538
  47.0993567  38.1919885  48.2395840  45.6717825  41.0766935  49.0268660
  45.6778240  41.9160271  48.1526947  44.5928097  40.2604151  49.2424488
  44.4003057  39.2479348  50.2891397  43.7566900  39.6957779  51.0463047
  45.3269434  38.8293982  50.6819105  43.6159372  38.1434965  49.5442581
  43.0275965  37.6299095  50.3046417  44.2458582  37.4910235  48.9396238
  42.7069092  38.9313293  48.5772276  41.7908239  39.1868687  49.1097546
  42.5236082  38.3830047  47.6531935  43.4182787  40.2653074  48.2960844
  43.8636875  40.0623465  47.3221684  42.4908209  41.3985062  48.2740784
  41.5796757  41.4684248  47.4437571  42.6648569  42.3440742  49.2097187
  43.4410334  42.1143961  49.8137856  41.5949631  43.2890797  49.6724272
  40.6901979  43.1715965  49.0760279  41.1627722  42.9008961  51.1003017
  42.0195532  43.1695271  51.7182541  40.3294325  43.5234499  51.4259863
  40.8222866  41.4303541  51.3518238  39.9794006  40.8119917  50.3927803
  39.7015595  41.2706470  49.4553089  39.4254875  39.5130944  50.6202841
  38.9014888  39.0299177  49.8088884  39.7211671  38.8517070  51.8223238
  39.3558741  37.8549719  52.0210266  40.5712461  39.4035697  52.7807331
  40.8884668  38.8646579  53.6612701  41.1284161  40.6856394  52.5145626
  41.8910980  41.0862303  53.1659079  42.0330143  44.7313786  49.5756721
  41.1667442  45.5334568  50.0179625  43.2377243  45.0916290  49.0678883
  43.9469194  44.3725920  49.0792894  43.7141705  46.4368486  49.0833473
  43.5083580  46.8862915  50.0548077  45.2220392  46.4019394  48.8320160
  45.3769350  45.8733606  47.8914261  45.6829309  47.3871517  48.7610483
  46.1185646  45.6792784  49.8466730  45.9347725  45.7243252  51.2305212
  45.0541449  46.2354946  51.5905190  46.8363571  45.2668428  52.1198893
  46.7021751  45.3731108  53.1862402  48.0788803  44.7257614  51.6665459
  48.9848375  44.2913103  52.5835466  48.8509417  44.7740173  53.4024906
  48.3219242  44.6313000  50.2560043  49.2291355  44.1364431  49.9421787
  47.2768593  45.0403738  49.3727255  47.5074339  45.1402521  48.3223629
  42.9635096  47.2607183  48.0520678  42.6897860  48.4483194  48.3052158
  42.5927114  46.6342020  46.9315529  42.8574562  45.6596184  46.9171572
  41.9011545  47.1455002  45.8136415  41.2761354  48.0027580  46.0637569
  42.9582310  47.6600361  44.7871876  43.6897039  46.8649626  44.6425915
  42.5929594  47.8973579  43.7880135  43.5500813  49.0115738  45.2138138
  43.6445189  49.7804403  44.4469833  42.9765940  49.4457722  46.0327721
  44.9781179  48.8686991  45.7916021  45.6125164  47.8162146  45.7360697
  45.6248426  49.9656200  46.0973215  46.5497780  49.8819780  46.4943171
  45.1374340  50.8319330  46.2763023  40.9951973  46.0947418  45.1179266
  41.1870861  44.8428345  45.1616383  39.9424791  46.5553904  44.4034052
  39.5682287  47.9552746  44.2254066  40.4310608  48.5198212  43.8719893
  39.1631794  48.4261370  45.1211309  38.5620141  47.9254770  43.1400299
  39.0153313  48.1081486  42.1657467  37.8436637  48.6929369  43.4282732
  37.8901029  46.4989233  43.0494022  37.4990654  46.3349724  42.0452547
  37.1001220  46.4531469  43.7990284  39.0979099  45.6259155  43.5984707
  38.7314916  44.8420143  44.2612982  39.8376012  44.9180746  42.4084902
  40.9315300  45.3544760  42.0746756  39.2819738  43.8476229  41.8905401
  38.3017492  43.6910295  42.0769215  39.8035908  43.2471180  40.6372976
  40.8917046  43.1834984  40.6294012  39.2270541  41.8293190  40.5302382
  38.1381559  41.8276405  40.4811811  39.6663570  41.0772324  39.2506647
  39.1452765  41.5165949  38.4000540  40.7442808  41.1798000  39.1255283
  39.5402265  39.9945641  39.2460608  39.6988392  40.8871317  41.6307163
  39.4435811  41.2260580  42.6347446  39.3196344  39.8714519  41.5179968
  40.7849932  40.9599018  41.5752935  39.4210744  44.0618324  39.3518758
  38.3140492  44.5707655  39.3208194  40.3557920  44.3738699  38.4897184
  41.3271809  44.3205452  38.7611294  39.9789286  45.1926899  37.3008585
  39.3642449  46.0009384  37.6970816  41.2803364  45.8134365  36.6620874
  41.9910717  45.0095654  36.4703846  40.9203577  46.2564898  35.7335329
  42.0251942  46.8648291  37.5819397  42.8889322  47.5991583  37.0304227
  41.6249466  46.9322348  38.7805986  39.2137170  44.3267012  36.2545490
  39.7915912  43.5871220  35.4289889  37.8786349  44.4780779  36.2074971
  37.4454570  45.1082850  36.8672681  36.9958043  43.4014559  35.8084226
  36.9088817  42.7012157  36.6392088  35.5950499  43.9971733  35.7358980
  35.2945089  44.3166018  36.7337656  35.6552243  44.8542213  35.0651097
  34.8378468  43.2690048  35.4451823  37.3739743  42.7339363  34.4557071
  37.7817154  41.5780067  34.4117093  37.3745728  43.4239435  33.2823086
  36.9694662  44.3490076  33.2979155  37.6774740  42.7195454  31.9632030
  37.2164869  41.7321825  31.9365525  36.9078350  43.4857655  30.9130836
  37.0718765  44.5475435  31.0969830  37.4578929  43.3305931  29.5095396
  36.7910266  43.7259483  28.7433243  38.4443378  43.7673950  29.3538666
  37.6096439  42.2775555  29.2725182  35.3964210  43.1142950  31.0312772
  35.1424336  43.1728315  32.0896554  34.8172665  43.8411570  30.4617596
  34.9812293  41.7250776  30.5458784  33.9120746  41.7694426  30.3384137
  35.4898405  41.4749956  29.6148133  35.1212430  40.9294510  31.2776399
  39.1765189  42.5110960  31.6793776  39.5762014  41.5911865  30.9828019
  40.0456953  43.4590864  32.1032047  39.6471000  44.2623329  32.5679827
  41.5422344  43.3668518  32.1389842  41.9459343  43.4074068  31.1273074
  42.0707417  44.6476793  32.8545523  41.8494225  45.4889822  32.1977997
  41.5460587  44.7856283  33.7999535  43.6266804  44.7967100  33.1590486
  43.9166689  44.0135145  33.8594818  44.1506863  44.6654558  32.2123241
  44.0525818  46.1087418  33.8339543  44.0250874  45.9235430  34.9077535
  45.1031828  46.2107038  33.5620236  43.2411623  47.3800898  33.5266995
  43.4473896  47.6835251  32.5002980  42.1957350  47.1132183  33.6814976
  43.4898663  48.4639740  34.4907451  44.4786119  48.6693096  34.4727898
  42.8939390  49.2487144  34.2690492  43.2839918  48.3351326  35.4711103
  42.1193409  42.0742750  32.7402854  43.0179882  41.3787127  32.2333574
  41.5201044  41.7076492  33.8749337  40.7365608  42.2835445  34.1478968
  41.7866802  40.4017925  34.4865847  42.5849867  39.8660994  33.9729261
  42.1968746  40.6914091  35.9429383  41.2552691  41.0189247  36.3836432
  42.5040197  39.7273231  36.3482714  43.2618046  41.8016863  36.1194944
  42.9130363  42.6927614  35.5975366  43.4742212  42.1983814  37.6252341
  42.5405693  42.6329136  37.9824114  43.7498474  41.2445211  38.0749869
  44.1645575  43.0202198  37.8152943  44.5874596  41.4788389  35.5263877
  45.0833225  40.6934261  36.0967779  44.5563650  41.1078548  34.5019341
  45.1874113  42.3855305  35.4485321  40.6036615  39.3811083  34.4740462
  40.7457781  38.2905459  35.1400638  39.6485567  39.5607567  33.5471201
  39.7330904  40.4817390  33.1412315  38.7535524  38.5941625  32.9804111
  38.1405711  39.1110611  32.2420526  39.4014406  37.5548387  32.0663023
  40.2003384  36.9894528  32.5460935  38.6666155  36.7745805  31.8679857
  39.9351120  38.1148148  30.7206869  39.2861438  38.2989573  29.7136116
  41.2118864  38.3691454  30.6603050  41.5898657  38.8205743  29.8396659
  41.7853451  38.2068610  31.4757299  37.5789881  38.0587339  33.8545728
  37.3512077  36.8563938  33.9049840  36.8775558  38.9427757  34.5278192
  37.1196628  39.9158835  34.4072151  35.6230402  38.7293696  35.2404141
  35.3150058  37.6842952  35.2725911  35.7371712  39.2577291  36.7869997
  35.8855700  40.3375483  36.7783856  34.7954488  39.1141462  37.3167586
  36.9272470  38.7348676  37.6235104  37.8357863  39.1711521  37.2083926
  36.6950989  38.9636970  39.0964460  36.6936469  40.0440264  39.2413354
  35.7297850  38.5156488  39.3320918  37.5051880  38.5662842  39.7079325
  37.0318484  37.2032714  37.5352859  37.6568413  36.7788839  38.3210206
  36.0522079  36.7551231  37.7013421  37.4953580  36.8816781  36.6026330
  34.5180440  39.6500874  34.5787930  34.4501686  40.8996630  34.6978211
  33.6165285  39.0524292  33.8253117  33.7370181  37.6987243  33.3349967
  33.4723759  37.0377874  34.1603637  34.7084427  37.5231671  32.8728151
  32.7395630  37.5429010  32.2190785  31.8280792  37.1634650  32.6809502
  33.1278205  36.9011307  31.4281964  32.4872398  38.9576817  31.7217922
  31.4766979  38.9125180  31.3157558  33.2186365  39.2017555  30.9513378
  32.6145911  39.8262525  32.9777050  32.9714131  40.7987690  32.6385975
  31.2271404  39.9408317  33.6114573  30.2796030  40.3832150  32.9413342
  31.1478043  39.5055008  34.8554897  32.0267868  39.2245150  35.2660227
  29.9871016  39.7157931  35.7704806  29.2099094  40.2304602  35.2055120
  29.3849277  38.3931112  36.2806463  30.0654888  38.1894445  37.1073604
  28.3263922  38.5371327  36.4971185  29.4868731  37.2438335  35.3424644
  28.5970521  37.1852279  34.5405459  30.4872108  36.5650678  35.2222919
  30.4033089  40.5496883  37.0249486  29.5625401  40.8769226  37.8781962
  31.6512036  41.0256577  37.2804427  32.3981500  40.7771826  36.6476464
  32.0759487  41.6506481  38.5967565  31.7754030  40.9247160  39.3522644
  33.6195874  41.7415047  38.4536839  33.9757681  40.7526731  38.1648111
  33.9090657  42.3638868  37.6069593  34.4422269  42.1207571  39.7508240
  35.0757742  43.3335066  39.7683501  34.9998188  43.9239502  38.8672328
  35.7252836  43.7069607  40.9234762  36.2326646  44.6594906  40.8826876
  35.7584476  42.9217482  42.0512486  36.4943862  43.2853270  43.1572771
  36.3777518  42.5659180  43.7821388  35.0298095  41.7430353  42.0401239
  34.9267340  41.2011385  42.9686308  34.3276167  41.3045883  40.9097052
  33.7909579  40.3696012  40.9745359  31.4400554  42.9593468  38.9923215
  31.2160087  43.2223797  40.1723862  30.9351325  43.6984253  38.0313301
  31.1400604  43.4530258  37.0732665  29.9997044  44.8195934  38.2049322
  30.3793740  45.3876781  39.0541840  30.2036119  45.8222437  37.0737505
  29.9349165  45.3356361  36.1361384  29.5258498  46.6511488  37.2778559
  31.6022873  46.3714886  36.9903064  32.3222971  46.9855547  37.9914188
  33.5296059  47.4464464  37.5133443  34.2910790  48.0021334  38.0403876
  33.4632969  47.1917629  36.1705804  34.1599965  47.5208282  35.5175662
  32.3444605  46.4628887  35.8531427  31.9651341  46.2663889  34.8612237
  28.4863043  44.4822121  38.4674144  27.8347373  45.2182913  39.1744328
  28.0577755  43.2794237  38.1238389  28.7354398  42.6337814  37.7443385
  26.6638112  42.8365946  38.4478235  26.0029173  43.6985445  38.5392761
  26.1048627  41.9584799  37.3387575  26.7566967  41.1140776  37.1147060
  25.1875281  41.4677095  37.6639533  25.6639147  42.7705002  36.1727071
  24.9943900  43.5667229  36.4980817  26.5291238  43.2830477  35.7522178
  25.1009130  41.8421078  35.0745177  25.7811880  41.0013866  34.9384308
  24.1147017  41.5127516  35.4016471  25.1081777  42.5752783  33.7022233
  24.4532871  43.4465837  33.6958718  26.1581349  42.8477859  33.5953450
  24.6214914  41.7092180  32.6392317  24.8122239  42.1886492  31.7709732
  25.1104212  40.8264112  32.5980186  23.6348176  41.4947081  32.6156211
  26.6243505  42.0458937  39.7647071  25.6986594  42.2939062  40.5189466
  27.6027346  41.2804461  40.0660896  28.2378912  41.1040878  39.3008614
  27.9487896  40.6787252  41.3096809  27.1133995  40.0889826  41.6870832
  29.2095828  39.6971631  41.2832022  30.0335431  40.2924013  40.8896494
  29.6354508  39.1418886  42.6704407  30.4521275  38.4451389  42.4815512
  30.0046110  39.9642467  43.2832623  28.6996508  38.7785745  43.0951595
  28.9609623  38.5332894  40.3772783  28.3301115  37.8278589  40.9181070
  28.3436346  38.8617373  39.5411396  30.1482463  37.8145742  39.6902418
  29.7924709  37.0979857  38.9499569  30.8388948  38.5713696  39.3182659
  30.6823492  37.1738911  40.3919268  28.0628228  41.6267538  42.5242043
  27.1387744  41.5895891  43.3266068  28.9826107  42.5375414  42.5646400
  29.5937562  42.5149775  41.7608404  29.2886281  43.5028172  43.6874533
  28.8980222  43.0285740  44.5877981  30.7923913  43.6232042  43.9835119
  31.2221527  44.1969967  43.1624365  31.0607767  44.4837141  45.2505064
  30.9246802  45.5414724  45.0252533  30.3600717  44.2842293  46.0612583
  32.0642209  44.4208717  45.6715298  31.4304900  42.2830677  44.2594290
  31.4839530  41.7282248  43.3227396  32.4978590  42.3447943  44.4715881
  30.7925344  41.3705873  45.3419209  29.7261977  41.1457491  45.3202581
  31.3512158  40.4502392  45.1718044  31.1376548  41.6922998  46.3245201
  28.5749173  44.8833799  43.4818745  29.1512680  45.9229517  43.1508303
  27.3001099  44.8893595  43.8435841  26.9401217  43.9761353  44.0813351
  26.3477921  45.9318018  43.7296343  26.5016532  46.1512566  42.6731014
  24.8931456  45.4972124  44.0394545  24.7350359  45.2638626  45.0923777
  24.2747092  46.3642073  43.8071775  24.5109558  44.2475128  43.3315706
  24.7277308  44.4353676  42.2799921  25.1648664  43.4058714  43.5599232
  22.9920650  43.8449383  43.4260035  22.3318696  44.6694422  43.1568623
  22.8623104  42.9544115  42.8109932  22.8609014  43.5562086  44.9173737
  23.5313106  42.7599859  45.2409267  23.1549120  44.4012356  45.5399418
  21.4702559  43.1968355  45.2849388  21.4443731  42.8857517  46.2454939
  20.9385514  44.0551233  45.3120708  21.0480571  42.5519753  44.6322489
  26.7096519  47.2403812  44.3899155  26.3518238  48.3541441  43.9555311
  27.5196719  47.0264196  45.4286146  27.8088570  46.0767460  45.6146193
  28.0425096  48.0879593  46.3688755  27.7942562  49.0898848  46.0187101
  27.2014475  47.9680443  47.6468897  27.1286011  46.9544983  48.0412483
  27.6641703  48.5474157  48.4458399  25.7916451  48.4947586  47.4746370
  24.9012733  47.7384853  46.9877720  25.5700850  49.6869183  47.9196692
  24.5970345  49.9077368  48.0762482  26.3120270  50.2238035  48.3455515
  29.5262170  47.8950262  46.6189480  29.8558950  47.1963835  47.5783777
  30.4120469  48.3677816  45.7101917  30.0585985  49.0214491  44.5349312
  29.3025923  49.7959328  44.6642780  29.7335839  48.2688951  43.8165092
  31.3429475  49.6735430  44.0117741  31.4351439  50.5952597  44.5862722
  31.2734914  49.8334694  42.9358101  32.3907733  48.6680937  44.4257736
  33.3872080  49.0456057  44.6553564  32.4779010  47.8409719  43.7212324
  31.8614650  48.2023239  45.8035374  32.0865440  47.1369219  45.8522081
  32.4516344  48.9021635  47.0421124  31.9944501  50.0145912  47.4667549
  33.4681654  48.3215380  47.7191067  33.8777518  47.5291872  47.2452736
  34.2852449  48.9390564  48.7685490  34.5688820  49.9208164  48.3893490
  33.4312963  48.8363123  50.0182247  32.4549675  49.2334080  49.7403717
  33.3839726  47.7911234  50.3239059  34.1755056  49.5995998  51.1518431
  33.4468579  49.6457243  51.9611931  35.0395918  49.0477610  51.5218925
  34.7383642  51.3659000  50.8171988  33.2437301  52.2469378  50.5484867
  33.4986949  53.2676697  50.2635384  32.6062131  51.7971897  49.7873020
  32.6903772  52.2073603  51.4867496  35.6069660  48.1966305  48.9748955
  35.6021523  46.9751978  48.9298916  36.7309761  48.8371134  49.4563961
  36.5929413  49.8020124  49.7209930  38.0121493  48.2041502  49.6745443
  37.9924750  47.1717787  50.0237274  38.7687492  48.2066870  48.2730150
  39.8257756  47.9652739  48.3848429  38.3313560  47.5288391  47.5400019
  38.8875198  49.6068859  47.6141071  38.2157993  49.8869038  46.5786076
  39.7420192  50.3993511  48.0862427  38.8532472  49.0572500  50.6658125
  38.5554552  50.2093410  51.0182810  39.8914051  48.3705187  51.2127590
  40.1286554  47.4614525  50.8420706  40.5225658  48.9743900  52.3717022
  39.7643518  49.2703772  53.0966902  41.3762283  47.8425312  52.8902721
  40.6937313  47.0259428  53.1258202  42.1872282  47.6772690  52.1809959
  41.9579935  48.1840754  54.2763805  42.6098442  49.0529537  54.1855955
  41.1036158  48.5596180  54.8394966  42.9026556  46.9637585  55.1475525
  41.8053436  45.4360247  55.1937199  40.9937906  45.5112457  55.9174824
  41.4092350  45.2711439  54.1917133  42.4018621  44.5858908  55.5246830
  41.3716602  50.1636076  51.8966055  41.5048456  51.1261320  52.6599836
  41.8488264  50.1392460  50.6299067  41.5609074  49.4101954  49.9929714
  42.4709463  51.2653017  50.0046873  43.3516932  51.4964390  50.6038237
  42.7209568  51.1175823  48.9540815  41.6897726  52.5783205  50.0840712
  42.2640753  53.6368752  50.3672886  40.3630638  52.5009584  49.8949480
  40.0470638  51.5495253  49.7723675  39.3327117  53.5551167  49.8823977
  39.8468566  54.3109322  49.2886829  38.1938624  53.1315613  48.9918566
  37.6616430  52.3559189  49.5425129  37.2186589  54.2803001  48.7951183
  36.8349743  54.4824219  49.7951365  37.6989341  55.1707935  48.3895731
  36.4584351  53.8330793  48.1546879  38.6028028  52.7135563  47.7475214
  38.9849329  51.8494034  47.9172707  38.9952946  54.0199041  51.2536955
  38.9497280  55.2043533  51.5730190  38.7094617  53.0273485  52.1352768
  38.8351679  52.0722103  51.8319321  38.4970307  53.1965733  53.5815620
  37.5549674  53.7415648  53.6415625  38.2456732  51.8889618  54.3607140
  39.1237450  51.2554121  54.2353916  37.9819632  52.1360016  55.8279991
  37.0750594  52.7282810  55.9497738  37.8164196  51.1846972  56.3336897
  38.7524462  52.6820803  56.3722897  37.0008540  51.1760998  53.7400007
  36.1267352  51.5710020  54.2577600  36.9338608  51.3584518  52.6674509
  36.9085598  49.6329117  53.8875723  36.0600424  49.3100071  53.2843685
  37.8281236  49.1218948  53.6023283  36.5749955  49.4117498  54.9014425
  39.6556425  53.9613104  54.2058134  39.4818640  54.8619795  54.9974775
  40.8646441  53.6724949  53.7236500  40.9761524  52.9057217  53.0757904
  42.0571041  54.3497467  54.1903973  42.0536566  54.5053673  55.2692270
  43.2730722  53.4150505  53.8889456  43.0293465  52.4297523  54.2862844
  43.2219648  53.2434988  52.8137398  44.6356773  53.9575768  54.3838501
  44.8746729  54.9601650  54.0291739  44.4362736  54.1128922  55.4441357
  45.8603764  52.9861450  54.1451406  46.7268801  53.4808588  54.5839310
  45.8212519  52.0849228  54.7569990  46.1864042  52.4515104  52.7268028
  47.0268154  51.7573929  52.7304792  45.2952528  51.9065809  52.4153471
  46.5363503  53.5485697  51.7530632  47.3890543  53.9441490  52.1225500
  46.5965605  53.2407475  50.7929945  45.8767462  54.3094110  51.8314314
  42.2784233  55.7683802  53.5779953  42.6404810  56.6909504  54.3124247
  41.8788576  55.9977341  52.3165321  41.5758085  55.1733065  51.8179560
  41.7376423  57.3313713  51.6436672  42.7564716  57.6909637  51.4994431
  41.1542606  57.1941423  50.2010155  41.8036795  56.6325378  49.5294762
  40.2098703  56.6718435  50.3540993  40.7369566  58.5305738  49.5670033
  39.9518967  58.9871836  50.1697397  41.5667295  59.2366314  49.5995903
  40.0546932  58.3758307  48.2562304  40.7794619  58.3202505  47.4439955
  39.6059132  57.3830986  48.2906199  39.0526795  59.4771338  48.0364943
  38.3228207  59.5761919  48.8399839  39.5147967  60.4631186  47.9876709
  38.2793117  59.2612886  46.7773867  38.8272357  59.4019032  45.9406662
  37.9854727  58.2985115  46.8599701  37.4818206  59.8741579  46.6851807
  40.8469772  58.1871605  52.4719810  41.2455797  59.2653275  52.9247427
  39.6544123  57.6381350  52.8629351  39.4130588  56.7808294  52.3866177
  38.6527371  58.4638214  53.6063862  38.4727287  59.4331217  53.1414604
  37.3022032  57.6679850  53.4907770  37.3893118  56.6379452  53.8365078
  36.5579748  58.0649710  54.1811609  36.6690063  57.5443888  52.1400833
  36.5095544  58.5707951  51.8096876  37.3528481  57.0389366  51.4581871
  35.3438520  56.7443085  52.2042751  35.5337739  55.7311296  52.5585270
  34.7738838  57.1349049  53.0472898  34.5047855  56.9098616  50.9579182
  34.9318504  57.3909712  50.1793003  33.2820630  56.4372635  50.6922102
  32.5999117  55.6512403  51.4791250  33.1232452  55.1164103  52.1574926
  31.7057467  55.3273678  51.1390257  32.7379751  56.7455673  49.5510435
  33.3233142  57.3221207  48.9636183  31.8518615  56.3974667  49.2137957
  39.1290331  58.8184261  54.9785042  38.9384222  59.9501038  55.4922104
  39.7536039  57.8621435  55.6292677  39.6979952  56.9275904  55.2502918
  40.3907442  58.1792545  56.9705534  39.6745682  58.5376930  57.7099562
  40.9242678  56.8439150  57.5571537  41.4398623  56.2601757  56.7945862
  41.6615915  56.9018555  58.3578348  39.7204995  55.9873772  58.0507946
  38.9531875  55.9247780  57.2791672  40.2960777  54.5717907  58.3782721
  40.9915781  54.6412039  59.2146730  39.5078039  53.8475609  58.5837364
  40.8231878  54.2000246  57.4996090  39.1818118  56.4578676  59.4394588
  39.9957681  56.8126249  60.0716972  38.5553026  57.2804213  59.0944958
  38.6078596  55.6531334  59.8989010  41.4953136  59.1911268  56.9043446
  41.5129519  60.0535631  57.7484465  42.4082613  59.1199923  55.9739017
  42.3411894  58.4089375  55.2597570  43.5991478  59.9889612  55.8554649
  44.0785789  59.9147367  56.8315458  44.7096109  59.5156622  54.9291515
  44.2021275  59.4889498  53.9648628  45.4902792  60.2750635  54.8846674
  45.2854776  58.1095266  55.2119255  44.6377230  57.5540781  55.8901596
  45.3689766  57.5200939  54.2988539  46.5286732  58.1068087  56.0674047
  46.5037107  58.4530735  57.2775078  47.6149988  57.7847815  55.5207920
  43.3118534  61.4484978  55.5952358  44.2595577  62.2494411  55.8088017
  42.1935272  61.7995501  54.9717951  41.5634203  61.0231256  54.8295689
  41.9083071  63.1373024  54.5270491  42.7282763  63.8307285  54.7138882
  41.7803955  63.1340456  52.9957676  40.9223843  62.5072813  52.7527046
  41.5246058  64.1480827  52.6885366  43.0946064  62.6540136  52.3878098
  43.9998102  63.4256887  52.2137070  43.2410383  61.4208794  51.9794273
  44.0274096  61.1682177  51.3981533  42.5114441  60.7265472  52.0548964
  40.6971741  63.8491583  55.2274561  40.2815294  64.9347544  54.8684072
  40.2605915  63.2279730  56.3087845  40.8047962  62.4047327  56.5237617
  39.1876173  63.7130737  57.3101950  39.0380692  63.0839109  58.1876326
  39.5893669  65.0538874  57.8380632  39.5630383  65.8576059  57.1022320
  38.8503599  65.3490162  58.5829592  40.9050608  65.0613165  58.5923243
  41.4144182  64.1598272  59.2274094  41.5729570  66.1592340  58.4231663
  42.5126219  66.1136818  58.7906599  41.2366343  66.8305492  57.7476501
  37.7628136  63.8273525  56.5810299  37.0888829  64.8907757  56.7021036
  37.4986649  62.8585577  55.7537413  38.1343865  62.0845842  55.6236506
  36.2582254  62.6859713  55.0771761  36.0364485  63.7198782  54.8126936
  36.5310812  61.8422031  53.8517189  37.0196772  62.6077223  53.2489300
  37.2663879  61.0586119  54.0344906  35.2817822  61.3146353  53.1448126
  34.5800471  60.1988125  53.5963345  34.9058747  59.6048546  54.4374371
  33.3631992  59.8193979  52.9860497  32.8941607  58.9165926  53.3484650
  32.8064251  60.5886555  51.9949102  31.4733386  60.4339981  51.6257048
  31.3402414  59.5403290  51.9501162  33.4817338  61.7201757  51.5212965
  32.9262829  62.2647858  50.7721138  34.7147393  62.1245909  52.1112442
  35.2039170  63.0572462  51.8719292  35.0730491  62.1778536  55.9542274
  33.9346838  62.4958229  55.6763411  35.3471303  61.2878466  56.8948555
  36.3444138  61.1322212  56.9310188  34.4946194  60.7877302  57.9560804
  33.5611033  60.4817915  57.4837971  35.1081395  59.5192909  58.5935402
  36.0998559  59.7888947  58.9567375  34.5102739  59.2443180  59.4624758
  35.1084542  58.2851982  57.6920223  33.8483143  57.7076006  57.3803854
  32.9356575  58.1032038  57.8010416  33.8077259  56.5748882  56.4985466
  32.8756189  56.0534191  56.3383961  35.0419116  56.0315037  55.9881401
  35.0861883  54.8793936  55.2462959  34.3343997  54.6825600  54.6826696
  36.2732768  56.5778303  56.3700151  37.1436930  56.0186815  56.0599566
  36.3054228  57.7480698  57.1669197  37.2569084  58.2116270  57.3818302
  34.2014194  61.7806673  59.1051340  35.0639224  62.5537872  59.6055460
  33.0309415  61.6086769  59.6572304  32.3320651  60.9797955  59.2882109
  32.6354074  62.1663809  60.9422445  33.5820174  62.4549341  61.3991642
  31.7203808  63.3795214  60.7972813  32.3205090  64.1586971  60.3273487
  30.8915639  63.1542444  60.1261520  31.1294961  63.9265394  62.1006632
  29.9219394  63.5753489  62.5767517  29.2631435  62.8798485  62.0780802
  29.6373105  64.2750978  63.7834740  28.7949634  64.1583395  64.3283749
  30.6989002  65.0532246  64.1269875  31.0180187  65.9395504  65.1634169
  30.2669835  66.1572886  65.9083605  32.2940731  66.5425110  65.2447796
  32.4769807  67.2488451  66.0410404  33.2715940  66.2895536  64.2526436
  34.2007542  66.8400431  64.2473698  32.9646540  65.5178547  63.1216431
  33.7412953  65.4578781  62.3735523  31.7015386  64.8170996  63.0789185
  32.0907164  61.1264086  61.9039869  32.2221160  61.2452698  63.1314468
  31.5967345  60.0097179  61.4198399  31.3918996  59.8920059  60.4378557
  31.1739206  58.7911940  62.2272205  31.1717415  59.0802097  63.2782030
  29.7548151  58.4350300  61.8531418  29.1061473  59.1509771  62.3578691
  29.6391320  58.4697390  60.7698488  29.4048810  57.1591902  62.3214817
  28.4984088  56.8908310  62.1544790  32.1491766  57.6334238  62.0723772
  32.5651932  57.2559357  60.9866190  32.6496744  57.1707153  63.2482052
  32.5854897  57.7602768  64.0657616  33.3014727  55.8389235  63.3529091
  34.1402602  55.8957100  62.6591444  33.8345432  55.5379581  64.7331190
  34.2141461  54.5251751  64.8683119  34.7078681  56.1710358  64.8900127
  33.1790376  55.8271408  65.5545759  32.3376369  54.7242308  62.8366041
  32.7324319  53.9493656  62.0400667  31.0367370  54.7344208  63.1835794
  30.7206321  55.4635048  63.8069677  29.9964976  53.6796808  62.7838755
  30.4137897  52.7071667  63.0449915  28.7848234  53.7903500  63.7324047
  28.2273722  54.7258472  63.6855888  28.0839658  53.0028677  63.4553242
  29.2107248  53.5754967  65.0537539  29.7699070  54.3394375  65.2128553
  29.6994138  53.6869097  61.2626028  29.5268774  52.6673985  60.6079292
  29.9077296  54.8790836  60.5401993  29.9517155  55.7610607  61.0303831
  29.8914576  55.0303030  59.0936804  28.9650583  54.6266365  58.6850977
  29.8305941  56.5026569  58.7341785  28.9632940  57.0209932  59.1431046
  30.6313086  57.0791769  59.1974020  29.9386215  56.8531084  57.2362518
  30.1818323  57.9107141  57.1341610  30.7872224  56.4308929  56.6980028
  28.7798977  56.4951324  56.3376617  27.6503158  56.1643362  56.7931128
  29.0893149  56.3755751  55.1654243  31.0250568  54.2061996  58.4562063
  30.8003807  53.2613134  57.7797079  32.2820067  54.5651293  58.7283564
  32.3698854  55.2728081  59.4435930  33.4643507  53.7671471  58.4133959
  33.5974836  53.7183428  57.3326588  34.6298099  54.4291592  59.0833950
  34.6293354  55.5041504  58.9031410  34.6423292  54.3837786  60.1723766
  36.1250043  53.5753727  58.4678936  35.9961772  53.9775610  57.2003937
  33.3214378  52.3036814  58.8306284  33.8792157  51.4356279  58.1767845
  32.7690172  52.0154142  59.9581242  32.6999164  52.8097343  60.5781078
  32.6179409  50.6117487  60.3655815  33.6265421  50.1990461  60.3880215
  32.1781039  50.6586313  61.8439627  32.6934147  51.4255428  62.4222422
  31.1541271  51.0312605  61.8708515  32.4471068  49.3667078  62.6467037
  32.0674753  48.4897614  62.1223497  33.5323167  49.2973757  62.7216291
  31.7174172  49.1216516  64.2919111  32.7354646  50.4833746  65.0925684
  33.7790728  50.1711082  65.1308870  32.6743650  51.3456774  64.4286394
  32.3501301  50.6642389  66.0960150  31.6753459  49.7718000  59.4409513
  31.8784976  48.5410357  59.2597485  30.7102919  50.3764629  58.7480927
  30.5185509  51.3234806  59.0421772  29.8281717  49.8554230  57.7297926
  29.5413303  48.8399410  58.0029535  28.4931183  50.6501245  57.7816820
  28.0699325  50.7179785  58.7838840  28.6803126  51.6766262  57.4664736
  27.3166871  50.1037884  56.9404745  26.5849853  50.9110403  56.9729614
  27.7237201  49.9110842  55.9478521  26.6406083  48.8379622  57.5583172
  26.2160993  48.7879372  58.7040043  26.4566803  47.7355528  56.8508530
  25.9320569  47.0431471  57.3660660  26.6862845  47.6690102  55.8695507
  30.4106998  49.8679686  56.2989330  30.1704764  48.9644051  55.4830647
  31.3010836  50.8281422  56.0307837  31.3956666  51.6417885  56.6216564
  32.2781181  50.7320452  54.9382830  31.7228127  50.6876040  54.0013885
  33.1016445  52.0466661  54.7297001  33.4361315  52.3524427  55.7210207
  33.9426994  51.8560314  54.0630722  32.2834349  53.2409048  54.1880846
  31.1546516  53.0442905  53.6967850  32.9074168  54.3300295  54.0557051
  33.2377386  49.5318270  55.1228476  33.3945465  48.7208462  54.2091465
  33.7574983  49.2114687  56.3079262  33.8787436  49.9230909  57.0143223
  34.4488168  47.9333258  56.5542793  35.1817274  47.7107239  55.7787848
  35.2256370  47.9813957  57.8493547  34.7910690  48.6185741  58.6195850
  35.1565337  47.0060587  58.3310699  36.6568780  48.3567810  57.6930380
  37.0977163  49.5323181  58.3119678  36.4441586  50.2643919  58.7628937
  38.4543467  49.7317076  58.5238600  38.8282204  50.6779051  58.8862562
  39.3535328  48.7383366  58.0034542  40.4152203  48.9035606  58.1126308
  38.9246917  47.6364756  57.2898388  39.6403956  46.9554758  56.8534803
  37.5233746  47.4322939  57.0850515  37.0792055  46.6343880  56.5084600
  33.5011125  46.6850615  56.5015793  34.0081882  45.6498623  56.0563231
  32.2580194  46.7610788  56.9739962  31.9741106  47.6542616  57.3504543
  31.2746620  45.6577539  56.8483019  31.7356300  44.7294283  57.1856737
  30.0240469  46.0030174  57.6705027  30.2456021  46.0575151  58.7363529
  29.5950460  46.9507790  57.3452187  29.0243363  44.8322821  57.6528263
  28.0748034  44.8136854  56.8626070  29.2412019  43.9050198  58.5206747
  28.5908341  43.2250738  58.8878107  30.1750684  43.8134146  58.8943148
  30.9177470  45.3458643  55.3371525  30.7921219  44.1880465  55.0066996
  30.7444644  46.3954067  54.4605207  30.7787037  47.3400354  54.8163414
  30.5930734  46.2423515  52.9738998  29.7847700  45.5267668  52.8232956
  30.3874516  47.5097990  52.1446419  31.2866902  48.1258059  52.1479130
  30.1714301  47.2960854  50.6425142  31.1489153  47.1153450  50.1953411
  29.4857049  46.4924097  50.3742123  29.8115444  48.2324076  50.2160358
  29.2225337  48.2164669  52.5317192  29.4249034  48.8408184  53.2323074
  31.8231344  45.5889797  52.4348402  31.6083956  44.6846342  51.6445255
  33.0295515  45.9535694  52.8651714  33.0922389  46.6710091  53.5733032
  34.2673659  45.3336334  52.3066473  34.2811370  45.3591633  51.2170315
  35.4159379  46.1338854  53.0520058  35.1963401  47.1940374  52.9256773
  35.4152155  46.0248375  54.1365385  36.6910744  45.7993031  52.3911428
  36.6741228  44.8099184  51.9340563  36.7092419  46.5219259  51.5753031
  38.1875205  46.0944080  53.4437943  38.1643605  44.5076799  54.4455957
  39.1243029  44.1084957  54.7731066  37.5160408  44.8151302  55.2661180
  37.6123738  43.7649870  53.8695574  34.3453193  43.8720894  52.6518774
  34.3999505  43.0372334  51.7408419  34.1741943  43.4380865  53.9405823
  34.2731214  44.1194868  54.6795034  34.1299582  42.0012331  54.2586803
  34.9357390  41.4921713  53.7298346  34.2695546  41.8303823  55.7682848
  33.5425401  42.4787807  56.2572908  34.0083933  40.8055830  56.0322762
  35.7316422  42.1018267  56.2347507  36.8191433  41.3606501  55.7881451
  36.8066263  40.7031822  54.9314213  38.0774426  41.5239048  56.4088058
  38.9676189  41.0064936  56.0828161  38.1908822  42.4117565  57.4784040
  39.1771555  42.4612331  57.9156923  37.1660089  43.2748795  57.8380346
  37.3432875  43.8045073  58.7624073  35.8906126  43.1053209  57.2308683
  35.0706220  43.6802149  57.6352406  32.8627157  41.2779093  53.7220812
  33.0777383  40.2273798  53.2242393  31.6170669  41.8130541  53.7626076
  31.4435625  42.6385355  54.3181038  30.4434490  41.1376047  53.1642151
  30.3551817  40.1636362  53.6455774  29.1478491  41.9522238  53.4071112
  29.2465186  42.9467678  52.9720879  27.8936887  41.3342953  52.8267860
  27.1114397  42.0763445  52.9866409  28.0820537  41.1793566  51.7644215
  27.7037120  40.3584290  53.2736588  28.7767768  42.1186256  54.8064947
  29.5295191  42.5572872  55.2096748  30.7059836  40.9127808  51.6992855
  30.3727293  39.8194385  51.3013554  31.2152147  41.8644524  50.8723402
  31.4720750  42.7739668  51.2285805  31.6675687  41.6095543  49.5150089
  30.7994223  41.3743019  48.8993168  32.2226167  42.9358387  48.9583540
  32.9552293  43.2692766  49.6933365  32.6257730  42.8802061  47.9471827
  31.1302137  43.9248180  48.7345362  29.9129510  43.6565256  48.7572336
  31.6231155  45.1144218  48.4346962  31.0505414  45.9291458  48.2659054
  32.6166749  45.2932405  48.4657860  32.6446843  40.4625511  49.4266748
  32.5284839  39.6708345  48.4725428  33.5668778  40.2726793  50.3341007
  33.5078526  40.9181118  51.1087179  34.4477582  39.0934348  50.3457594
  34.9372816  38.9631057  49.3806219  35.5842733  39.3787503  51.3144016
  35.1837754  39.3708944  52.3281288  36.2609577  38.5248637  51.2816000
  36.5106869  40.9367275  50.8717251  35.4833913  41.7880344  50.9412909
  33.6980891  37.7800679  50.6978273  34.3546367  36.7644191  50.5515528
  32.4419355  37.7883887  51.1839008  31.9286466  38.6536956  51.2726784
  31.7421818  36.5150714  51.4184666  32.4587274  35.6944323  51.3836145
  31.1221433  36.6053247  52.8621292  30.4811525  37.4867868  52.8781414
  30.5286694  35.7175469  53.0806208  32.1080232  36.7063475  54.0046692
  33.1925106  35.8227587  54.0839577  33.3798122  35.1902723  53.2288074
  34.1753960  36.0185456  55.0832367  35.1039171  35.4670215  55.0748539
  33.8931370  36.9913459  56.0829544  34.8201370  37.2773433  57.0838881
  34.4414306  37.8872943  57.7211809  32.6922131  37.7612758  56.0597610
  32.6086593  38.5102391  56.8333721  31.8258119  37.6525235  54.9621439
  30.9987259  38.3455157  54.9164057  30.7044291  36.2013054  50.3241014
  30.0643516  35.1725149  50.2797937  30.4855108  37.1839762  49.4601297
  30.8956146  38.0714607  49.7136736  29.8177671  37.1713305  48.1959009
  28.9283490  36.5487576  48.2930470  29.1802144  38.4600496  47.8422308
  29.8940015  39.2828321  47.8017521  28.5817218  38.5938501  46.4651632
  27.7590156  37.8995419  46.2943125  28.2182717  39.6204686  46.4197254
  29.3659067  38.3396792  45.7520342  28.0659699  38.7394595  48.8539505
  27.3006773  37.9824400  48.6826420  28.4300041  38.5268950  49.8591423
  27.4438119  40.1656485  49.0952110  28.1727815  40.8502483  49.5288372
  27.1651864  40.7092381  48.1924486  26.5924120  40.0048971  49.7565556
  30.6942225  36.4242601  47.2022724  30.2986145  35.4297423  46.5916252
  31.8269825  37.0673275  46.9167089  31.9601512  37.9566574  47.3765564
  32.6397443  36.7360616  45.7511568  31.9054794  36.6379952  44.9515676
  33.7077379  37.8053045  45.4127836  33.2003713  38.7660956  45.3258371
  34.3416214  37.9556632  46.2866783  34.5899820  37.4973321  44.1993427
  35.8682656  36.8906045  44.3045044  36.3755536  36.9881940  45.2529430
  36.5582919  36.5354800  43.1346035  37.6169467  36.3507342  43.2419205
  35.9302115  36.5761042  41.8711329  36.6674995  36.2850046  40.8245993
  37.4072909  35.7520747  41.1250877  34.5553994  37.0161819  41.7726851
  34.0149069  36.9822264  40.8382750  33.9480948  37.4809003  42.9490042
  32.8996062  37.6697540  42.7717829  33.2925439  35.3863192  45.9143686
  33.4601188  34.6360111  44.9524832  33.7150097  35.0139380  47.0926285
  33.5246110  35.5457902  47.9298782  34.5790267  33.8407540  47.3095131
  34.9790049  33.5761237  46.3306952  35.7688022  34.2846966  48.3155394
  35.3129292  34.5570254  49.2674398  36.3742948  33.4013391  48.5184145
  36.5880990  35.3747416  47.7616787  37.3867178  35.3228760  46.8446589
  36.4117360  36.5032291  48.3955622  37.0348787  37.1936059  48.0016422
  35.6483603  36.6692948  49.0357018  33.6876917  32.7861738  47.8852129
  33.2454038  32.9531312  48.9865208  33.3929229  31.6977191  47.1085882
  34.0108156  31.5789580  46.3185215  32.6086235  30.5518317  47.5240993
  31.5842342  30.9170055  47.5974226  32.5998163  29.5336580  46.4387274
  31.8848300  28.7257218  46.5940714  32.4095297  30.0188947  45.4814196
  34.0064692  28.8435507  46.3112593  34.7038198  29.6488619  46.0804462
  34.2473125  28.1651521  47.1297169  34.1578627  27.9852247  45.0309896
  33.5171556  27.1296716  45.2445889  33.7147498  28.4965229  44.1763973
  35.5855513  27.6403594  44.5311260  36.1794257  27.1359229  45.2933311
  35.5260444  26.9042420  43.7294436  36.2870646  28.9030647  44.0676022
  37.0930219  28.6812425  43.5007477  35.7323146  29.4749022  43.4468317
  36.5530777  29.4412518  44.8798180  33.2458854  30.0562716  48.8456488
  34.5000672  30.0149012  48.8989973  32.4938107  29.7668791  49.9321604
  31.0662746  29.5836830  49.7429991  30.8412790  28.7979960  49.0217638
  30.5926442  30.4971457  49.3833160  30.4834461  29.2486095  51.1354828
  29.9161482  28.3181977  51.1108112  29.9885392  30.1108742  51.5823221
  31.7329025  28.9338326  51.9671106  31.7347693  27.8438425  51.9714975
  31.6277647  29.2827892  52.9943800  32.9617906  29.5463347  51.2898207
  33.1188560  30.5534458  51.6760349  34.2486382  28.7778163  51.6177750
  34.9839330  29.0941334  52.5520277  34.5231915  27.7086186  50.8328104
  34.0698195  27.5660610  49.9416113  35.6375051  26.8114591  51.0829401
  35.8074260  26.7641783  52.1585751  35.3271222  25.3887272  50.6064081
  36.2501144  24.8424888  50.8008862  34.2455912  24.6150970  51.4138842
  33.2925344  25.0267363  51.0817146  34.2943120  23.5453892  51.2102795
  34.4112897  24.8011923  52.4750185  35.0436115  25.5030298  49.2376232
  35.7717466  25.7324505  48.6555672  36.9603896  27.3107529  50.5207205
  38.0650735  26.7347455  50.8108139  36.9619846  28.3808374  49.7736597
  36.0952735  28.7886786  49.4533825  38.2455325  29.0753198  49.4796371
  38.9078236  28.2962108  49.1021967  38.0557370  30.1446676  48.4197807
  37.6837492  31.0372543  48.9227867  39.0251470  30.5843949  48.1852913
  37.3450494  29.8073483  47.0801401  37.1859956  28.6399341  46.6727352
  37.1602988  30.7760167  46.3312197  38.9702630  29.6334600  50.7103682
  38.3624721  30.1354623  51.6273165  40.3247404  29.5788908  50.6094074
  40.8019972  29.1859913  49.8106861  41.1922550  30.1437259  51.6212654
  40.9622145  29.7077370  52.5934267  42.6194239  29.8372650  51.2785482
  42.6835155  30.2126217  50.2572203  43.3921432  30.3721237  51.8307495
  42.9106331  28.3354640  51.4022684  42.1660471  27.5784779  52.1123600
  43.8792753  27.9164529  50.7208872  41.0540485  31.6947317  51.7831421
  41.4695835  32.2624564  52.8218412  40.4898119  32.3906970  50.7686615
  40.4198217  31.8938136  49.8921251  40.1233721  33.7899780  50.7178307
  40.9908962  34.3898916  50.9928131  39.5951128  34.3191218  49.4093180
  38.5536075  34.0016246  49.3587065  39.6593428  35.8728480  49.3233395
  40.7304811  35.9939480  49.4848967  39.4684720  36.3194823  48.3475399
  39.0022111  36.3623095  50.0421619  40.4023695  33.7930536  48.1477785
  40.3162146  32.7088284  48.0761528  40.0755787  34.2526984  47.2150183
  41.9661140  33.9306784  48.1115532  42.2550535  34.9804926  48.1615400
  42.3932934  33.3590603  48.9354897  42.3744774  33.6006927  47.1563292
  39.0284491  34.1489053  51.7131233  38.9363194  35.2427888  52.2760391
  38.1090903  33.2047677  51.9627428  38.0624819  32.3932099  51.3633299
  37.1078920  33.3058643  52.9612064  36.5519333  34.2433572  52.9724884
  36.0235810  32.2392631  52.7348948  36.6053128  31.3179374  52.7641582
  34.9864697  32.1911550  53.8738966  35.3141451  31.5553880  54.6964121
  34.7206926  33.2028389  54.1804314  34.1832566  31.6548204  53.3686304
  35.4060602  32.4978209  51.4110470  36.2564039  32.6935196  50.7578135
  34.8971033  31.6265154  50.9988642  34.7282743  33.3487415  51.4791870
  37.8579044  33.2053375  54.3240595  37.6682782  34.0146351  55.2265596
  38.7189579  32.2184110  54.5476294  38.8037276  31.4676595  53.8773441
  39.5412111  32.2242594  55.8088923  38.9276528  32.1215367  56.7039299
  40.4488039  30.9718776  55.8672762  39.7644734  30.1286674  55.7735395
  41.0346746  30.9003019  54.9509001  41.3028669  30.7915688  57.0887470
  42.0296907  31.6031075  57.1238422  40.6955910  30.7330132  58.4894800
  39.9599266  31.5339255  58.5631990  40.2727699  29.7622299  58.7481451
  41.4317656  30.8774257  59.2802382  42.1338272  29.5396805  57.0548105
  42.7873993  29.4326019  57.9205370  41.4379311  28.7037873  56.9833326
  42.7893639  29.6484923  56.1907864  40.3522921  33.5272384  55.9946108
  40.4156351  34.0585661  57.0960712  40.9265947  34.0616393  54.9536943
  40.8722448  33.5746622  54.0705204  41.6118431  35.3782773  54.9953175
  42.4369431  35.2603817  55.6977510  42.0718336  35.8948040  53.6220312
  41.1852694  35.8893776  52.9879379  42.3737574  36.9419360  53.6433411
  43.2269382  35.0144911  53.0794811  44.1307926  35.4447317  53.5108042
  42.9920721  33.9787912  53.3249664  43.3576870  34.9533176  51.3052416
  44.8067141  33.8865209  51.1308384  45.7031155  34.4632459  51.3587856
  44.7236204  32.9376316  51.6607475  44.9713373  33.5288429  50.1144361
  40.7120514  36.5394568  55.5196714  41.1619520  37.2903204  56.4261818
  39.5153880  36.7843676  55.0010443  39.3179941  36.2387848  54.1743135
  38.5743976  37.7390790  55.5790758  39.1118002  38.6828256  55.6720352
  37.2915363  37.9306579  54.6298265  36.8331623  36.9452405  54.5464754
  36.5668988  38.4900045  55.2215433  37.4461603  38.4243536  53.6704206
  38.0388474  37.4314451  56.9704390  38.0415368  38.2543159  57.8834677
  37.6764274  36.1905718  57.2317171  37.7256870  35.5378723  56.4625216
  37.2621012  35.7098699  58.5185957  36.3436913  36.2347913  58.7814283
  37.0472288  34.2182350  58.5130692  37.8938198  33.7990570  57.9693079
  37.1045971  33.8236737  59.5275259  35.7213831  33.8307524  57.9524469
  34.8981476  34.0066671  58.6448622  35.5140257  34.3641496  57.0247650
  35.6061363  32.3905754  57.5743437  36.4865661  31.4946222  57.7377462
  34.4151950  31.9832253  57.1189690  34.2700863  31.0742521  56.7032623
  33.7053394  32.6825285  56.9541216  38.2360411  36.0183215  59.7318316
  37.7620387  36.4625883  60.8143377  39.5247293  35.8750701  59.4277239
  39.7733259  35.5702376  58.4974623  40.6261349  36.1675024  60.4192305
  40.4414654  35.8231020  61.4367723  41.9353199  35.5076432  59.8733616
  41.7780638  34.4647694  60.1486683  42.0835161  35.5688715  58.7952232
  42.8226662  35.7303047  60.4659367  40.8104992  37.6997089  60.5840588
  40.7288408  38.1664824  61.7279768  40.9268332  38.3757520  59.4491053
  40.7059288  37.8152561  58.6384583  41.0437584  39.8640704  59.4867086
  41.8970966  40.2145863  60.0672722  41.3524437  40.3812599  58.0642557
  40.5615807  39.9963641  57.4204493  41.2684345  41.4646387  57.9785919
  42.7293777  40.0688028  57.4591351  43.0095577  39.0164471  57.5055027
  42.6211214  40.5705166  56.0062361  43.5193443  40.1430225  55.5606699
  41.8111420  40.0456858  55.4996920  42.5285053  41.6450739  55.8485794
  43.9622736  40.6842566  58.1605196  43.9092350  40.4765654  59.2292356
  44.8562384  40.3171873  57.6563454  44.0508413  41.7572832  57.9906034
  39.8904729  40.5999327  60.1005554  40.0876713  41.5914917  60.7300425
  38.6959076  40.0629187  59.9483442  38.5791659  39.2365503  59.3794966
  37.4872708  40.6253815  60.4575300  37.5192714  41.6855478  60.2062893
  36.2735295  39.9337053  59.7050333  36.2295294  40.0933409  58.6276817
  36.3284826  38.8486457  59.7929811  34.9624157  40.3598309  60.3522348
  34.8759365  39.8954797  61.3345814  34.9983048  41.4479971  60.4043007
  33.7896180  39.9546909  59.4760704  33.7970757  38.7484050  59.0020037
  32.8536272  40.7435179  59.2402601  37.4976158  40.3663158  61.9766426
  37.0637083  41.2545586  62.6728201  37.9312396  39.2213774  62.4764824
  38.2380104  38.5139942  61.8241024  38.1666207  38.9737320  63.8624144
  37.1803093  39.1423011  64.2947149  38.5373163  37.4573517  64.1213608
  39.0794110  37.0858264  63.2517576  39.3526936  37.4651170  64.8446846
  37.4470782  36.5077734  64.5966005  36.9020748  36.8827128  65.4629087
  36.7283010  36.3462639  63.7932444  38.0270171  35.1053071  64.8193216
  38.7622023  34.8408818  64.0592670  38.5740471  35.2879310  65.7442570
  36.9378185  34.1070056  65.0207567  37.1667981  33.4884739  65.8885622
  36.0143805  34.6199608  65.2895451  36.6806960  33.3699203  63.7840796
  36.3050699  33.9435267  63.0424690  37.4346137  32.7993393  63.4289122
  36.0775518  32.6046324  64.0498829  39.2368221  39.8133445  64.5616102
  38.9371872  40.2324820  65.6822300  40.3357172  40.1680326  63.8789654
  40.4688835  39.6866655  63.0010986  41.3236189  41.1587954  64.2570734
  41.6940498  40.9347630  65.2574205  42.5753546  41.1581612  63.3148861
  42.2038078  41.0779762  62.2933054  43.4536886  42.4317980  63.4339666
  43.9895964  42.3968220  64.3824816  44.1704226  42.5121784  62.6166916
  42.7818727  43.2862139  63.3518887  43.4640694  39.9394774  63.6311531
  43.9166546  39.9723434  64.6222067  42.8584194  39.0332294  63.6332464
  44.4555378  39.6266127  62.4915218  45.1215935  40.4671144  62.2965002
  44.9474573  38.7142253  62.8286648  43.9274120  39.4436407  61.5557241
  40.6750059  42.5524712  64.3070364  41.0039759  43.3823824  65.1939583
  39.8332429  42.8648329  63.3758783  39.7037983  42.2965431  62.5510216
  39.0742683  44.1586447  63.2952690  39.8505974  44.9084854  63.4474182
  38.4157825  44.3483400  61.8992805  39.1402912  44.5210934  61.1034536
  37.8455210  43.4967232  61.5282726  37.5246501  45.5723381  61.8696547
  37.9998350  46.7542362  61.3430166  38.9731741  46.8661118  60.8885908
  37.1904993  47.8423405  61.2856674  37.5395679  48.7095547  60.7448483
  35.9111476  47.7836514  61.8390083  35.3147936  48.6824036  61.7841482
  35.4586935  46.6692638  62.4926710  34.5766163  46.7098284  63.1145191
  36.2235546  45.5199099  62.4307919  35.9105873  44.5628500  62.8212976
  38.0901504  44.2388105  64.4616795  38.0948758  45.2642632  65.1800299
  37.2312689  43.2537317  64.7344780  37.2353792  42.4398613  64.1364002
  36.2436390  43.2195902  65.8534813  35.6684422  44.1173697  65.6271029
  35.3639150  41.9277716  65.8215618  35.9752607  41.0345125  65.6933117
  34.7805572  41.7832899  66.7309141  34.4544196  42.0968866  64.5460367
  35.0894284  42.4914551  63.7528276  34.1101170  40.6781054  64.1455984
  33.5504031  40.7389259  63.2122612  35.0321507  40.0995302  64.0890217
  33.4369898  40.1773262  64.8414564  33.1571746  42.9543972  64.5781946
  33.4217906  43.9950228  64.7657442  32.4863005  42.7844667  63.7360811
  32.6719093  42.5465631  65.4649258  36.8705893  43.2846689  67.2346306
  36.4060020  44.0242481  68.0798483  38.0408049  42.5744677  67.3912811
  38.4533477  42.2051430  66.5465879  38.9062405  42.6650620  68.5924816
  38.3742356  42.1376848  69.3842793  40.1968098  41.8152905  68.3952284
  39.9709129  40.7707930  68.1805372  40.7049179  42.1321106  67.4844313
  41.0890150  41.7102861  69.6287870  40.5916548  41.7546082  70.5976868
  41.6179562  40.7607889  69.5465088  42.2312927  42.7311850  69.6031713
  43.0920219  42.8319550  68.7411880  42.2345257  43.5319138  70.6245804
  42.7239799  44.4031668  70.4780960  41.4854765  43.5614729  71.3014507
  39.2796540  44.0953445  68.9603090  39.2106175  44.4554377  70.1118279
  39.6362400  44.8378563  67.9084587  39.5428133  44.3913984  67.0073223
  39.9387312  46.2448883  67.9009056  40.5563545  46.3656664  68.7908792
  40.8756495  46.6280031  66.7033195  40.3524590  46.3506269  65.7882023
  41.0701132  47.6986361  66.7668295  42.2103024  45.8576393  66.6888428
  42.0145035  44.7929430  66.8160582  42.6997185  46.0232925  65.7290888
  43.2472134  46.2407732  67.7656364  43.5329485  47.2863245  67.6503992
  42.7245474  45.9576559  68.6792946  44.4830418  45.3211308  67.5802612
  44.2547846  44.2637491  67.4463034  44.9895954  45.6760216  66.6827345
  45.4290390  45.5194521  68.6625862  46.2827444  44.9810934  68.7008047
  45.7647657  46.4688015  68.7408543  45.0274038  45.3254509  69.5687628
  38.7866259  47.2055292  68.1016874  39.0037942  48.2698154  68.7435484
  37.6080418  46.8912554  67.6683807  37.4386859  46.1142826  67.0456886
  36.3461733  47.5041437  68.0706692  36.3934994  48.5901976  67.9909754
  35.1237297  46.9716501  67.3096180  35.1478219  45.8829451  67.3569298
  33.7588549  47.4487209  67.7291059  33.8132644  48.4454346  68.1669426
  33.0117416  47.2463560  66.9616604  33.4736347  46.8553066  68.5977888
  35.2740169  47.3779154  65.8097315  34.4484162  47.0608330  65.1725864
  35.4677033  48.4484386  65.7421970  36.1585307  46.8817663  65.4102612
  36.2281752  47.3989582  69.5679188  35.8382225  48.3591604  70.2077770
  36.7250991  46.2789249  70.1322937  36.9790983  45.4978085  69.5445538
  36.5194941  46.1259222  71.5776205  35.5076909  46.4896488  71.7566681
  36.4680743  44.7352982  72.0843220  35.9814095  44.7203779  73.0595303
  35.8886909  44.1675234  71.3562775  37.4833155  44.3399525  72.1173239
  37.6346636  46.9661522  72.3449945  37.3457742  47.6323986  73.3932114
  38.8597465  46.9931364  71.8248510  39.0595102  46.3014984  71.1164522
  39.9972153  47.7532721  72.2981405  40.0873756  47.4271297  73.3342886
  41.2755871  47.2847366  71.6777039  41.2105083  46.1967373  71.6667366
  41.3496351  47.6501942  70.6534624  42.5624990  47.4883699  72.5148678
  42.9449701  48.5033941  72.4073935  42.3407984  47.2494936  73.5550022
  43.6601496  46.5801144  72.1973133  43.8723135  46.1844349  71.0835075
  44.5653057  46.2814188  73.1400394  45.3211737  45.6815100  72.8419352
  44.4509888  46.4761686  74.1244698  39.8793650  49.3392229  72.1655655
  40.2945995  50.0453281  73.0506325  39.2278528  49.8233366  71.0767937
  39.0512347  49.1724110  70.3249931  39.0248942  51.2651587  70.6370354
  39.9949336  51.6595793  70.3344440  38.0720592  51.2704992  69.4808817
  38.5006952  51.0544491  68.5022640  37.3072839  50.5271864  69.7060537
  37.3323798  52.5776625  69.1722202  36.4884782  52.5836229  69.8620749
  38.0157709  53.3663988  69.4868183  36.7885590  53.0127048  67.5010967
  35.3873539  51.9254637  67.4673319  35.6639481  50.9458876  67.8572464
  34.5816469  52.4483633  67.9826021  35.0876141  51.7851019  66.4287949
  38.5824442  52.0997620  71.8280077  37.8237748  51.5831804  72.6471949
  38.9546490  53.3842325  71.8407822  39.9382901  54.0704060  70.9341526
  40.1811838  53.6797905  69.9459600  40.8950853  53.9130783  71.4320469
  39.6834254  55.5840063  71.0416508  38.8471889  55.9208822  70.4290152
  40.5250406  56.1480522  70.6396055  39.2621636  55.7686329  72.4523640
  38.6441422  56.6576958  72.5777531  40.0689077  55.8110285  73.1841183
  38.4754062  54.4337177  72.7955246  38.7498951  54.1579628  73.8137150
  36.9370151  54.5564508  72.7561903  36.2713981  54.0954971  71.8005323
  36.3489699  55.1607609  73.8144207  36.9706106  55.3215647  74.5940399
  34.9155760  55.4978132  74.0183115  34.2841506  55.4455805  73.1313658
  34.1703439  54.6793079  75.0090218  34.6167326  54.5984983  76.0001373
  33.2850385  55.2979422  75.1560831  33.7683105  53.2036161  74.4473505
  34.7268486  52.7094698  74.2888260  33.1906438  52.6631308  75.1972008
  32.9966283  53.3126259  73.1108522  32.0762014  54.0979242  72.9361725
  33.0604267  52.3585272  72.2356462  32.3896027  52.4687004  71.4886808
  33.7290287  51.6056442  72.3145914  34.8500156  57.0251274  74.2234945
  34.6377516  57.6551676  73.1234837  35.0154877  57.4997091  75.3592682
  68.5372877  41.5749645  22.3071957  67.6470566  41.1281109  22.4742508
  69.0511608  41.2780714  23.1244421  68.9559078  41.2755775  21.4381599
  68.4334660  43.0140877  22.2887444  69.3782568  43.4071732  21.9133043
  67.5019169  43.4190893  21.0850716  66.5757513  42.8568745  21.2043548
  67.3457479  44.4969893  21.1279607  68.0394125  43.0313110  19.6596766
  69.0713406  43.3701849  19.5681071  67.9420996  41.9577265  19.4982493
  67.0510244  43.7509346  18.7028730  66.0649347  43.2915640  18.7714839
  66.9852161  44.7867632  19.0357935  67.4357653  43.6665010  17.2163844
  67.6562166  42.6369619  16.9343424  66.6544199  44.1449356  16.6258729
  68.7169838  44.3298674  16.8809164  68.7443018  44.5323086  15.8917904
  68.7501049  45.2455139  17.3058844  69.5358801  43.7583876  17.0323062
  68.1984043  43.6347008  23.6312890  67.8589106  42.8949308  24.5650291
  68.4996748  44.9066305  23.7463427  68.7680912  45.4016542  22.9078865
  68.4754372  45.7313538  24.9914837  67.6446342  45.3970385  25.6128597
  69.7519302  45.5147028  25.8139777  69.8662281  44.4419956  25.9699941
  70.6425476  45.8596659  25.2887082  69.7193241  46.2099886  27.1649981
  69.3846035  47.2384787  27.0298123  68.6353540  45.6084871  28.1643248
  68.9547396  45.8636951  29.1747522  67.6294422  45.9831667  27.9749203
  68.6779642  44.5430183  27.9383636  71.1126184  46.1300230  27.7614474
  71.1525297  46.9281197  28.5027599  71.3455772  45.2401781  28.3462620
  72.0108604  46.2100983  27.1491981  68.2749176  47.1806145  24.6852064
  69.0914202  48.0306339  24.8672247  67.0286226  47.5004292  24.2977786
  66.2645864  46.8647957  24.4775367  66.4925432  48.8544846  24.1980338
  67.1878195  49.4645548  23.6213946  65.1043653  48.7693596  23.4375715
  64.6903658  49.7527933  23.2149339  65.2118254  48.2239819  22.4999571
  64.2565632  48.0746412  24.3703938  63.3799791  47.9739380  23.9921665
  66.2607718  49.5219946  25.5597043  66.1061049  48.8391972  26.5866256
  66.0876608  50.8221674  25.4857826  66.3034582  51.3051414  24.6253872
  65.5349970  51.5189934  26.6835618  66.2407398  51.4922571  27.5138140
  65.2922678  52.9401398  26.2368464  66.1867380  53.2761812  25.7123470
  64.3714476  53.0245113  25.6597161  65.1057625  53.9797640  27.3621416
  65.0935507  54.9623299  26.8904209  64.1765976  53.7538052  27.8852987
  66.3105249  53.9195776  28.3792043  66.1353874  53.8809061  29.5570016
  67.4705505  53.9780426  27.9973054  64.2661858  50.9407759  27.3087668
  64.1296530  50.7909632  28.5563231  63.2776880  50.5118942  26.5087199
  63.4497643  50.6444931  25.5223584  62.0875692  49.8460960  26.9525313
  61.7399979  50.3446722  27.8573656  60.9987640  49.9111366  25.8659029
  61.4831686  49.7880030  24.8972464  60.1633406  49.2966509  26.2014127
  60.3727865  51.2811661  25.6031418  59.3176651  51.5309715  24.7270989
  59.2117500  52.9143620  24.6628094  58.4452200  53.4846354  24.1592002
  60.0720119  53.4374428  25.5668139  60.1741552  54.4375658  25.6638551
  60.8086061  52.4472618  26.1218047  61.6728067  52.5742960  26.7569590
  62.3253012  48.4070349  27.4899602  61.6083193  48.0941677  28.4591579
  63.2673073  47.6223421  27.0009112  63.8049459  47.9746866  26.2218738
  63.7386036  46.4081573  27.5901246  62.8621674  45.7878923  27.7778316
  64.6625090  45.6078577  26.6234732  65.1304960  46.4283705  26.0795569
  65.5342054  45.0825548  27.0137310  63.8966131  44.7340822  25.6224966
  62.8767157  45.0907612  25.4786563  64.6116543  44.4111824  24.3333101
  63.8919163  43.8513279  23.7361097  64.9233198  45.2902794  23.7692571
  65.4650974  43.7443542  24.4561124  63.6387348  43.4085703  26.3409257
  63.0595922  42.7052498  25.7425594  64.5656157  42.9275990  26.6534352
  63.1296492  43.6687565  27.2689533  64.4316673  46.6281509  28.8984656
  64.0290594  45.9290504  29.8643327  65.2968836  47.6115370  28.9439058
  65.4069281  48.0515242  28.0414653  65.9580088  48.1311083  30.1483893
  66.5504408  47.3114586  30.5549574  66.9399738  49.1988373  29.7163010
  67.5019217  48.8119507  28.8662219  66.3630104  50.0544548  29.3653989
  67.9466629  49.6865749  30.7346964  67.4317312  49.9394846  31.6615129
  68.6393976  48.8541842  30.8585835  68.6414194  50.9766626  30.2146626
  69.3097544  50.6665325  29.4113874  67.8986406  51.6944647  29.8666167
  69.5095348  51.5990162  31.2088585  70.0116920  51.0026979  31.8509912
  69.6178865  52.9123449  31.2936473  70.4488850  53.4166241  32.1259856
  70.8030653  52.7076340  32.7520728  70.4201317  54.3610048  32.4829650
  68.9499664  53.7746191  30.6331992  68.2054472  53.6132908  29.9700499
  69.0461159  54.7259378  30.9585333  65.0126791  48.6179352  31.2847018
  65.2914810  48.4373426  32.4842453  63.8458872  49.0983438  30.9383845
  63.7434101  49.3680668  29.9704742  62.6580715  49.3793011  31.8327069
  63.0682421  49.7378349  32.7768016  61.7344236  50.3899813  31.2071657
  62.2584200  51.3135910  30.9612656  61.4106131  49.9986410  30.2427459
  60.6311846  50.7158709  32.1339893  59.2951918  50.3258801  31.7089486
  59.0879345  49.9403429  30.7216263  58.2217216  50.5641699  32.5921583
  57.2054958  50.3348589  32.3073745  58.4480906  51.1185789  33.8761997
  57.4345350  51.5521860  34.6619344  56.5935421  51.3569927  34.2421389
  59.8010588  51.5247631  34.2657113  59.9602795  52.1271515  35.1478577
  60.8516693  51.3482666  33.3782268  61.8202257  51.6247559  33.7679172
  62.0170879  48.0421686  32.2290826  61.7876148  47.8266382  33.4129333
  61.7137527  47.1682310  31.2802982  61.9245243  47.4072695  30.3218961
  61.2302876  45.8356380  31.5633345  60.2349520  46.0089922  31.9724202
  60.9853506  45.1128149  30.2560568  61.8748474  44.9923229  29.6376944
  60.6437206  44.1017103  30.4775548  59.6053171  45.9599972  29.3322277
  60.3099203  47.0796585  29.1457081  61.9842339  45.1108837  32.5645781
  61.4134741  44.4554567  33.3987880  63.3094072  45.1298952  32.5303435
  63.6483955  45.7080793  31.7747664  64.2910290  44.6004200  33.4886146
  63.9090204  43.5804605  33.5316634  65.7747555  44.7047663  32.9816675
  65.8904600  44.1242886  32.0663738  65.9139585  45.7629442  32.7603579
  66.8838692  44.1802168  33.9228845  67.0313358  42.9342413  33.9151454
  67.7516365  45.0087595  34.3704438  64.0956306  45.1382828  34.9352860
  64.2365789  44.3937874  35.9150720  63.6871338  46.4234543  35.0992513
  63.5703802  46.9676352  34.2564344  63.1502199  47.0248699  36.3539624
  63.8371277  46.7246437  37.1452403  63.1353426  48.5614443  36.1701250
  64.0608454  48.9937305  35.7897663  62.3578262  48.7962484  35.4431891
  62.8639269  49.2081261  37.4080729  62.6314259  50.1090860  37.1718121
  61.8544722  46.4485550  36.7443371  61.6465521  46.1284065  37.9117227
  60.8349848  46.3398600  35.8702183  60.9530497  46.7463779  34.9532080
  59.5873594  45.6064081  36.1586523  59.1157722  46.0205364  37.0498300
  58.6063623  45.6670332  34.9467373  59.0923452  45.0056839  34.2294216
  57.2007322  45.0615454  35.2815437  56.5606546  45.8593798  35.6581903
  56.7654181  44.6084595  34.3908572  57.3789120  44.2378139  35.9727883
  58.3605909  47.1721029  34.4310737  58.0757761  47.8194380  35.2604961
  59.3388367  47.5440216  34.1264081  57.4696827  47.1700382  33.2486081
  57.7442265  46.4398050  32.4873710  56.4389849  46.9144344  33.4944320
  57.3991442  48.2154608  32.9482460  59.9349499  44.1602039  36.5373254
  59.4139814  43.6541605  37.5200081  60.8724022  43.4975767  35.9012818
  61.2220192  43.8980436  35.0425076  61.3268328  42.1913385  36.3238597
  60.4687119  41.5221167  36.3861275  62.3698378  41.5562439  35.3241658
  62.0246840  41.8304777  34.3272877  63.3379030  42.0149994  35.5253839
  62.6053858  40.0574684  35.4501796  63.1026745  39.9286294  36.4115357
  61.4491224  39.0776849  35.2855062  61.0249424  39.1923380  34.2879963
  61.7328405  38.0364227  35.4384065  60.6088352  39.3803573  35.9103346
  63.4754181  39.6490407  34.2362118  64.3388033  40.3091288  34.1527605
  63.7618113  38.5993266  34.3008518  62.9062128  39.8611212  33.3311510
  61.8951130  42.1806812  37.7649379  61.4045715  41.3712168  38.5491323
  62.8806686  42.9849529  38.0796695  63.3423376  43.5615110  37.3907995
  63.4067535  42.9634523  39.4506621  63.4812307  41.9130135  39.7319627
  64.8577499  43.4621954  39.4301820  65.3206921  43.0697489  40.3355932
  65.4289722  42.9572439  38.6511874  64.9039078  44.9731922  39.1987896
  64.8074293  45.1793242  38.1328177  64.0717030  45.3830242  39.7711325
  66.2459898  45.5661154  39.6890116  66.1584139  46.6355324  39.4972229
  66.3464928  45.3908062  40.7601166  67.4092007  45.0467396  38.8895297
  67.8910828  44.2268896  39.2297482  67.6499796  45.3427505  37.6658154
  67.2057772  46.4545298  37.1243668  66.5128088  47.0708466  37.5244427
  67.7332258  46.7701197  36.3229322  68.5077190  44.7046423  36.9757986
  68.9436769  43.8526583  37.2985435  68.4504128  44.7995615  35.9719014
  62.5119495  43.5385180  40.5812311  62.6862288  43.3154535  41.7565918
  61.5047264  44.3929815  40.2456760  61.3287020  44.5413351  39.2622614
  60.4461288  44.7006559  41.2186241  60.9206581  44.8826838  42.1828842
  59.7288895  45.9887123  40.8149767  60.5246830  46.7059565  40.6140423
  59.2501163  45.7380438  39.8683810  58.6488724  46.6560078  41.6711187
  58.4030294  47.6527882  41.3049364  57.7869177  46.0104322  41.5027094
  58.9934874  46.5792608  43.1401539  60.0164175  47.0951843  43.5332012
  58.0839872  46.0722208  43.8938427  59.4320202  43.5202122  41.5247822
  59.1509819  43.2154369  42.7111912  59.0134430  42.7305889  40.5129766
  59.3358469  43.0374956  39.6063542  58.2721806  41.4774990  40.6613016
  57.4141312  41.7639160  41.2694359  57.8609324  40.8476639  39.3254018
  58.7702131  40.6045151  38.7756896  57.7245474  39.7854686  39.5285058
  56.6914749  41.4735889  38.4795666  55.8340597  41.6128063  39.1380215
  57.0061588  42.4378109  38.0803895  56.1516237  40.4041290  37.1627998
  57.5880480  40.4527664  36.0896993  57.6612568  41.3676214  35.5016708
  58.5084915  40.5109453  36.6706538  57.6024961  39.5783949  35.4390287
  59.0196943  40.4047489  41.4722633  58.3737135  39.7329617  42.2913218
  60.3437710  40.1746941  41.2341356  60.7579470  40.7151222  40.4881477
  61.2060022  39.3536782  42.0498180  60.8007622  38.3420253  42.0707130
  62.6146173  39.3592286  41.4530706  62.6646137  40.2618647  40.8441019
  63.4051847  39.4589281  42.1968222  62.9934406  38.2177901  40.5086040
  63.1899834  37.3258638  41.1035347  61.7483902  37.9397774  39.5983505
  60.8363724  37.5602436  40.0590944  61.4754295  38.9146137  39.1942596
  62.0466423  37.3014998  38.7666368  64.2281151  38.5935569  39.6778846
  65.0711012  38.9780784  40.2520180  64.4904423  37.7652287  39.0197372
  63.9190960  39.3982553  39.0107536  61.3492155  39.7969747  43.4351063
  61.9125414  39.0780187  44.2977715  60.9945154  41.0678148  43.7908268
  60.4359818  41.6540670  43.1871271  61.1956882  41.5478086  45.1295090
  62.1684885  41.1748552  45.4499292  61.2234497  43.0465364  45.0843906
  61.7640829  43.3909893  45.9659624  61.8715048  43.3893728  44.2777967
  59.9340534  43.6000443  45.1260471  59.5025921  43.5198498  44.2722273
  60.2142620  40.9344816  46.1747313  59.2507076  40.2575254  45.8952713
  60.5204821  41.1574078  47.4619150  61.4264822  41.5795469  47.6070547
  59.9526024  40.3562260  48.5688019  60.0125265  39.3283677  48.2110119
  60.6969690  40.5650568  49.8536301  61.7747450  40.5036163  49.7028780
  60.6190777  41.5880013  50.2218962  60.3615999  39.5770812  50.9575939
  60.7446957  39.9581528  51.9042349  59.2733431  39.5492148  51.0125732
  60.9144449  38.1530213  50.7023239  60.6487846  37.7711630  49.7165728
  62.0026064  38.1747770  50.7616949  60.4381037  37.1046925  51.6989040
  60.7663202  37.4561882  52.6770782  59.3627977  37.0718694  51.5235806
  60.8626604  35.6454730  51.4343214  60.3662539  35.0293016  52.0620298
  60.7019663  35.3065586  50.4965496  61.8389893  35.5659008  51.6803932
  58.4782934  40.5782843  48.6845398  57.7229500  39.6929622  48.9870739
  58.0304956  41.8025541  48.4126806  58.7096310  42.4928331  48.1256485
  56.6800976  42.2590113  48.6626911  56.5222597  41.9403267  49.6930456
  56.6711521  43.7730074  48.4898949  55.7815886  44.2793751  48.8645506
  57.5804234  44.0943909  48.9978695  56.7711449  44.2572975  47.0685244
  57.5877047  43.7381649  46.5667057  55.8113050  44.1696739  46.5594721
  56.9225931  45.7655239  46.8215895  56.7833662  46.0580063  45.7808352
  56.1445761  46.2687445  47.3956680  58.2138062  46.3348961  47.2933483
  58.1462765  47.4118805  47.1395636  58.4100866  46.0657072  48.3311892
  59.2908573  45.9038401  46.3944817  59.5774698  44.9443197  46.5259171
  59.0025997  46.1248350  45.4520559  60.0750971  46.5110207  46.5852737
  55.5897570  41.5318537  47.7690268  54.4158125  41.7607069  48.0045509
  56.0067511  40.6875515  46.8210793  57.0002747  40.5108786  46.7786407
  55.0145769  39.9455929  46.0413933  53.9917564  40.2509785  46.2620354
  55.3222895  40.1643705  44.5251417  56.2520742  39.6061349  44.4157457
  54.6065760  39.5821476  43.9447355  55.4878664  41.6311073  44.1359854
  54.4298840  42.4865150  43.8389206  54.9235296  43.7265396  43.6053419
  54.3034172  44.5425320  43.2647133  56.3075638  43.7480021  43.8267469
  56.9270945  44.5455599  43.8405704  56.6076851  42.4520063  44.1230774
  57.5908232  42.1402979  44.4435358  55.0643444  38.4490061  46.4407396
  54.0953016  37.7848530  46.0222292  55.9220076  37.9516244  47.3416138
  56.6723871  38.5457015  47.6642609  56.0273933  36.4582777  47.4567032
  56.1992455  36.0075188  46.4792681  57.0995235  36.1403847  48.4330797
  56.7766428  36.6803908  49.3231678  57.1652269  35.0833106  48.6907196
  58.0804539  36.3618875  48.0125904  54.7134209  35.7789564  47.8941870
  54.5419836  34.5717311  47.6626110  53.7594700  36.4119315  48.4968328
  53.8744211  37.3800039  48.7608814  52.4016142  35.9520197  48.9091682
  52.4018335  35.0208473  49.4757509  51.9230413  37.1676779  49.7382307
  51.7110491  38.1098938  49.2328691  51.1342812  36.7419243  50.3584623
  52.5988579  37.3279786  50.5782795  51.5264130  35.6624794  47.6634216
  50.6003380  34.8521543  47.7296162  51.7624569  36.3271022  46.5121126
  52.6014090  36.8860769  46.4503717  51.1182404  36.0081100  45.2690697
  50.5952263  35.0585747  45.3828096  50.0069952  37.0936918  45.0575733
  49.4567204  36.8742394  44.1426182  49.2275238  36.9964170  45.8132553
  50.5411816  38.5192132  45.1267385  50.4340076  39.3054605  46.3258982
  50.0794029  38.8879490  47.2566700  51.0414934  40.6020355  46.3887024
  51.1241055  41.1843634  47.2945023  51.6040039  41.1959743  45.2936745
  52.1644115  42.4799538  45.3867102  52.8474522  42.6469660  44.7331285
  51.6039515  40.4399967  44.0766716  52.0310068  40.9396076  43.2196808
  51.1002445  39.1411161  43.9771318  51.2442112  38.5770702  43.0674458
  52.0697355  35.8246136  44.0799999  51.5816498  35.5267644  43.0014849
  53.3859777  35.8643365  44.2230606  53.7805939  36.2086272  45.0866890
  54.3810844  35.5039763  43.2143497  53.9000654  35.3512692  42.2482204
  55.3577757  36.6298151  43.1475019  54.7963667  37.5616264  43.0793333
  56.1175346  36.5911222  43.9281273  55.8028841  36.5225005  42.1583271
  55.1309538  34.1909361  43.3990622  55.7745790  33.6863637  42.4778414
  55.0095654  33.5760665  44.5690203  54.3918085  33.9928579  45.2507544
  55.5714083  32.1906233  44.8722649  56.6605711  32.2279596  44.8515558
  55.4226828  31.6652036  46.2823534  56.1673546  30.8731890  46.3615799
  55.6884336  32.4366140  47.0051241  54.1570711  31.0060811  46.7168140
  53.1372166  31.6625905  47.2416639  53.1968784  32.7080607  47.5059319
  52.1627331  30.7371759  47.5326300  51.3273859  31.0150814  48.0276775
  52.4670315  29.4635677  47.1090746  51.8344259  28.2037139  47.0909786
  50.8511829  28.1460476  47.5340462  52.5856876  27.1028829  46.6109657
  52.0872498  26.1453724  46.6446114  53.8615417  27.2524619  46.0713482
  54.4842291  26.4350367  45.7389593  54.5495749  28.5122848  46.0922050
  55.5537605  28.6028910  45.7051611  53.8117313  29.6263433  46.5255165
  55.2995539  31.0329151  43.8851023  56.2347078  30.2704477  43.6347008
  54.0807295  30.9888530  43.2075119  52.7453566  31.5961528  43.6330462
  52.6533270  32.4884868  43.0138779  52.8011036  32.0344663  44.6294785
  51.6633368  30.5030656  43.4404182  50.7235718  31.0172272  43.2389832
  51.5116835  29.9080467  44.3410063  52.2847080  29.7293186  42.2276211
  51.7868948  30.1962304  41.3777494  51.9251728  28.7033248  42.3061466
  53.8423014  29.8782468  42.2978067  54.3614960  28.9701366  42.6042032
  54.3603325  30.1818967  40.9185171  54.2407846  29.4125795  40.0048590
  55.0356150  31.3120222  40.6388712  55.2541447  31.9389081  41.4000273
  55.5669117  31.7388058  39.3243480  55.4134607  30.9245801  38.6161184
  54.5987129  32.7872634  38.7179542  54.7671843  33.8134933  39.0444088
  54.8501110  32.7425218  37.6582861  53.1451750  32.5203991  38.9624548
  52.4775648  31.6082048  38.1543589  53.0509233  31.1902285  37.3401356
  51.0770798  31.3508153  38.3526659  50.4700756  30.8089185  37.6425266
  50.3958273  31.9620633  39.4075513  49.3247271  31.9087410  39.5352697
  51.0896778  32.8213716  40.2290249  50.4918051  33.3171463  40.9794664
  52.4281502  33.1473684  39.9732399  52.8682184  33.8685584  40.6460238
  57.0546913  32.0837760  39.3541360  57.5688648  32.1916461  38.2457256
  57.7061415  32.1923780  40.5079174  57.1748257  32.0130134  41.3479376
  59.1218281  32.4833393  40.5813122  59.4007492  33.3226871  39.9442792
  59.6273851  32.5975370  42.0133543  59.3425179  31.7061520  42.5722647
  60.7140636  32.5140023  41.9973707  59.1710472  33.9107466  42.7201700
  59.1639853  35.1631284  42.1212244  59.3383503  35.2455211  41.0585833
  58.8195372  36.2952518  42.9558849  58.7611580  37.2458744  42.4466562
  58.5626221  36.2201691  44.3542480  58.1912756  37.4232340  44.9675989
  58.4811831  38.2320142  44.5393133  58.6085892  34.9094439  44.8974180
  58.1984901  34.7600102  45.8852863  58.9349270  33.8004303  44.0764236
  58.8236618  32.8322601  44.5419025  60.0051546  31.3595319  39.9836016
  61.1859274  31.5486503  39.7498703  59.4153690  30.1400137  39.7941566
  58.4079933  30.1045656  39.8576832  60.1444530  28.9310694  39.3515992
  60.9669304  29.3078160  38.7435675  60.6820583  28.1789279  40.5602646
  59.8587465  27.6800060  41.0714817  61.4942026  27.5064802  40.2839661
  61.4844847  28.9766288  41.7578840  62.3565817  29.4407225  41.2972641
  60.8808565  29.7514009  42.2306013  61.9896126  27.9584646  42.7719545
  61.1998987  27.6442766  43.4544086  62.3506165  27.0509672  42.2879839
  63.0606365  28.5822201  43.6758947  63.7876844  29.2083383  43.1587172
  62.5404215  29.2807913  44.3312454  63.8119173  27.5816441  44.5180035
  63.3133459  26.8912864  45.0610876  64.4073963  27.0836830  43.8718319
  64.3498325  28.0377936  45.2409697  59.2637444  27.9643488  38.4589386
  58.0472898  28.2020044  38.3022332  59.8661423  26.8852401  37.8686666
  61.3364410  26.7033315  37.6409149  61.7154408  26.1284900  38.4859109
  61.8058395  27.6702166  37.4595237  61.4578581  25.8609581  36.3904929
  62.3406935  25.2226138  36.4254546  61.5850735  26.5190959  35.5309749
  60.1282215  25.0384235  36.3492775  60.3259468  24.2555809  37.0815086
  59.7530603  24.8547006  35.3425002  59.1014099  25.9413910  37.0696545
  58.6934614  26.5591216  36.2696004  58.0360937  25.1992249  37.9126477
  58.2629728  24.8613381  39.0774536  56.9910955  24.6809530  37.3028064
  56.9361162  24.8730755  36.3127732  56.0348701  23.7512398  37.9055595
  55.7887030  24.2005706  38.8676429  54.7712231  23.7973642  37.0700812
  54.9919224  23.8754654  36.0055184  53.8709450  22.5724220  37.1613598
  54.3372154  21.6609025  36.7874289  53.6892891  22.4487281  38.2289743
  52.9474068  22.6999521  36.5966344  53.9633942  25.0960898  37.4299645
  54.4774914  26.0159564  37.1513081  52.9945803  25.0996399  36.9304729
  53.8373137  25.1384139  38.5118222  56.5092373  22.2691011  38.0696249
  57.0089006  21.6387486  37.1637321  56.2089729  21.6743088  39.1765046
  55.7836866  22.2153974  39.9157286  56.7662668  20.4027939  39.6524143
  57.6550341  20.0860167  39.1066670  57.0802450  20.6346035  41.1537266
  56.1018896  20.8855486  41.5635490  57.4313354  19.6904373  41.5701151
  58.1956911  21.6559052  41.4063120  58.0756187  22.4209404  42.3790312
  59.1488266  21.7359328  40.5649090  55.7328176  19.3902254  39.3997622
  54.9618912  19.0813649  40.3222418  55.6907225  18.9120936  38.1677461
  56.1709785  19.2912817  37.3642087  54.5126390  18.1341803  37.7429724
  53.5651684  18.6125982  37.9909873  54.5022964  17.9106975  36.2029433
  55.4831123  17.5334704  35.9134722  53.7338066  17.2192430  35.8573747
  54.3957567  18.9269280  35.8234453  54.3079662  16.7926133  38.3784580
  53.1613350  16.3491178  38.5207057  55.3444529  16.2116027  38.9148140
  56.2458897  16.5924513  38.6648893  55.4429770  15.0761116  39.7546959
  54.7633886  14.3622065  39.2892909  56.8038702  14.3228912  39.7422147
  56.7190456  13.3502722  40.2268982  56.9636440  14.1330504  38.6808300
  57.9215813  15.2117336  40.3457069  57.6863527  15.3399074  41.4022779
  58.8456392  14.6389556  40.4241133  58.2175398  16.5250850  39.6234417
  58.4893656  17.5514293  40.2646589  58.0182505  16.5598142  38.3760118
  55.0395107  15.4972196  41.1909056  54.3120289  14.7215807  41.7812252
  55.5088282  16.5947580  41.8230343  56.2333822  17.0493841  41.2859678
  55.1577568  16.9721127  43.1892776  55.3380585  16.0483778  43.7390995
  55.9561491  18.0887091  43.7827444  55.6895876  18.9913154  43.2328844
  55.7689142  18.2521105  44.8440409  56.9737339  17.8462052  43.4764528
  53.6552429  17.1290123  43.4121275  53.0245256  16.7498362  44.4223166
  53.0439663  17.8745437  42.4781704  53.6110878  18.2436585  41.7283535
  51.7279720  18.5511482  42.5907564  51.4489460  18.7886608  43.6173201
  51.8007278  19.9144173  41.9260502  51.8150330  19.8367858  40.8389139
  50.8612204  20.4431510  42.0868731  52.9506254  20.8904696  42.3328924
  53.8522625  20.2837992  42.4171543  53.2501030  21.8788934  41.1864901
  53.6539412  21.4478016  40.2704191  52.3379755  22.4455786  40.9994411
  53.9489031  22.6488423  41.5135336  52.5297213  21.5791512  43.6310911
  53.3493519  22.2665071  43.8404751  51.6419458  22.1706557  43.4073162
  52.4734259  20.9205174  44.4977665  50.5847883  17.7116811  42.0612383
  49.3997765  18.1062949  42.0437765  50.9666634  16.4973354  41.6160393
  51.9002962  16.1449981  41.7718792  50.1917410  15.4058135  41.0005760
  50.8328438  14.6633995  40.5252695  49.4827175  14.6640337  42.1414757
  48.9188862  15.4331493  42.6693630  48.7158155  13.9870739  41.7650461
  50.4212236  13.8120019  43.0617332  51.2154627  14.5165443  43.3085489
  49.9137115  13.5036016  43.9757490  51.0952950  12.5838661  42.4477339
  51.1235332  12.3476088  41.2084246  51.6952372  11.7687452  43.1887150
  49.4404125  15.8239233  39.7431087  48.2326603  15.4970884  39.6384740
  50.0739717  16.4949238  38.7780714  51.0328102  16.7158687  39.0059042
  49.5318985  17.1709943  37.6057744  48.4482527  17.2298038  37.7075386
  50.0526047  18.5971940  37.4919677  51.1187220  18.5177231  37.2794080
  49.5045185  18.9703965  36.6268516  49.8412085  19.5065689  38.7504840
  50.2368021  18.9468658  39.5980358  50.6935835  20.7359457  38.5227013
  50.3156805  21.2112737  37.6175189  50.6364536  21.4357495  39.3564343
  51.7574024  20.5003524  38.5524535  48.3538771  19.9028921  38.9311218
  47.5654984  19.1510725  38.8947105  48.3698702  20.2423668  39.9667883
  48.1120777  20.7490563  38.2879734  49.7842407  16.3465834  36.3509870
  50.7637262  16.5484309  35.6491637  48.9562559  15.3350973  36.1083150
  48.1724310  15.1125562  36.7051339  49.1775036  14.2880583  35.0140738
  50.2335024  14.0497410  34.8868799  48.3738565  12.9954159  35.3523159
  47.3075199  13.2151330  35.2998424  48.4029055  12.3129177  34.5029330
  48.7141657  12.2842860  36.6085291  48.0532169  11.1476552  37.1206784
  48.7040091  10.9671497  38.3120990  48.4180593  10.2012777  39.0178418
  49.6649694  11.9544923  38.5452318  50.1452065  12.1036887  39.4211364
  49.7317648  12.7348256  37.4449515  50.4342651  13.5463071  37.3249936
  48.6811256  14.7426653  33.5912347  49.0370989  14.0987742  32.6245975
  47.9971027  15.8364916  33.4923983  47.7722645  16.3986969  34.3007755
  47.5143862  16.4021671  32.2539115  47.7630615  15.8115077  31.3722181
  45.9631014  16.4782500  32.2720265  45.6207943  16.8583620  31.3095093
  45.6086302  15.4635692  32.4533391  45.4919100  17.3906481  33.4077954
  46.2710524  17.5517237  34.3863082  44.3289948  17.9063880  33.4169745
  48.0775309  17.8233516  31.9157577  47.8698826  18.3764601  30.8303165
  48.9030504  18.4207368  32.7870679  49.1659117  17.9760373  33.6549664
  49.4631529  19.7684741  32.5865340  48.6349392  20.4629850  32.4457479
  50.2456617  20.0816059  33.9086843  49.6563530  19.8849607  34.8043108
  51.0318136  19.3273115  33.9419341  50.9391499  21.4326239  33.9499331
  52.3132133  21.5271902  33.4956741  52.8836203  20.6341791  33.2869577
  52.9064941  22.8331852  33.4553432  53.9287281  23.0339217  33.1704879
  52.2487593  23.9613700  34.0405488  52.7850866  25.2249241  34.0479016
  52.1500969  25.7653975  34.5235872  50.9484529  23.7799573  34.4952583
  50.5169392  24.6791935  34.9094701  50.2822447  22.5485587  34.3583059
  49.2719603  22.4977446  34.7366548  50.2212429  19.9220800  31.2551737
  50.1537037  20.9674311  30.6464767  51.1140919  18.9384830  31.0308695
  51.3024473  18.2463086  31.7418671  51.9704199  18.9963627  29.8029804
  52.2086000  20.0556135  29.7062421  53.2842541  18.1532991  29.8647141
  52.9491186  17.1490777  29.6052384  53.9546204  18.4781742  29.0689993
  54.0249014  18.1550467  31.2064338  54.5023489  16.9838202  31.7883086
  55.3535652  17.3658860  32.7486372  55.9221840  16.6654432  33.3423162
  55.4150248  18.6737466  32.8324080  55.7970715  19.2070949  33.6003137
  54.5833874  19.2173696  31.8417454  54.4850016  20.2701521  31.6218090
  51.2611866  18.6706460  28.5348988  51.6194153  19.1250873  27.4585915
  50.2105951  17.8310883  28.7006283  50.0709486  17.5007904  29.6448231
  49.3527079  17.5223589  27.6054573  50.0483036  17.2661281  26.8063331
  48.4770393  16.3341820  27.9918575  47.7805328  16.7335391  28.7290812
  47.9179907  16.1679876  27.0710206  49.0849781  15.0151491  28.5027432
  50.2617264  14.8369694  28.3061051  48.3295822  14.2439353  29.1008401
  48.5680437  18.7636745  27.0970511  48.0830002  18.7383914  25.9448171
  48.2750177  19.7519100  27.9528856  48.4372091  19.5873249  28.9360976
  47.3546362  20.8285379  27.7262354  46.7080021  20.6726146  26.8627262
  46.4356661  20.9249115  28.9490843  46.9826746  20.7962370  29.8830676
  45.6689501  22.2962737  28.9092040  46.2231445  23.1952882  28.6394882
  44.8454475  22.1612144  28.2079911  45.3173304  22.5738645  29.9028873
  45.3360462  19.7758722  28.8165951  44.8286963  19.8040557  27.8522778
  45.9381485  18.8687634  28.8687968  44.3568659  19.6961439  30.0258255
  43.8054562  20.6172562  30.2145219  43.6367989  18.8954902  29.8568320
  44.9313498  19.4664872  30.9232259  48.1987858  22.1030807  27.4586964
  48.1191683  22.6571822  26.3677382  49.1762924  22.3692417  28.3273435
  49.4673061  21.7943668  29.1051173  50.0137138  23.6089659  28.2263684
  49.5228863  24.3311286  27.5739360  50.3418303  24.1157007  29.6635652
  50.7846403  23.2588577  30.1713419  51.4288616  25.3278255  29.7627473
  52.2889662  25.1716781  29.1116428  50.8955050  26.1983848  29.3809533
  51.8152428  25.3872299  30.7802343  49.1068459  24.4175100  30.5080104
  48.5494900  23.4816909  30.5491781  49.4907522  24.7134519  31.4842939
  48.2072353  25.4786348  29.8486209  47.3190117  25.5362797  30.4777789
  48.6442089  26.4718819  29.9516869  47.9111195  25.2599597  28.8226581
  51.2894344  23.2331371  27.5098109  52.2284031  22.6866317  28.1037116
  51.3088655  23.4754753  26.1702728  50.6272602  24.0717173  25.7230377
  52.4797153  23.0026340  25.3721762  52.9132652  22.0968676  25.7961154
  52.0484304  22.5424790  23.9784193  51.6033554  23.4465241  23.5628343
  52.8806686  22.3440719  23.3030510  51.0899973  21.2689161  24.0077639
  51.6830778  20.3587914  24.0973949  50.3200817  21.4182973  24.7647381
  50.3039932  21.1816549  22.7135420  49.7325039  22.0805550  22.4822998
  51.0435677  21.1148453  21.9156241  49.4642210  19.8587024  22.9901385
  50.0472069  19.0296519  22.5890064  49.2763710  19.6687925  24.0469003
  48.1644392  19.9266958  22.2956681  47.6096630  19.0998352  22.4648643
  47.6735735  20.7680988  22.5624847  48.3143806  19.9291050  21.2968612
  53.6637020  24.0015221  25.3607392  54.7307825  23.8289666  24.7132730
  53.4540939  25.1497293  25.9615326  52.5565195  25.2995515  26.3997221
  54.2720413  26.3320565  25.9548664  55.1704264  26.0046864  25.4315758
  53.5403299  27.4821973  25.1456642  52.5362968  27.5755692  25.5595469
  53.9581728  28.4645629  25.3658175  53.5204506  27.3172522  23.6215615
  53.0701447  26.2326288  22.8816772  53.2395172  26.5987945  21.5938449
  52.7650738  26.0991764  20.7621670  53.8121223  27.7927852  21.4925289
  53.7560463  28.3801389  20.6727910  53.9224005  28.2842469  22.7883410
  54.3377256  29.2189026  23.1352186  54.6800327  26.7133570  27.3667049
  54.1213608  27.6353312  27.9253578  55.5374193  25.9735513  28.0847025
  56.2903452  24.8197460  27.6915169  56.6147709  24.8166847  26.6509223
  55.6806374  23.9293599  27.8450608  57.4893665  24.6838164  28.6618137
  58.3114290  25.3495789  28.3990002  57.8596640  23.6687899  28.8056779
  56.9835138  25.2261162  29.9676609  57.7321053  25.8583140  30.4451919
  56.5487957  24.4583082  30.6076503  55.9403133  26.2465525  29.4831896
  55.0965166  26.1530757  30.1668286  56.4323473  27.6261234  29.6452737
  57.1744823  28.1361508  28.8197160  56.2845039  28.2675934  30.7700801
  55.8454466  27.8454542  31.5757680  56.8899679  29.5881915  30.9825301
  57.9225636  29.4074225  30.6839275  56.2592459  30.6995940  30.1124048
  56.4699602  30.4220629  29.0796018  55.2052975  30.9158301  30.2871299
  56.9550419  32.0792079  30.3145313  56.6254759  32.8813410  29.6541762
  56.7940807  32.4892569  31.3115525  58.7680483  32.0852208  30.0218725
  58.9215755  31.5898037  28.3378196  58.6340475  30.5405164  28.2712793
  58.3357239  32.2376990  27.6858139  59.9678373  31.7013025  28.0532193
  56.8575001  30.0840187  32.4956441  55.8497334  30.0763512  33.1884813
  57.9725933  30.6468773  33.0345702  58.7877846  30.5953193  32.4405098
  58.0774403  31.1726379  34.4341421  57.0805073  31.5807724  34.6004176
  58.4472656  29.9644375  35.2885008  58.2173872  30.2601814  36.3121176
  57.8423834  29.0826607  35.0770807  59.9355078  29.5289135  35.1276827
  60.7344866  29.9957800  35.9707379  60.1991367  28.7949038  34.1564059
  59.1346931  32.3084474  34.5902562  60.0364494  32.4841189  33.7719679
  59.0983200  32.9293513  35.7526231  58.3781576  32.7795935  36.4447570
  59.9723530  34.1281581  35.9537005  59.8384953  34.7818732  35.0918198
  59.5295668  34.8980665  37.1973062  59.5857191  34.2318225  38.0581570
  60.2471828  35.6922698  37.4031425  58.1518984  35.6132030  37.1563554
  57.3429966  34.9312377  36.8942499  57.7753019  36.0329771  38.5491252
  57.8468609  35.2714157  39.3256593  58.4452534  36.8370104  38.8537526
  56.7363930  36.3622689  38.5306883  58.0644989  36.8465781  36.2925649
  57.0421457  37.2219920  36.3367486  58.8078308  37.5374746  36.6903424
  58.3473682  36.5366864  35.2865529  61.4999962  33.8723302  36.0251498
  62.2630978  34.8094296  35.7436943  61.9304466  32.5961685  36.2785053
  61.3136292  31.7975068  36.3207841  63.3948803  32.2346210  36.1097503
  64.0254307  33.0500078  36.4642215  63.7851477  31.0272288  36.9948387
  64.8689890  30.9718823  37.0964646  63.3595610  31.1886716  37.9852486
  63.2710409  29.7636580  36.4993358  62.3128080  29.8178720  36.4783049
  63.8500786  32.1254373  34.7230244  64.9254370  32.6150727  34.3091226
  62.9629946  31.6276431  33.8636613  62.0887899  31.3371944  34.2778015
  63.1280518  31.6334939  32.4425030  64.1156960  31.2618232  32.1695065
  61.9688702  30.7646155  31.7763114  60.9493256  31.0781360  32.0006704
  62.1057701  30.6906819  30.3021884  61.9544792  31.5991569  29.7191906
  63.1090593  30.3441572  30.0543165  61.4183092  29.9296665  29.9329352
  62.0996666  29.4672275  32.2999620  61.3929987  29.3592954  32.9407239
  63.0790186  33.0250287  31.8331456  63.9751434  33.4494805  31.0550547
  62.1255255  33.8230228  32.2961020  61.5187883  33.4514451  33.0129695
  62.0616674  35.2160001  31.9014478  62.0232487  35.2229786  30.8121467
  60.7471037  35.9023285  32.3864055  60.7579279  35.8216834  33.4733677
  60.6887007  37.4160600  32.0855331  59.8538733  37.8661680  32.6227164
  61.5903473  37.9291415  32.4200225  60.5428076  37.7372313  31.0541916
  59.4710398  35.3146124  31.7292261  59.3942451  34.2395616  31.8919230
  58.6067629  35.8177018  32.1628451  59.4241047  35.4046512  30.6439638
  63.3395338  35.9951186  32.2644234  63.8935995  36.6292930  31.3993764
  63.9510536  35.8073211  33.5101962  63.5597515  35.1128793  34.1304708
  65.2564669  36.4169884  33.7956190  65.2775574  37.4486160  33.4443355
  65.5345058  36.2552309  35.3226209  64.6860600  36.6693211  35.8673859
  65.6316137  35.2077436  35.6080008  66.8881226  36.9963622  35.6606460
  67.7053642  36.5477514  35.0958800  66.7403412  38.0716515  35.5605483
  67.1287632  36.7706537  37.1356058  66.3797188  37.2824717  37.7398229
  67.1810484  35.7122278  37.3907518  68.4456110  37.3155761  37.6742148
  68.4222174  37.4579287  38.7546253  69.2655134  36.6185546  37.5009632
  68.6902285  38.6353302  37.0650673  67.8933716  39.2494011  37.1547246
  69.3444061  39.0432119  37.7175927  69.0747643  38.6516762  36.1312747
  66.4046621  35.8355546  33.0134797  67.0902205  36.6059542  32.4000669
  66.5547943  34.4927311  32.8294301  65.8354235  33.8865376  33.1970429
  67.7156210  33.9931631  31.9821906  68.6380053  34.1572332  32.5393176
  67.6215887  32.5309968  31.9088817  67.3024225  32.1483254  32.8783131
  66.7444992  32.2156477  31.3437557  68.7362337  31.7546821  31.4406037
  68.4844637  30.6944060  31.4176226  68.9132023  32.1717262  30.4492092
  70.1041889  32.0198107  32.2037077  69.9326706  32.0603156  33.2793641
  70.8361340  31.2291837  32.0385718  70.7435799  33.2637453  31.7793894
  70.8437681  33.4073901  30.7846880  71.5571260  34.0220761  32.4449587
  72.3713398  34.8678493  31.8625498  72.6200151  34.6715975  30.9035158
  72.9146385  35.5208969  32.4088526  71.6938829  34.0548253  33.7662625
  71.1439705  33.4141397  34.3205357  72.5072289  34.5374703  34.1206956
  67.7166510  34.5765686  30.5857134  68.7565565  35.1064825  30.1963043
  66.5877819  34.6061206  29.9349976  65.8025312  34.1287947  30.3540993
  66.3968754  35.4156399  28.6810780  67.0378780  35.0253940  27.8905535
  64.8873281  35.3758025  28.2798553  64.2824697  35.5151296  29.1758657
  64.7033119  36.2391090  27.6403737  64.5730448  34.0676212  27.5955796
  65.3430223  33.9708471  26.8301606  64.6884298  33.2566667  28.3147025
  63.2285118  34.1442728  26.9413137  62.5382280  34.3685675  27.7545214
  63.2761765  34.9501181  26.2088943  62.8695250  32.8238511  26.2194037
  63.6354017  32.5971222  25.4776978  62.6778316  32.1002126  27.0116830
  61.5983105  33.0153656  25.5110264  61.6906309  33.7024403  24.7765088
  61.1494160  32.1547818  25.2317595  60.9930372  33.6270976  26.0397339
  66.7230368  36.8955636  28.7760687  67.3166275  37.4271536  27.8124714
  66.2809610  37.6038623  29.7874975  65.9882402  37.0811534  30.6006360
  66.5938568  39.0203381  30.0393867  66.3816595  39.5660877  29.1200233
  65.7887316  39.6354437  31.1711669  64.7494602  39.3387794  31.0297322
  66.0944128  39.2546010  32.1456528  65.9158802  41.1748266  31.3535094
  65.4974604  41.4769220  32.3135972  66.9752550  41.4216375  31.4235425
  65.2380991  42.1173334  29.9805617  63.4301805  41.8439007  30.0472951
  63.3337545  40.7582092  30.0562024  63.0017567  42.3270655  30.9254265
  63.0470181  42.3633909  29.1689920  68.1259251  39.2646122  30.2426314
  68.7694597  40.1288319  29.6127081  68.7182379  38.5689068  31.1941051
  68.0823088  37.9881430  31.7217541  70.1749611  38.5954714  31.5812850
  70.4406166  39.6098518  31.8788743  70.4337788  37.5436163  32.7215481
  69.9460459  36.5873861  32.5322127  71.5086508  37.3628592  32.7301836
  70.0758934  38.0504084  34.1504073  70.6353617  37.4754763  35.0883412
  69.2675400  38.9640903  34.3104720  71.0260582  38.1734729  30.3849697
  72.0893621  38.7861013  30.1491094  70.6296349  37.2265720  29.5780563
  69.8314810  36.6864920  29.8803186  71.1248398  36.8518186  28.3137441
  72.1772337  36.5809178  28.3985329  70.6053448  35.9090328  28.1423283
  70.7616806  37.7518010  27.1563220  71.2580156  37.4934649  26.0540795
  69.9608088  38.8272119  27.3539495  69.6723032  39.0544415  28.2948184
  69.5599508  39.8240852  26.3092470  68.7594509  40.4660749  26.6768813
  70.7578039  40.7393408  26.0809255  71.4598083  40.1333714  25.5081296
  70.3844261  41.6013145  25.5280304  71.5755653  41.2895966  27.2214222
  72.0066786  40.4516125  27.7691722  72.3268557  41.9116974  26.7349482
  70.7720470  42.1825361  28.1432152  70.4080009  43.0896521  27.6608157
  69.8625469  41.6689157  28.4548306  71.4453268  42.6309061  29.3986511
  72.3917532  42.9718065  29.3082952  70.9650421  42.6921701  30.5566812
  69.8632050  42.2597122  30.8995843  69.4776297  41.6414928  30.2001309
  69.4379473  42.3767948  31.8081832  71.5846300  43.3157253  31.5236568
  72.5121880  43.7001896  31.4144754  71.1383200  43.5948944  32.3856163
  68.9279127  39.2291021  25.0366354  69.1754723  39.5992517  23.8678551
  68.1186295  38.1572413  25.1745367  67.8666449  38.0370641  26.1451864
  67.6913357  37.1426463  24.1900396  68.4778357  37.0557594  23.4403920
  67.5463104  35.7369041  24.8211002  66.6367769  35.6663013  25.4176450
  67.3296309  35.1019073  23.9620709  68.7409973  35.3429532  25.7716441
  69.6696043  35.3702879  25.2015209  68.7377119  36.1108255  26.5452456
  68.6919451  33.9348388  26.2523627  67.7844334  33.1564760  25.8136272
  69.6363115  33.4994960  26.9098806  66.3492584  37.5344872  23.5230517
  65.9817219  36.9568992  22.4916720  65.5942106  38.5173368  24.0207052
  65.8674097  38.7591743  24.9625063  64.3407536  39.0583944  23.5339689
  63.6792040  38.2169390  23.3280420  63.6904812  39.9459505  24.5593858
  64.4275236  40.5614662  25.0751400  62.9354048  40.5947351  24.1154957
  63.0400896  39.0784883  25.6190848  62.0762300  38.1577516  25.2305388
  61.8558979  38.0898070  24.1754389  61.3979578  37.3361278  26.1792278
  60.5806875  36.7480564  25.7885265  61.7875338  37.4238563  27.5479555
  61.1222029  36.6779280  28.4962606  60.6050205  36.0134792  28.0351448
  62.7513027  38.3476710  28.0118871  62.9109669  38.5111856  29.0674281
  63.3241844  39.1994619  27.0088863  64.0467882  39.9210858  27.3603225
  64.7335339  39.9673748  22.3696494  65.7756376  40.6484890  22.3281717
  63.8179541  40.0267220  21.3833356  62.6731205  39.1677189  21.2683320
  62.0515013  39.4525743  22.1171856  62.9047728  38.1038451  21.2172842
  61.8132353  39.6659684  20.0978684  60.9116602  40.2131748  20.3732443
  61.4848518  38.8803792  19.4173443  62.7908802  40.6390429  19.3909621
  62.2656202  41.4557123  18.8957345  63.2508516  40.0256872  18.6161602
  63.7842512  41.0857058  20.4046059  64.7842312  41.1147213  19.9718273
  63.3242464  42.4943256  20.9663057  64.0663338  43.4757614  20.6752801
  62.2676277  42.5886774  21.7448759  61.6426277  41.7976999  21.8067360
  61.6710567  43.8755512  22.1772337  62.3473883  44.7040367  22.3876905
  60.8572102  44.5142126  21.0055399  60.3997803  45.3892183  21.4672995
  61.5430593  44.8514175  20.2283621  59.7431850  43.6924791  20.3568029
  59.1969299  44.1673803  19.3860543  59.4164181  42.6372528  20.8518410
  60.8865786  43.7576580  23.5288596  60.6810904  42.6241684  24.0208435
  60.5066824  44.8678017  24.0977502  60.9892082  45.7107973  23.8209414
  59.5910358  44.9474859  25.2531195  59.9060583  44.4723082  26.1821342
  59.5490265  46.4006758  25.5719233  60.5244112  46.6799688  25.9703183
  59.3664074  47.0337105  24.7035789  58.8492060  46.5535259  26.3935065
  58.2655478  44.1866684  25.0289249  57.7064991  43.6249590  25.9700465
  57.7693605  44.2332268  23.7895417  58.3575392  44.5960283  23.0529833
  56.5572691  43.4772539  23.4311199  55.8087063  43.8058901  24.1520596
  56.1478281  43.8127470  21.9981503  56.7760515  43.4480047  21.1855030
  55.1943779  43.2872343  21.9445586  55.9697914  45.2440214  21.6335607
  56.9339752  45.6892014  21.3880634  55.3378201  45.3453922  20.7512736
  55.2759647  46.0964918  22.7031517  54.1355324  45.9345675  23.1067967
  55.9675980  46.9955730  23.3746266  55.5389547  47.5874233  24.0718222
  56.8788671  47.1395969  22.9635930  56.8977404  41.9062376  23.5093760
  56.0798931  41.1359406  24.0214610  58.0855799  41.4770174  23.0741453
  58.7398195  42.1710062  22.7417994  58.5542107  40.0806093  23.1411266
  57.8758717  39.4174886  22.6042509  59.5525026  40.0169897  22.7081561
  58.6275053  39.5530653  24.6136189  58.1725788  38.3895469  24.9415374
  59.1220713  40.3264618  25.5994225  59.3722343  41.2481785  25.2708411
  59.0987062  40.0436020  27.0556474  59.5393276  39.0676284  27.2591972
  59.8158884  41.2541294  27.6837492  60.8579922  41.2373447  27.3646283
  59.3443871  42.1248436  27.2280622  59.7049332  41.4690638  29.2237163
  60.3745651  40.5866480  30.0699854  60.9604836  39.7876000  29.6403098
  60.3549433  40.7837439  31.4615607  61.0289431  40.1568508  32.0264864
  59.7069263  41.8902683  32.0285797  59.8718691  42.2359276  33.0383897
  58.9545393  42.7501822  31.1774850  58.4642506  43.6308765  31.5652966
  58.9627838  42.5092983  29.7558928  58.4044552  43.2063437  29.1486049
  57.6454163  39.8916030  27.5963402  57.2398472  39.0248156  28.3279181
  56.7952204  40.8018446  27.1667314  57.2018528  41.5550900  26.6306615
  55.4330587  40.8844757  27.5453281  55.4087400  40.8844328  28.6350560
  54.9001551  42.2701979  27.0678616  54.8956871  42.4635220  25.9951496
  53.9221239  42.3423052  27.5436354  55.5297804  43.0188799  27.5486302
  54.5904303  39.7517467  26.9257259  53.7436628  39.2156434  27.5782371
  54.9333382  39.3261790  25.6757092  55.5142450  39.9186492  25.0998354
  54.4422340  38.0432558  25.1592612  53.3556652  38.1257224  25.1852059
  54.8853302  37.9801869  23.6925483  55.9563446  37.8246069  23.5628748
  54.4466543  37.1116853  23.2012558  54.6723890  38.8551259  23.0783534
  54.7147274  36.8132496  25.9530473  53.9605188  35.8702707  25.8122015
  55.8693409  36.7346835  26.6499019  56.3895845  37.5398445  26.9679618
  56.2071800  35.5613279  27.5007796  55.8816385  34.6255422  27.0464373
  57.7402925  35.4874802  27.9351068  58.0315638  36.5369511  27.9783797
  57.8038549  35.0203276  28.9178729  58.5529757  34.7442818  26.9639730
  57.9952478  34.1440344  26.0138679  59.8211813  34.7015977  27.1242213
  55.3101873  35.7294607  28.7376142  54.6704292  34.7543836  29.1769004
  55.1564360  36.9034934  29.3051124  55.7440805  37.6219821  28.9069271
  54.4393492  37.1850967  30.5527282  54.6574211  36.3088489  31.1632490
  54.9782896  38.3754706  31.3572860  54.7028399  39.2505169  30.7686257
  54.1687346  38.5826969  32.6316071  53.1532574  38.9616632  32.5163841
  54.1880798  37.6946592  33.2633638  54.6067333  39.4218302  33.1720877
  56.4276457  38.2051563  31.6031432  56.6539335  37.1760464  31.8821216
  56.9807434  38.4027481  30.6849122  56.7208147  38.9473796  32.3456120
  52.9629469  37.1615148  30.3708005  52.3489571  36.6765404  31.3378549
  52.3702526  37.5397706  29.1951561  52.9304457  37.8843760  28.4286499
  50.8615494  37.3217297  28.9693308  50.3971338  37.7436614  29.8606157
  50.3172779  38.0830550  27.7545643  50.9008980  37.9695058  26.8410015
  49.3030262  37.7482629  27.5370479  50.0133467  39.5741510  28.0854797
  49.4826031  40.0283575  27.2487545  49.3438578  39.5517135  28.9453530
  51.1181831  40.5908298  28.4429979  51.5216351  40.2717018  29.4039798
  51.9080496  40.5390930  27.6936412  50.5707026  42.0210934  28.5730124
  50.1729965  42.2296286  29.4776893  50.7050753  43.0469036  27.7567911
  50.2279186  44.1961002  28.0980372  49.6310329  44.2940378  28.9068842
  50.4067039  44.9824762  27.4899721  51.2263727  42.9660463  26.6000056
  51.6649866  42.0757675  26.4126015  51.3679361  43.7923670  26.0367560
  50.5109358  35.8526063  28.8543844  49.4885588  35.4009938  29.3382454
  51.3564539  35.1159525  28.0482244  52.1102285  35.6109643  27.5933814
  51.4161444  33.7243319  27.9889202  50.4856873  33.2776976  27.6383948
  52.4118042  33.4315777  26.8863988  52.0824957  33.6641574  25.8736992
  53.3760786  33.8828731  27.1200752  52.7246666  31.9348502  27.0281291
  52.8421497  31.6121268  28.0626106  51.7152071  31.0054445  26.3793993
  50.7170677  31.0608959  26.8138361  51.6351891  31.1075902  25.2971506
  52.0347261  29.9824619  26.5781736  54.0634394  31.5153646  26.2861776
  54.0833473  31.8086576  25.2365685  54.8577261  31.9240069  26.9108534
  54.0613508  30.4255652  26.2653899  51.5431023  33.0773473  29.4185591
  50.7370329  32.2320008  29.6979141  52.4756622  33.5106874  30.2604032
  52.9509687  34.3533516  29.9704051  52.7644873  32.9818892  31.6494870
  53.0899143  31.9502497  31.5156317  53.8622284  33.7368369  32.3770261
  54.7541285  33.7292004  31.7504835  53.6145926  34.7781420  32.5830889
  54.1385174  33.0075622  33.7394524  53.2165098  32.9380131  34.3166590
  54.5203876  32.0235753  33.4673381  55.4290056  33.8119078  34.8325706
  54.4590902  35.1515269  35.5111170  54.2529297  34.9650431  36.5650749
  54.9835110  36.1031651  35.5975437  53.6359072  35.3690481  34.8305655
  51.4564276  32.9637337  32.4653983  51.1562300  31.8534565  32.9841065
  50.7308102  34.0708256  32.4976563  51.0890293  34.9367809  32.1209502
  49.4391775  34.1397262  33.1633639  49.4565010  33.5959530  34.1078782
  48.9767122  35.5182171  33.4859204  48.9782381  36.0221767  32.5194192
  47.9620981  35.5323958  33.8839865  49.8630142  36.3809013  34.3036485
  50.1255131  36.0018778  35.6264329  49.4944668  35.2260327  36.0341787
  51.0247087  36.7535663  36.4023256  51.2090349  36.4468241  37.4213147
  51.7041302  37.8447890  35.8797503  52.4684763  38.3666444  36.4363813
  51.4300060  38.2894039  34.5185733  51.8792534  39.1622400  34.0683079
  50.4991150  37.5451803  33.7357020  50.3024006  37.8543639  32.7197742
  48.3484745  33.3376288  32.4273109  47.4614477  32.7187204  33.0395460
  48.2892752  33.3324003  31.0823941  49.0522528  33.7777925  30.5929112
  47.2629309  32.7581859  30.2858305  46.3238955  33.1922007  30.6292677
  47.4365091  32.9616642  28.7413502  47.1233702  33.9564705  28.4244871
  48.4680986  32.8400230  28.4110045  46.6064978  32.0765495  28.0629063
  45.6799030  32.2924280  28.1910181  47.0803738  31.2791634  30.5744863
  46.0294771  30.7926250  30.8387399  48.2328844  30.5871010  30.5635810
  49.0155840  31.0401797  30.1139116  48.3995247  29.2648435  31.0055614
  47.9308271  28.5827208  30.2962446  49.9226332  28.9448667  31.0512495
  50.4425144  29.6796989  31.6659427  50.0564289  27.9603386  31.4994645
  50.5237055  28.9853430  29.6778488  49.9441147  29.0763974  28.6382985
  51.8521500  28.6882257  29.5987797  52.2477579  28.6168838  28.6722207
  52.2892618  28.3820510  30.4562712  47.8451633  28.9099574  32.3713589
  47.0410824  28.0027437  32.4173188  48.2401562  29.5839858  33.4371638
  48.9280224  30.2997112  33.2509279  47.6030922  29.4784021  34.7441506
  47.7877808  28.4948564  35.1761556  48.1051540  30.4848433  35.8250523
  49.1489124  30.4452109  36.1366606  47.9543781  31.4964318  35.4481506
  47.1603823  30.2594161  37.3233271  47.7998018  29.1442299  37.6871991
  46.0463381  29.6936011  34.6238923  45.3189754  28.7776089  35.0671816
  45.5966759  30.6099534  33.7677932  46.2279749  31.3060856  33.3977056
  44.1569376  30.8252144  33.5552263  43.6900902  30.9585810  34.5311165
  43.8824558  32.1940112  32.8255463  44.1529608  32.2028780  31.7696834
  42.8116894  32.3426867  32.6860666  44.3988657  33.5128498  33.4045959
  44.4464540  33.6603689  34.8474360  44.2096519  32.8210473  35.4845095
  44.7442770  34.8987007  35.4229522  44.9342823  35.0666595  36.4727569
  45.0793934  35.9887528  34.6181536  45.4727840  37.2406578  35.0437617
  45.7572746  37.7711892  34.2959619  45.1620865  35.7697248  33.2100201
  45.4670858  36.6247487  32.6249480  44.7425938  34.6193123  32.6100087
  44.7436380  34.4247770  31.5476727  43.3909750  29.7087908  32.8590655
  42.2468710  29.3034148  33.1434250  44.0653229  29.1429257  31.8502235
  44.9503994  29.5874953  31.6524863  43.5838366  28.0531621  30.9898925
  42.5729179  28.3388519  30.6991506  44.5817995  27.9555225  29.7998595
  44.6787691  28.9528966  29.3709707  45.5392551  27.6568007  30.2266479
  44.1666126  26.9054627  28.8172936  44.1263342  25.9265375  29.2949843
  43.1677771  27.1284842  28.4422112  45.0076675  26.6847587  27.5814939
  45.1330519  27.6981068  27.2000432  45.9934568  26.2888861  27.8256321
  44.3417978  25.7040763  26.6427708  44.2095280  24.7281671  27.1098924
  43.3328533  26.0974979  26.5188384  45.1090050  25.5946183  25.3502536
  46.0770082  25.3762245  25.5383468  44.8545837  24.7995591  24.7817016
  45.0620890  26.3784075  24.7149777  43.4547853  26.7010903  31.6420603
  42.5339365  25.9962273  31.2756634  44.3814039  26.3435578  32.4492693
  45.1244736  27.0127320  32.5912309  44.5016193  24.9691415  33.0451369
  44.1832018  24.2716503  32.2704029  45.9751749  24.8101211  33.3518434
  46.5430355  24.9054599  32.4263453  46.3231039  25.5356407  34.0871429
  46.3089466  23.4820843  33.9696145  46.3083220  22.3067021  33.1831145
  46.1138010  22.3007011  32.1207929  46.4032698  21.0638404  33.8039517
  46.4515495  20.1100564  33.2996058  46.5699482  20.9425497  35.1768064
  46.8684673  19.7169578  35.6709433  46.6894770  18.9627743  35.1045775
  46.6070843  22.1069837  35.9935427  46.8574858  22.0295572  37.0412564
  46.3494158  23.3809662  35.3747320  46.2128258  24.2616606  35.9847498
  43.6433744  24.7275186  34.2550087  43.3585787  23.5659552  34.5839095
  43.1334543  25.8426833  34.7807288  43.1951952  26.6753745  34.2124653
  42.5601768  25.8939290  36.1495829  42.6648617  24.9088311  36.6042495
  43.3354092  26.9642878  36.8886256  43.5273981  27.7916002  36.2054038
  42.7192926  27.2612524  37.7373362  44.6820307  26.4671493  37.4936104
  44.7242546  25.5961132  38.3363056  45.7861948  27.0189595  37.0146942
  46.6315413  26.8318534  37.5347805  45.6979132  27.5731802  36.1749649
  41.0545778  26.2465334  36.0801959  40.5643702  26.8395710  35.1496196
  40.3178978  25.9686685  37.1222162  40.4924297  24.8341823  37.9789090
  41.3935041  24.8828435  38.5903025  40.5209064  23.9780712  37.3048425
  39.3286085  24.8351216  38.9345002  39.7243452  24.9054289  39.9476886
  38.7355256  23.9624834  38.6609006  38.4890628  26.0918784  38.6195064
  38.5781288  26.8407941  39.4064569  37.4421954  25.8343434  38.4587407
  39.0184712  26.6432428  37.3294878  38.4328127  26.3240528  36.4673853
  39.2312765  28.1760621  37.3576307  40.1929331  28.5807323  37.9613209
  38.2579255  29.0028811  36.8758869  36.9833636  28.4712648  36.4071131
  36.5380478  27.7503681  37.0927548  37.1415401  27.9239631  35.4778433
  36.1128807  29.6550775  35.9939599  35.5151796  29.9951625  36.8396521
  35.5047727  29.4837403  35.1057315  37.1361208  30.7653141  35.6532693
  36.6431475  31.7261481  35.8011746  37.5293970  30.6276107  34.6460605
  38.2088137  30.4855323  36.6809559  39.1631246  30.7336521  36.2163806
  38.0670619  31.3389826  37.9455447  38.0513620  32.5867295  37.9802418
  37.9751015  30.6425118  39.0612674  38.0927420  29.6497011  38.9177632
  37.9753137  31.2272525  40.4539633  38.4476757  32.2082019  40.5060720
  36.4853930  31.3578343  40.9301615  36.5224338  31.8940187  41.8784428
  35.8585215  31.9669938  40.2789593  35.8127213  29.9906301  41.1182642
  34.8698568  29.8986983  41.8963194  36.2371135  28.9777708  40.5618954
  38.8053966  30.3458285  41.5028477  38.3856630  30.1875186  42.6067400
  39.8876643  29.7306657  41.0198116  40.0374031  29.6778560  40.0223684
  40.8402920  29.0521431  41.9368982  40.2838993  28.5267377  42.7130938
  41.6982031  28.1424713  41.1211920  41.0099792  27.5139070  40.5560732
  42.3631239  28.7401652  40.4976892  42.4757099  27.1541023  41.9045734
  43.7431765  27.3736215  42.3169661  44.0333557  26.4029789  43.1909323
  44.9619246  26.2820172  43.7290096  42.9533100  25.5544519  43.1941605
  42.7719021  24.7449374  43.7702513  41.9250870  26.0386634  42.4866390
  40.8993196  25.7026100  42.4508715  41.6628885  30.0964475  42.6424980
  41.9701433  31.1580920  42.0834351  42.1678448  29.8107743  43.8192034
  41.8315935  28.9637518  44.2546272  42.9718924  30.6884336  44.6578455
  42.4268627  31.6114140  44.8557043  43.2439327  30.0301409  46.0185862
  43.6739635  29.0507507  45.8088970  43.9334726  30.5543804  46.6802597
  41.9158411  29.9766827  46.8301487  42.0970345  30.3902626  47.8222275
  41.1474562  30.4094124  46.1894989  41.5051126  28.5333800  47.0088339
  41.2503529  28.1793714  48.1942701  41.2874460  27.8812456  45.9686232
  44.3123627  31.0300112  44.0530062  44.7033834  32.1963286  44.3004227
  44.9043560  30.2037930  43.2032919  44.4227362  29.3234992  43.0883026
  46.1149931  30.6050754  42.4688959  46.6764307  31.2352085  43.1586933
  46.8920851  29.2663312  41.9792366  46.2412167  28.6141515  41.3968897
  48.1237698  29.7538114  41.2130022  48.5632372  30.5616045  41.7981863
  48.8341761  28.9481211  41.0278225  48.0059052  30.2665377  40.2583694
  47.4029112  28.5822940  43.2553673  46.5580034  28.0420256  43.6823845
  48.1266403  27.8065968  43.0051422  47.7990103  29.3522239  43.9175034
  45.7201099  31.5654731  41.3414383  46.5325260  32.4434495  41.0122395
  44.4914198  31.4356017  40.8636570  43.8953400  30.8157325  41.3933325
  43.9796352  32.2770739  39.7899771  44.7942924  32.4507451  39.0869355
  42.8636360  31.6211128  38.9923787  41.9305849  31.3712716  39.4974613
  42.4481058  32.5958347  37.8199744  41.9046068  31.9603491  37.1207857
  41.7522383  33.3506989  38.1861162  43.2835722  33.1311345  37.3688149
  43.4118748  30.3271008  38.3770418  43.7674713  29.5953989  39.1024780
  42.6603842  29.7847247  37.8032970  44.1417980  30.4613853  37.5787354
  43.7290096  33.6495519  40.4242754  43.8203192  34.7070122  39.8184919
  43.4591293  33.7993169  41.7080259  43.2449675  32.9922891  42.2763062
  43.5983992  35.1420021  42.3714924  43.0504990  35.9036613  41.8167067
  43.0094194  35.1496005  43.8363600  41.9340134  35.2765703  43.7119532
  43.2441139  34.1551948  44.2160702  43.2757044  36.0119247  44.4475842
  45.0264788  35.6621552  42.4433851  45.2470207  36.8560004  42.3225737
  46.0566282  34.7994781  42.6681280  45.8866787  33.8374472  42.9244804
  47.4826097  35.2329063  42.7642155  47.5250006  36.0915017  43.4343767
  48.3942366  34.1447115  43.3966446  48.3435869  33.3097172  42.6978445
  49.4323444  34.4763446  43.4177494  47.9924107  33.6954093  44.7549438
  48.2733297  34.3443513  45.5844402  46.9189835  33.5289431  44.8452234
  48.7674046  32.0376086  45.1854038  47.9095697  31.7511606  46.7742491
  48.1468010  32.5669122  47.4571609  46.8444872  31.6998768  46.5482521
  48.2064342  30.8196664  47.2562122  48.0925989  35.7474756  41.3780165
  48.8906765  36.6426063  41.2449455  47.5612736  35.0918174  40.3512764
  46.9801235  34.3082809  40.6128788  47.8929138  35.2647543  38.8949490
  48.9709139  35.1984739  38.7479138  47.2311306  34.1099477  38.1552815
  46.1844206  33.9677286  38.4241199  47.2764444  34.3409038  37.0909905
  47.7659988  33.2059312  38.4464383  47.4125433  36.6113567  38.4650326
  48.1818819  37.5107455  38.0487514  46.1181068  36.8716860  38.7029290
  45.5622816  36.1862946  39.1942573  45.4461098  38.1721306  38.6418128
  45.4291677  38.5059190  37.6043177  44.0224314  38.0819511  39.1980362
  44.1281080  37.7295852  40.2240849  43.5802507  39.0780807  39.2154360
  43.2443333  37.2374010  38.1951904  43.2198954  37.7238870  37.2200823
  43.7410259  36.2777853  38.0518675  41.7541742  36.9592857  38.6060119
  41.7445421  36.1795306  39.3675852  41.2524986  37.8713727  38.9293098
  40.9886169  36.4808059  37.4221516  41.2295294  36.7409945  36.4764428
  40.0160265  35.5766439  37.4505281  39.6765423  35.0680327  36.3162184
  40.0859547  35.4496980  35.4754925  38.7660098  34.6420836  36.2182736
  39.5040917  35.0326204  38.5266280  39.6815729  35.3887010  39.4549656
  38.9382195  34.1994476  38.4510255  46.2518692  39.2536902  39.3641925
  46.5442419  40.2454329  38.7153745  46.6272593  39.0231824  40.6344318
  46.4072371  38.0877900  40.9454489  47.2529221  39.9823165  41.5256023
  46.7516232  40.9489775  41.5742207  47.2637415  39.3917537  42.9044056
  46.2245417  39.2013192  43.1725454  47.7567434  38.4198761  42.8818798
  47.9326582  40.1752424  44.0886164  47.9868698  39.5244527  44.9613285
  48.9660978  40.4742718  43.9134216  47.0197535  41.3492441  44.4643068
  46.9716740  41.9509935  43.5567379  46.0820866  41.0281992  44.9179602
  47.6798105  42.2943544  45.4580975  47.6943874  41.9089460  46.4775801
  48.7198687  42.4950981  45.2010250  47.0056009  43.5998154  45.5476189
  46.1668062  43.5198307  46.1045122  47.6045704  44.3473387  45.8678389
  46.5979147  43.8399315  44.6552992  48.6593628  40.4164743  41.0846806
  49.0048122  41.5969753  41.2881565  49.4038725  39.5585608  40.3996038
  49.0588856  38.6100936  40.3609371  50.6814194  39.9066830  39.8036218
  51.3013363  40.5362129  40.4419851  51.4831972  38.5794163  39.6115756
  51.4562368  38.0647922  40.5720663  50.9236574  38.0479074  38.8418269
  53.0055237  38.7464952  39.3446136  53.2459927  39.5045090  38.5991693
  53.7234116  39.2995024  40.6012964  53.3755255  38.8198328  41.5161705
  54.8033810  39.2166996  40.4792023  53.5184526  40.3641033  40.7140779
  53.6581755  37.4559736  39.0177464  53.4464216  36.7879987  39.8526549
  53.2268429  37.0886302  38.0865574  54.7146797  37.6542139  38.8371897
  50.5088329  40.5456781  38.3968902  51.2554312  41.4622450  37.9976392
  49.5084476  40.1333714  37.5703478  49.0270185  39.3037963  37.8867841
  49.2209578  40.8427572  36.3333201  50.1531553  40.7795811  35.7719636
  48.1682158  40.0775433  35.4865432  48.5610628  39.1142058  35.1613402
  47.2654867  39.9166131  36.0758471  47.8284264  40.8389616  34.1772389
  47.0612049  41.6028214  34.3036866  48.7850332  41.2236643  33.8236570
  47.2857666  39.9309683  33.0767965  46.5099287  38.9702678  33.2457519
  47.5998354  40.1590157  31.7972779  47.1882915  39.5674753  31.0895944
  47.9758596  41.0651064  31.5570760  48.7018299  42.2561121  36.6365552
  48.9301252  43.1508255  35.8174205  47.9910278  42.4612617  37.7838254
  47.6620054  41.5839195  38.1608057  47.7008533  43.8117361  38.2314920
  46.9714689  44.2800760  37.5706172  46.9418812  43.6420679  39.5787811
  46.0032463  43.0969095  39.4794512  47.5862169  43.0973005  40.2688217
  46.5958261  45.0109529  40.1304388  45.9491491  45.8124685  39.4324327
  47.0500517  45.3284025  41.3080502  48.9355326  44.7306824  38.3094287
  48.8411903  45.8755779  37.8358865  50.0103426  44.2143774  38.9630604
  50.0807095  43.2377338  39.2106867  51.2317324  45.0767517  39.0337396
  51.0145569  46.0010147  39.5691586  52.3853159  44.4202471  39.8650789
  52.6278353  43.5017204  39.3306732  53.6978245  45.2293539  39.9159288
  54.4972134  44.6936703  40.4278994  53.9930820  45.4318714  38.8864088
  53.5016155  46.2402391  40.2733040  51.9141340  44.1070175  41.2842655
  51.3725996  44.9818420  41.6441584  51.2069321  43.2775974  41.2899017
  52.7640629  43.8584614  41.9198275  51.8052816  45.1881266  37.5511217
  52.2853756  46.2109661  37.1282387  51.8636942  44.0746355  36.7665935
  51.5594387  43.1759405  37.1128297  52.4729204  44.0211630  35.4275084
  53.4897089  44.4029093  35.5198216  52.5503683  42.5360775  35.0207210
  53.0741978  42.1514225  35.8957911  51.5281296  42.1665049  34.9398160
  53.2307100  42.3276806  33.6950111  54.6160269  42.1961975  33.6731267
  55.1112890  42.0669603  34.6241355  55.2596855  42.1152544  32.4781179
  56.3365602  42.0587683  32.5376916  54.5798397  42.4369717  31.2913203
  55.1350594  42.3868990  30.3663206  53.1991148  42.5254965  31.2967253
  52.5969791  42.6362705  30.4070306  52.4907923  42.4727154  32.5144243
  51.4169168  42.5840950  32.4863100  51.8243027  44.9716425  34.4161320
  52.5205278  45.6826735  33.7031841  50.5121469  44.9065351  34.2133498
  49.9748182  44.3074703  34.8236752  49.8945570  45.8170795  33.2739067
  50.3381968  45.7986021  32.2784448  48.4189034  45.4946184  33.1290245
  47.9905224  45.4429150  34.1299844  47.8443766  46.1361361  32.4608397
  48.1166935  44.1140795  32.5136685  48.5305643  43.3941412  33.2197118
  47.0555878  43.8650417  32.5250769  48.7176180  43.7787151  31.1515927
  48.9907217  42.5572348  30.8941722  48.8646460  44.6981525  30.3171062
  49.9443531  47.2556829  33.6531687  49.9877501  48.1108284  32.7743244
  49.7743225  47.5282288  34.9278069  49.6666002  46.7641068  35.5794311
  49.9826050  48.9116907  35.4404092  49.2121458  49.4772339  34.9163342
  49.6664190  48.9729309  36.9386625  48.6121988  48.6969137  36.9618297
  50.2062130  48.1386900  37.3867369  49.9466944  50.2942801  37.6107860
  49.6613550  51.0963058  36.9300246  49.2670631  50.2528095  38.4619474
  51.6033602  50.5162668  38.2082367  51.4331579  49.9817324  39.8902631
  50.5533314  50.3308105  40.4307747  51.2375069  48.9095259  39.8764181
  52.2692299  50.2388144  40.5406427  51.4236212  49.4143486  35.1006508
  51.5803289  50.4468107  34.4469833  52.4372530  48.6771345  35.5282140
  52.1483803  47.8039646  35.9456110  53.8236427  49.0083790  35.3392506
  53.9990044  49.9985743  35.7598042  54.6837711  48.0180454  36.1095309
  54.4639969  46.9752407  35.8807063  55.7126617  48.0160713  35.7496929
  54.7123289  48.2572842  37.6236391  53.7039804  48.2643700  38.0375075
  55.2364683  47.4577665  38.1472373  55.3721094  49.6072531  37.9753470
  56.3411093  49.6992493  37.4847627  54.7208738  50.3707886  37.5499010
  55.3069305  49.8356152  39.4543648  54.7687674  49.1815472  40.0045204
  55.8184195  50.8462715  40.0357628  56.2482548  51.9273520  39.4446063
  56.0719633  52.1549129  38.4764957  56.7917299  52.5806046  39.9904966
  55.7710648  50.9989357  41.3251543  55.2703333  50.4006290  41.9665575
  56.0318565  51.9053364  41.6864347  54.2011642  49.1507530  33.8569665
  54.8696804  50.0642014  33.4161425  53.8294077  48.0888939  33.0711150
  53.3509541  47.3087597  33.4984016  54.1826344  48.0028868  31.6171241
  55.2670431  48.0942822  31.5553761  53.8041306  46.6609097  31.0253882
  54.1643333  45.9133005  31.7320967  52.7272415  46.5326738  31.1347723
  54.1813469  46.3741398  29.5670462  55.3064871  45.6543779  29.3205523
  55.8650112  45.1513290  30.0960445  55.8145094  45.6734133  27.9832244
  56.8118048  45.3085327  27.7865744  55.2026653  46.3519239  26.9371629
  55.5712700  46.3473320  25.9220219  54.0368509  47.0383024  27.1956706
  53.4845638  47.5018263  26.3915992  53.5027742  47.0838547  28.5200047
  52.5228643  47.5047731  28.6903405  53.5192490  49.1470098  30.8018422
  54.1038036  49.6681261  29.8302007  52.2764874  49.5575953  31.1438775
  51.7741060  49.1763258  31.9327664  51.6344738  50.6738997  30.5334187
  51.6572571  50.5557585  29.4500804  50.2173328  50.7246494  30.9686971
  49.6886301  51.6063452  30.6065059  49.7382402  49.8173904  30.6006455
  50.1321030  50.6772232  32.0543242  52.3274946  52.0248985  30.8436918
  52.2613716  52.8840876  30.0043225  53.0479193  52.1462107  31.9370747
  53.0702686  51.3853884  32.6009679  53.7725544  53.3466911  32.4725938
  53.3041430  54.2588663  32.1029663  53.6396074  53.4369707  34.0291452
  53.9018536  52.4977922  34.5162439  54.2033958  54.2984629  34.3870306
  52.1244860  53.7142944  34.4205284  51.7535830  54.6312141  33.9625001
  51.5176153  52.8749228  34.0810299  51.9508648  53.8745546  35.9304786
  51.9159079  52.9274702  36.4689136  52.8132105  54.4541216  36.2599611
  50.7007360  54.6572590  36.3898540  50.5223751  55.5050755  35.7284188
  49.8485470  53.9795351  36.3391495  50.9806776  55.1944113  37.6915264
  51.3265419  54.5198107  38.3588982  51.6038942  55.9719324  37.5267172
  50.1499367  55.6284571  38.0677867  55.2333307  53.4687185  31.9723916
  56.1909056  53.8002396  32.7155972  55.4272604  53.2470465  30.6824088
  54.6208668  53.1173229  30.0882673  56.7301559  53.3419704  29.9714589
  57.3902798  52.5198126  30.2478647  56.4897919  53.2094240  28.4084749
  55.5317116  53.7177896  28.3001113  57.2846413  53.7470579  27.8914976
  56.3441658  51.6876650  27.9800677  55.5300903  51.3761520  28.6345410
  55.9929419  51.5205383  26.9618273  57.8521204  50.6587076  28.1866479
  57.0080090  49.1083241  28.6158848  57.7159405  48.3552217  28.2698178
  56.8102837  48.8799906  29.6632004  56.1881256  48.9086533  27.9259372
  57.6047468  54.6377563  30.2827430  56.9306850  55.6305027  30.6016517
  58.9057589  54.6129465  30.1720738  59.7246552  53.4142876  29.8352528
  59.5769691  53.1995773  28.7768626  59.3492270  52.5635433  30.4039240
  61.2318850  53.7929726  30.2398992  61.9334650  53.3980799  29.5050907
  61.5010929  53.5047817  31.2560558  61.2320948  55.3128099  30.0117922
  61.5542126  55.3942108  28.9736605  61.8761158  55.7495499  30.7750726
  59.8010063  55.7439232  30.3663516  59.7623301  55.8496189  31.4505267
  59.2763138  57.0639467  29.7859716  59.4095850  57.9843044  30.6743264
  58.9380598  57.1267462  28.5918379  53.7203550  36.1248350  58.0147505
  87.3040771  30.3291464  55.1220179  50.8745153  11.9145628  32.1204098
  51.4587839  12.2547432  31.4428146  50.3274210  12.6618667  32.3621853
  64.9547284  46.0309242  20.2885063  64.2092698  46.6313492  20.2848347
  64.5652883  45.1663851  20.4194363  49.2729276  66.7213367  39.5899780
  49.1208165  67.5089906  39.0677746  49.1259425  67.0009421  40.4935558
  47.6691103  44.0111732  70.2369499  48.1691027  43.2121277  70.0703239
  48.2749844  44.5775604  70.7148123  77.4157856  34.0014120  33.9279087
  77.5448523  34.7158142  33.3040436  78.2967137  33.7929817  34.2389687
  56.1664445  10.1367899   3.9633377  56.7629201  10.6912800   4.4663151
  56.7384775   9.5110889   3.5189303  66.6305494  63.1531382  70.3007746
  67.0867062  62.3285294  70.4686213  65.8113623  62.8923368  69.8798800
  23.2761152   2.3336073  15.8802803  22.8863676   2.2419163  16.7497166
  23.4265287   3.2739158  15.7831772  31.7114248  43.1398972  34.6265419
  32.6524629  42.9774016  34.5611485  31.4407816  43.3437036  33.7312992
  72.5313776  77.0495533  24.9350937  73.2466810  77.3659896  24.3833359
  72.9642456  76.5369080  25.6177719  77.2856682  65.1055359   8.0793961
  76.5897386  64.6273683   7.6285465  77.8595655  65.4118108   7.3772009
  52.6483114   1.3151117  27.1706112  53.4346731   0.8702894  26.8543633
  52.9288538   2.2173067  27.3241337  81.6862934  77.4626278  27.9548557
  80.9635609  78.0885147  27.9083927  82.3751133  77.9270266  28.4303482
  20.6615694  11.0068317  47.5255688  21.3755043  11.5492817  47.8606423
  19.9368866  11.1640974  48.1308277  38.3927362  55.6224154  32.5613411
  37.9210370  56.2471007  32.0104321  38.7855285  55.0065099  31.9427879
  82.6725023  72.7397465   1.6934736  83.0588644  72.6442932   2.5640162
  82.6841562  73.6825179   1.5283211  53.9006240   3.8010212  20.8495720
  54.1928579   3.7469908  19.9396713  53.0359410   4.2085262  20.7996185
  79.0433329  34.7801827  13.5754975  78.2836740  34.8676937  12.9997452
  78.7608545  34.1658424  14.2530163  46.8966293  61.2170029  71.7457676
  46.3359547  60.7551098  71.1224413  47.2412872  61.9611502  71.2521267
  67.2467010  76.0866927  21.4491661  67.3649733  76.9299005  21.8864830
  66.6269176  76.2681578  20.7426460   6.6372544  28.2868886  21.6905427
   7.2859532  28.1913662  22.3878932   7.1149254  28.7062907  20.9748864
   8.0493076  34.2279812  25.4199322   7.4424632  34.9678989  25.4421623
   7.6611741  33.5820719  26.0101708  13.4604301  80.4219555  23.7533005
  12.8998460  79.6463560  23.7738999  12.9105415  81.1242174  24.1006954
   2.5570567  18.1263061  21.5132721   3.0923469  18.8457628  21.1785038
   1.8173893  18.0762335  20.9077843  18.8763530  21.3696142  36.3603504
  19.5273025  21.9809147  36.7050369  18.3619459  21.1111446  37.1250828
  79.6673410  71.4436339  10.1375588  80.0964134  72.2620868  10.3870876
  79.2185419  71.6488527   9.3173702  46.2766702  10.9031816  15.6452759
  46.3726051  10.5914827  16.5452107  46.5405805  10.1587387  15.1045426
   9.7521646  28.5475822  10.7695301   9.1428955  28.0733963  11.3353737
   9.9367101  29.3588157  11.2428959  83.2988487  15.4886480  29.4035156
  82.6036607  15.0556417  28.9080818  84.1084681  15.1090475  29.0619763
  74.7140282  70.7139658  38.0027969  74.8269623  70.6392716  37.0552261
  73.9792555  71.3180732  38.1095513  40.3152568  11.6258236  47.7259834
  40.3381021  12.1890112  48.4996327  39.8442752  12.1393581  47.0697220
   6.9569809   9.7484871   8.3721073   7.7678139  10.2565141   8.3457955
   6.8467696   9.5209213   9.2953022  20.5795915  12.4293276   8.3880432
  20.6479414  12.4114557   9.3426331  21.4868696  12.4365993   8.0830486
  21.7542608  17.8564020  16.2323387  21.4496667  17.6507326  17.1161755
  22.6905353  18.0267759  16.3352688  45.5070162  32.0098424  69.4244099
  45.5807400  31.5158033  70.2409363  45.9596920  31.4702034  68.7762547
   7.3729832  12.0328089  10.6447132   6.5837200  12.4440475  10.9971054
   7.6925714  12.6514669   9.9879368   6.6474428  70.8168672  58.7318619
   6.4455070  70.1453303  58.0803307   6.5372839  71.6448854  58.2644375
  17.1436062  67.8932856  33.7101181  18.0461254  68.0045937  34.0089424
  16.7123785  68.7167381  33.9385994  17.1007862  73.2067751  18.9422806
  17.5151672  73.9399670  18.4873684  17.5726833  72.4343060  18.6310967
  58.7324037  78.3233951  24.5002468  59.3026342  78.2351660  25.2639778
  58.2779779  79.1549324  24.6354111  40.5355413   9.5253463  16.2179669
  39.8502643   9.1328903  15.6770332  40.6197889   8.9327951  16.9649704
  68.8905287  47.9491234  71.5425539  68.1536341  48.2963037  71.0398817
  69.1857243  48.6872578  72.0757055  22.0863428  49.2046063  46.6057881
  22.4082174  48.7225025  47.3674973  21.2028494  48.8649892  46.4631947
  61.3853639  72.4890446  32.3134907  62.1330207  72.9144334  32.7333553
  61.3336747  71.6291212  32.7307327   6.5053596  54.8468505  22.6980503
   7.3016061  54.8407315  22.1668442   5.9655704  54.1480325  22.3285683
  53.2029629   0.8818720  67.6127100  53.3760691   0.7172225  66.6858053
  52.3995161   1.4021477  67.6175833   8.6827190   1.9347425  41.3454826
   8.7437184   2.8614088  41.5774258   9.3403513   1.5068098  41.8937691
  21.4907446  43.7788980   3.1587561  20.5864706  43.8674021   2.8576239
  21.4131918  43.5272034   4.0790089  25.7707984  32.2974392  35.7188423
  25.3814848  33.0018564  35.2007111  25.0218256  31.8044849  36.0539063
  22.4758394  24.3653579  38.9981182  23.0552108  24.6744819  39.6945484
  22.9926069  24.4582649  38.1977757  20.8578641  18.1092926  27.1195038
  20.3937919  17.7817722  26.3490494  20.6256921  19.0369125  27.1625813
  76.1430757  61.3133501  49.2250164  75.4942816  60.7435237  48.8119801
  76.3839071  61.9376205  48.5405357  22.1402700   0.9639784  54.3591412
  21.7491062   1.5735670  54.9849423  22.0719631   0.1086136  54.7833069
  34.8062379  27.7286478   1.4581164  34.8017175  26.7740246   1.5281494
  35.7153089  27.9496523   1.2556799  82.0240658  81.7251014  35.2113827
  81.6908090  81.6371058  34.3183907  82.9207724  82.0417212  35.1022728
   9.6885481  39.1151388  17.7329357  10.5871668  39.4187124  17.8616055
   9.4168653  38.7989308  18.5945805  72.1891928  23.0872488  55.5111742
  72.4403763  22.8068924  54.6310949  72.5535727  23.9684057  55.5949736
   3.3799632  12.6863189  23.1983860   3.7091596  13.3211132  23.8346966
   3.9224346  12.8224989  22.4215897  83.1048267  63.2253622  31.8035420
  83.8041227  63.5187625  32.3876103  83.4491270  62.4292468  31.3987072
   7.9909880  34.4791694  12.9603012   8.4276326  35.2729555  13.2692917
   8.4291823  33.7676044  13.4270962  15.3401477  22.0510908  15.6087406
  14.5544536  21.8611332  16.1214073  15.1832588  21.6282697  14.7644432
  35.5411680  34.7478290   1.9128569  35.7010753  35.5388065   1.3980587
  34.9319131  35.0261875   2.5966366  83.3775435  19.9996801  17.5059040
  83.8332759  19.9253221  18.3443649  83.9423404  19.5399423  16.8847187
  60.6332207  32.9310060  68.4701109  61.4658880  33.2696104  68.7991095
  60.7093668  31.9809294  68.5583544  25.0048358   4.8571964  42.5260933
  25.1478298   3.9557787  42.2375878  25.6190641   4.9771591  43.2503613
  21.2029743  27.8169823  64.3393087  21.2211800  28.7417459  64.5857000
  22.0477486  27.4745941  64.6314716  32.6877458  32.2002025  25.8109482
  33.1721551  31.3746782  25.8014115  31.8416650  31.9769617  26.1989411
  81.2775247  75.5289363  14.0907677  80.8057802  76.3323449  14.3103703
  81.8808763  75.3979157  14.8222263   2.5940688  39.2623754  31.1749085
   2.9727371  38.9312883  31.9892891   2.1805580  40.0895448  31.4219483
  10.8514156  71.2036990  25.0440891  11.1708870  71.9709324  25.5189713
  11.5404930  71.0116195  24.4080742  55.4521530  74.9436735  34.9374493
  55.9183710  75.2393507  35.7194050  55.3195637  74.0061520  35.0778206
  12.2240031  81.1907387  70.4190540  13.1522870  81.3943863  70.5332947
  11.9245052  80.9399509  71.2929201  24.7146787  76.2089132  10.0092800
  24.8053541  76.0517286  10.9491165  25.4026594  76.8422698   9.8048981
  20.5349500  11.6795965  29.4190224  20.4678257  12.1157308  28.5696037
  21.3050563  12.0725485  29.8298271  67.9204648  56.5293943  40.2887638
  68.5548871  55.8136104  40.2514084  67.2579353  56.2299763  40.9113701
  72.2681005   1.2318846  53.7516602  71.9125516   1.3592382  52.8721150
  71.7469556   1.8117901  54.3069561  29.2682893  25.0810810  14.5523365
  28.4213359  24.9792143  14.1181286  29.0607793  25.5029102  15.3861340
  50.8447893   8.8651272   7.8608759  51.4481790   8.6362739   7.1539267
  50.6581361   8.0328508   8.2952793  81.9503628  24.8712822  17.7498921
  82.3132549  24.8445936  16.8645580  82.5658284  25.4121013  18.2448204
  12.8495653  24.0854069   7.8158005  12.6160438  24.6280571   7.0626553
  12.5606592  24.5920273   8.5748108  76.8738508   7.9342872  59.4624949
  76.2788582   7.9311824  60.2122974  77.0659161   7.0098209  59.3053150
  17.6798255   6.2222286   2.5313481  17.7847202   7.0599218   2.0802410
  18.1062324   5.5859848   1.9572313  21.2791307   4.0568538  14.1174038
  21.9998033   3.6339470  13.6504753  20.8560379   4.6063705  13.4576615
  70.3556602  81.7765044  16.6120728  70.3339403  82.7332591  16.6316803
  71.2468641  81.5516351  16.8793114   7.1297302  70.6414698  39.7323616
   6.5979089  70.9108852  40.4812344   7.5165691  71.4548467  39.4083126
  25.4968729  42.8652619  61.9046219  24.5975961  43.0034812  62.2019966
  26.0382642  43.1256488  62.6498135  84.4375239   3.1940838  19.5246704
  83.4968029   3.2803102  19.3702706  84.7866784   2.8628917  18.6972435
  30.8934886  34.3539568  18.2851227  31.0149057  35.2804752  18.4926232
  30.6406553  34.3463989  17.3619564   0.7076414  21.0851093   7.8551872
   0.6195862  20.2612110   8.3344277   1.2044961  21.6529032   8.4442337
  52.8166826  19.2437216  56.0434826  51.9536264  19.4638248  55.6928738
  53.2483442  18.7662359  55.3350266  48.9428025  79.1574453   1.7370756
  49.5795148  79.6413397   2.2630747  48.4632473  78.6248993   2.3716267
  82.9706972  47.3299747  15.6718548  82.5874584  47.6714044  14.8639019
  83.5483044  46.6234325  15.3830536  30.6245859  43.7268491  11.2560280
  31.5338476  43.7650152  11.5527161  30.6722267  43.3237787  10.3891380
  43.0440140  22.2920942  59.4545889  42.5221109  22.4801970  58.6745453
  42.6321268  22.8072143  60.1482964  69.6397114  57.0821714  70.0394058
  70.2133608  57.7002764  70.4922962  69.9798679  57.0507383  69.1452360
  14.4685895  19.0903278   8.0477818  13.8802249  18.7801691   7.3594053
  15.1169498  19.6226593   7.5868185  85.0004309  74.8316978  29.4221981
  84.0457313  74.8981618  29.4413479  85.2563827  74.7932600  30.3437336
  41.0379219  11.2061441  52.1352434  40.5716467  11.3215613  52.9631901
  40.4080629  10.7652068  51.5650892  38.0317361  24.6663471  26.3964947
  38.3352096  23.9918085  25.7889374  38.7241705  25.3271480  26.3860615
  56.6672571   8.4357019  41.4084061  56.4765794   7.7112528  42.0042618
  57.5382574   8.2391973  41.0634525  83.6111151  15.9863992  16.9071110
  84.4831620  16.3803526  16.9308766  83.0140720  16.7306610  16.8306740
   0.5470504  70.8168505  17.0437439   1.2141361  71.4786242  17.2261913
   0.1251497  70.6626748  17.8890045  64.3901675  31.6419308  40.5743702
  64.2749136  30.7092952  40.3923329  63.5287302  32.0260476  40.4112538
  85.6884513  78.1942952  50.7243156  85.7901178  77.8809997  49.8255682
  86.2907586  78.9354089  50.7891893  54.6431303   3.5254961  70.0719833
  54.5054722   4.2220363  69.4300222  55.3071737   3.8751778  70.6661272
  75.2790134  48.7140082   6.5114267  75.3242557  47.9709231   5.9097536
  75.5285471  48.3499860   7.3608072  73.9448231  67.3535537  18.5971268
  73.9679735  67.8338980  17.7694996  74.6361654  66.6969751  18.5124024
  25.0874414  56.4578675  47.8042229  25.4539480  55.9008204  48.4909638
  25.5362501  57.2965394  47.9111584  47.8576630  58.3203398  25.4905995
  46.9724768  58.6842250  25.4743202  47.8695886  57.7538263  26.2620648
  36.4102745  24.8411560  64.8550034  35.9487796  25.6797385  64.8492718
  37.1105862  24.9487662  64.2114067  69.6377628  28.7936639   3.2659968
  68.8938587  28.6168145   2.6901777  69.3678873  28.4509944   4.1180380
  76.2635916  59.7278189   4.3352993  77.1714466  59.4252204   4.3135603
  75.7945269  59.0438424   4.8131951  14.4927015  73.7218832   5.6587418
  14.6821203  73.1098746   6.3699396  15.3431787  74.0999936   5.4352434
  27.3889525  65.0531867  57.3170137  26.9891626  65.7012382  56.7369890
  27.1012861  65.3068855  58.1940079  12.2179205  72.5509217  66.7793703
  12.8105623  72.6510230  66.0343933  12.7598030  72.7447846  67.5442362
  36.0238352  50.1005136  39.7974976  35.6889620  49.4184171  40.3795918
  35.5387487  50.8872401  40.0464638  55.9563868  61.9877814   1.8981178
  56.8424790  62.3445677   1.8366488  55.5246060  62.2792100   1.0950812
  78.9204884   8.9190531  62.1995974  79.0098190   9.8409516  62.4411678
  78.0858278   8.6506075  62.5836706  88.1386392  71.8937038  66.3634308
  87.5440805  72.6411437  66.4272030  88.5886495  71.8728780  67.2079952
  35.5739011  44.0721096   4.0310057  36.3030996  44.1059096   4.6501692
  35.0578680  43.3156532   4.3097695  67.0215368   4.2781657  38.1861496
  66.0972023   4.0299061  38.1718850  67.0715284   5.0480664  37.6195931
  33.7302787  24.1566129   9.5303829  33.6516483  23.7381263   8.6731060
  33.2074888  23.6069055  10.1141079  65.8441084  33.8837491   1.6257437
  64.9688142  33.4975814   1.6568573  66.3783448  33.2301627   1.1744698
  78.5464733  14.8987864   7.1150644  78.3392446  15.8053921   6.8884619
  78.4239738  14.8549341   8.0633743  85.1079290  66.2873935  12.5589188
  85.7493799  65.6655263  12.9025086  85.5904358  67.1103429  12.4803360
  45.9439547  81.8450698  65.2474546  46.0864527  80.9135905  65.4155922
  45.0631649  81.8892728  64.8753119   5.3794136  43.2911662   2.6284798
   5.4816570  42.8763724   3.4850557   5.7425298  44.1694127   2.7427776
  25.1995540  37.6105523  56.0197020  25.2251363  36.9947696  55.2873182
  25.5872464  38.4133744  55.6712723  83.0758827  43.1743431  24.3027886
  83.5077255  42.4852294  23.7979420  83.6128872  43.9526089  24.1539295
  16.6698010  79.5211142  32.7043104  15.8052427  79.8667976  32.9262805
  17.1802981  79.6185031  33.5081410  75.7553499  51.1850714   5.1386316
  75.9626263  50.3483038   5.5546721  74.9114054  51.4365386   5.5138071
  59.2382353  16.7986034  42.8963574  59.1778367  17.4606894  43.5849960
  58.8635652  17.2216986  42.1237953  10.9570636  82.8581666  12.9436691
  11.5815344  83.3655928  13.4621151  11.5028371  82.3290728  12.3619183
  86.7915075  82.5773810  18.4231194  87.4382656  83.2356023  18.1687935
  86.7489355  81.9818352  17.6749523  84.7232590  61.8887022  67.9087830
  84.7391329  60.9427169  67.7635622  85.6025777  62.1823886  67.6705027
  22.1066942  47.8108929   2.7145537  22.4632826  48.6381059   3.0382689
  22.2275057  47.8528957   1.7659338  60.7223558  49.3773317  67.0243597
  60.4110098  48.7202120  67.6468420  60.0571060  49.3895578  66.3362265
  25.6734934  46.8413543  39.1682537  26.2124624  46.0632126  39.3105229
  25.2556028  47.0012491  40.0144489  80.5464418   7.5916525   7.1974571
  81.3610132   7.1968456   7.5086125  80.7002981   8.5346885   7.2544153
   8.5375490  10.0300907   4.7322758   9.2543354  10.2170514   4.1260632
   7.8910818   9.5638131   4.2022808   2.8394069  27.8152548  19.0409477
   1.9379368  27.6254510  19.3008526   2.7533950  28.3853720  18.2768829
   6.5308084  64.6449970  50.2513035   6.1891737  63.7701796  50.0663384
   7.3718109  64.4878744  50.6805618  80.4138534  57.3639034  64.5781906
  79.9389379  56.5519701  64.7555359  81.2918585  57.2087692  64.9264439
  10.9552438   6.1205002  28.3278378  11.6840990   5.5000444  28.3217629
  10.3803856   5.8078714  29.0264328  61.2611168  51.6626393   3.3832176
  62.2165530  51.6937803   3.3342131  60.9663194  52.0438432   2.5561674
  74.1615122  76.2258672  12.9544552  74.6679848  76.5727185  12.2200115
  73.5358684  76.9196843  13.1628330  62.4746960  28.7871455   5.7134255
  63.3086961  29.0830706   6.0782631  61.9289749  29.5733224   5.6948431
  83.0584298  69.5268026  64.5294666  83.7201009  69.9458912  63.9792061
  83.4752379  69.4483951  65.3875828  71.0590666  16.9119715   4.0109308
  70.2636831  16.4581679   4.2896088  71.5068691  17.1336626   4.8273619
  21.7971117  61.7308381  54.5844316  21.2440235  61.6845468  53.8045692
  21.2648995  61.3426426  55.2789021  33.9872295  71.9960871  60.4054356
  34.7738917  71.9744304  60.9503412  33.7594826  72.9241660  60.3503799
  57.9909945  37.0320010  53.4315729  57.1611214  36.8895125  53.8868093
  58.3809710  36.1603022  53.3660316  15.4299583  62.3839163  15.2410706
  14.9849786  61.6350077  14.8443802  14.7362652  63.0287265  15.3798016
  86.4094894  54.5445155   2.1392496  85.8520000  55.3178917   2.0536383
  86.6956108  54.5554339   3.0526217  17.3641624  72.7267646   6.9062336
  17.4591293  73.6106013   6.5511997  18.0353346  72.2142361   6.4555939
   9.1826858  65.4801821  24.3964775   8.6892070  66.0150312  23.7746628
   9.9401607  66.0181640  24.6267803  87.7788942  73.3035754   6.0982760
  87.2589081  73.2312464   5.2978905  87.1493070  73.5653662   6.7700823
  37.9422338  32.2270485   4.4007595  37.0804889  32.2874447   4.8130472
  38.2145650  31.3210769   4.5466240  44.1990566  16.0483682  55.2492428
  44.7525978  15.7205665  54.5404625  44.8048067  16.2037373  55.9739208
   1.8672266  65.4546450   4.8596342   1.7383518  66.4017962   4.9099072
   1.4958992  65.1187657   5.6754358  63.6769479  25.7573782   7.7647169
  64.6196311  25.8947419   7.8580483  63.5404461  25.6658386   6.8217333
  87.7520292  82.1987294  13.9082726  88.3688610  81.8541716  14.5540436
  87.1486633  81.4742469  13.7430199   3.9404573  52.6357995  36.4915093
   4.2727604  52.6938032  37.3873051   3.6217203  53.5171102  36.2967499
   2.9693403  48.2393734  10.2921971   2.3090830  48.9152526  10.1389607
   3.4449758  48.5403483  11.0664185  52.6598263  30.2177978  59.2786694
  52.1455717  31.0240936  59.2379141  53.3601713  30.3478193  58.6392641
  51.3762695  79.7039246  24.0067315  52.0605213  80.1839372  24.4732380
  51.7635948  79.5019469  23.1550169  61.1661577   0.1700517  57.1388006
  62.0419359   0.1051190  57.5196266  61.2068748   0.9424067  56.5748501
  18.8555612  54.9573504  32.1815117  19.7933569  54.8450576  32.0260819
  18.4387197  54.6081756  31.3937576  62.2746961  19.6634983  13.9581974
  61.9826358  19.2444490  14.7677239  63.2149380  19.4875788  13.9231499
  34.3362141  18.0082619  42.9472065  34.3620849  18.4461212  43.7979984
  33.4856319  18.2486868  42.5798702  33.3946753  25.1577020  61.4331675
  33.2250452  25.2017546  60.4921484  32.8022790  24.4766474  61.7516994
  49.5331573  44.2079878  61.8829727  48.9430523  44.3071604  61.1358643
  50.0172186  43.4025955  61.7005968  36.8693955  80.9726074  70.5730152
  37.2763903  80.3619358  69.9584675  36.1078055  81.3129121  70.1035404
  22.8884306  69.8462485  24.3597515  22.7311601  70.7589339  24.1178806
  23.7160291  69.6245574  23.9329250  23.6730120  26.9152308  64.8207378
  24.2124388  27.6958346  64.9468899  24.2168161  26.3311696  64.2921734
  38.6679003   4.8041970  49.5236540  38.1626531   5.4946274  49.0943956
  38.3637258   4.8137823  50.4311848  32.4022665  51.5469455  27.8503235
  33.2997408  51.3043671  27.6224526  32.1504965  50.9219478  28.5301979
  70.6985491  47.0829217  58.8236530  71.0885494  46.8134825  59.6552284
  69.8440855  47.4407612  59.0646370  81.7987507  60.0980555  21.5542801
  82.4895113  60.7112216  21.3030728  81.2440126  60.0307070  20.7771309
  60.7048481  56.9417976  12.6248081  61.1192696  56.2361060  12.1283348
  61.3412135  57.6564645  12.6019486  24.2609300  67.8733801  22.5620278
  23.6253633  67.5667166  21.9153126  24.7242822  68.5866450  22.1229466
  87.1060150  69.4289159  22.5711926  87.4663990  68.7392925  23.1286629
  87.6508968  70.1942562  22.7544697  34.3321027  52.1549975  23.3998020
  33.5005369  52.0904409  22.9301460  34.6276178  51.2489622  23.4892567
  66.1387825  47.3422766  64.9524069  66.7104626  47.5470924  65.6923151
  65.7543373  46.4942312  65.1743460  64.0384293  26.1535096  68.2565832
  63.3025932  26.2939191  68.8524532  63.7101650  26.4305758  67.4011803
  65.2851217  56.0388182  24.3560131  64.7448700  55.2853476  24.1180237
  65.4711883  56.4726900  23.5233219  87.2161484  41.0135508  55.3731680
  86.5091038  41.6116762  55.6151915  87.4955463  40.6250858  56.2021828
  69.4390154  20.5939937  54.0867472  70.1187420  20.5494738  53.4142685
  68.6342716  20.3480697  53.6305237   8.9827807  25.0501199   9.0129765
   8.0723317  25.0701710   9.3077858   8.9543660  25.4028126   8.1235798
  13.0479009   1.4671798  38.8129051  12.3283012   2.0460220  38.5612019
  13.8186700   2.0346256  38.8251312  11.9832237  13.1024547  38.9720829
  12.1264226  12.5396009  38.2112129  12.1513469  13.9880033  38.6499603
  60.8868091  45.2753802  15.2506550  60.4868858  44.8019402  14.5211704
  61.7997926  45.3928449  14.9881752  83.1938362   0.8827111  38.1252480
  83.6730862   1.2884516  37.4028063  83.2966518   1.4943621  38.8543177
   1.1925020  68.3993338   4.5534905   0.7211675  68.1648110   3.7540682
   0.7888498  69.2194127   4.8376854  28.2964410  75.9705352   3.6826809
  27.9533949  76.7895006   4.0402420  28.5110845  75.4442452   4.4528635
   3.3434715  64.2912244   8.9169033   3.3129015  63.4553503   8.4514816
   2.4995603  64.3467544   9.3651875  14.7023477  57.3951863  25.1190003
  13.8919964  57.8542935  25.3398712  14.7237577  56.6467296  25.7153042
   9.3777885  60.9077357   3.6793097   9.8295583  61.7417406   3.5505732
   8.5614814  60.9991668   3.1878670  23.3718671  57.5342976  31.8866451
  23.7653913  58.3563148  32.1793278  22.7308550  57.7973985  31.2262638
  25.7043447  44.2277877   4.9646004  25.0002851  44.8644270   4.8412188
  25.4234972  43.7022783   5.7137354   5.3645165  71.1154738  51.3640833
   5.6678731  70.3380826  50.8951807   4.5181329  70.8591655  51.7303801
  73.2399671  80.6845092  13.3356293  74.1717117  80.8453869  13.4846314
  72.9177301  81.4936065  12.9384430  25.5053701  45.3131514   1.7320688
  24.6623888  45.3548991   2.1835812  25.9803667  44.6106838   2.1760853
  81.3896465  33.9246678  48.2380438  81.6776085  34.3962574  49.0196514
  82.1341801  33.3700371  48.0050611  46.2000759   2.6368089  28.8747128
  45.6402071   2.7479072  28.1063088  46.1363990   3.4708544  29.3400581
  59.9052327  82.2004317   6.3122900  60.2294081  81.4428972   5.8251722
  60.5748599  82.3623036   6.9768437  48.4500551   3.0921865  68.2195473
  47.5589609   2.7818871  68.3804703  48.3892822   4.0444976  68.2946587
  34.2304635  19.0757143  71.1460590  34.8314762  18.3320010  71.1024141
  34.7601485  19.7914124  71.4973974  61.2145901   9.8966664  64.7695446
  61.2717104   9.7451526  63.8261414  61.3498497   9.0330082  65.1594591
  55.8473056  64.9766277  18.8498409  55.0521486  65.5091785  18.8683327
  55.5369347  64.0889095  18.6713608   4.3299379  46.1711361  14.2934521
   4.6973362  45.4497393  14.8041733   5.0525465  46.7921780  14.2019566
  22.0705022  75.4378699  30.3713711  21.9608774  74.8881911  29.5954426
  22.2609033  74.8202704  31.0774525   7.8839864  47.3360466   1.3012894
   7.1710577  47.9310195   1.0689600   7.8951492  46.6887717   0.5962093
  51.3397806  58.4072100  10.4066857  51.5903705  59.2189156   9.9655922
  51.8543904  57.7285265   9.9698837  86.2992668  17.3283136  52.7216864
  86.6959763  17.5515532  53.5637188  85.3575611  17.3278069  52.8932142
  79.0614431  35.2564364   4.3567379  79.7762268  35.5909108   4.8984440
  78.5178345  34.7522329   4.9621304  58.6579752  65.9652805  63.3711243
  58.4050465  66.8506002  63.1094503  59.0721750  65.5943584  62.5919676
  48.3264399  52.3676109  47.7303743  48.8378525  53.1743097  47.6677179
  48.9273834  51.6801357  47.4431849  25.8627786  57.8856396  34.0125092
  26.3277425  57.9390072  33.1775292  25.9551325  56.9712471  34.2800625
  67.0710142   6.2167688   4.1930016  66.7096956   6.2251516   3.3066567
  66.3462598   5.9218212   4.7443207  38.4904279  63.5859393  15.6238468
  38.6427488  62.6419805  15.6681927  37.5493993  63.6697291  15.4699715
  32.2836788  15.1239725  20.3146275  31.5267618  14.6389194  19.9859436
  31.9057996  15.8481642  20.8136185  55.8587306  59.4694876  24.4698246
  55.0905459  59.8762285  24.8706825  56.1438244  60.0979708  23.8065251
  75.7209413  69.4837688  24.1770371  75.9760826  68.8679551  24.8639973
  75.7225483  70.3381537  24.6086128   3.0485746  22.9858208  72.0214510
   3.9755174  23.2181668  71.9664621   2.9848120  22.1458888  71.5668297
  57.3514479  81.5159606  10.0472839  57.5415438  80.6361388   9.7216900
  56.4262050  81.6521214   9.8432835  59.2436218  24.7794414  45.4549170
  58.9484644  25.5120015  44.9141169  58.5929108  24.7207284  46.1544609
  78.8826370  32.2397423  61.5543509  78.9467859  31.7189860  60.7537699
  77.9423618  32.3602271  61.6870070   4.0491142  56.8598317  45.8125981
   4.6725454  56.3156556  46.2936791   4.5220127  57.6750850  45.6453903
  66.4030021  73.1970214   8.9491184  66.9126456  73.9980387   9.0710648
  66.6793387  72.6258825   9.6658333  30.1082697  39.1326461  18.2528504
  31.0370626  38.9440535  18.3870228  29.7068395  38.9799194  19.1082771
  67.6289885  55.2318703   4.5588501  68.3142226  54.5852326   4.3898972
  67.6778334  55.8324872   3.8151367  18.9765413  15.6533952   5.2831181
  18.2040222  15.6311985   5.8478840  19.5241792  16.3456102   5.6534727
  59.5616865  18.5776103  67.0757723  60.4904270  18.7811494  66.9651222
  59.1722775  18.7636387  66.2213850  67.7245920  60.2863478   1.1587103
  68.6369460  59.9976372   1.1366661  67.4713271  60.3503941   0.2378472
  69.6186209  23.0473137  55.4911757  70.5507612  23.1148934  55.6980085
  69.5539904  22.2779202  54.9254131  61.1696243  14.7099221  55.3159618
  60.4490376  15.1183188  55.7957554  61.9520283  14.9406505  55.8167982
  81.9213789  37.5559108  46.5504940  81.5741032  37.9517539  47.3498352
  82.8478926  37.4075578  46.7396744  82.1782749  64.6813058   1.4846857
  82.4623840  63.9902090   2.0829304  81.3025635  64.9177026   1.7904289
  25.8672800  34.9672531  30.2026184  26.4784708  34.8042195  29.4842156
  25.8558550  34.1482286  30.6978901   1.1828890  43.8364248   7.8033503
   1.6586914  43.5592063   8.5862930   1.7614832  44.4736506   7.3845394
  85.3375261  19.7219800   5.8654268  85.7314127  20.5828952   5.7243164
  86.0291069  19.2074941   6.2816628   2.7281370  68.6100529  17.4435814
   2.0053758  68.4196066  18.0415638   2.6307478  69.5399712  17.2386368
  60.6267166  18.5860336  47.3646688  60.9881878  18.6192501  48.2503700
  60.9482574  17.7590382  47.0056105  14.9597856  22.1676850  63.2012463
  15.4783937  21.3641548  63.1610298  14.0531656  21.8652129  63.2541084
  14.8664465  61.2646781  11.6044911  15.3710451  62.0141386  11.2883957
  15.3487672  60.9578537  12.3722561  64.7299259  51.4698218  52.4321373
  65.6308596  51.1500143  52.4798210  64.7006123  52.1968519  53.0540665
  65.1942437  62.5356649  52.1315392  65.9323614  62.8933548  52.6249703
  65.1010173  63.1224178  51.3810356  48.2313402  12.7878853  22.6613148
  48.6411722  13.3104082  21.9719418  48.4562786  13.2431789  23.4727009
  18.1017866  66.2816595  31.6989430  17.9067459  66.9232129  32.3820217
  17.6374950  65.4908918  31.9734295  19.4695463  40.3240764  32.4949368
  20.0855198  39.6075060  32.6476963  18.6236515  39.8918023  32.3773201
  27.0621450  15.0359913  34.0934284  27.5184829  15.1271196  33.2569512
  26.3237579  15.6418606  34.0306862  40.5518999  76.0865949  18.7302502
  40.0967302  75.4183601  18.2178887  39.8516454  76.5734886  19.1647728
  70.5139446  40.5468178  71.6224146  69.7911882  40.2395201  72.1696091
  70.7431269  41.4019394  71.9863796  10.4278166  81.9229755  58.0032492
  11.2874872  82.3149493  57.8497648  10.4530103  81.6408598  58.9175844
   0.3920879  54.6538519   0.0785931  -0.3836975  54.7975682   0.6205662
   0.5096664  55.4775857  -0.3945534  17.5714285  79.2902273  48.2636833
  17.7886755  78.7005678  48.9857197  17.1210606  80.0244167  48.6812544
   1.9622745  78.0613087   6.0069140   2.6411905  77.4498152   5.7216366
   2.4329605  78.7214159   6.5157755  53.8170052  24.5138097  65.2775621
  53.5556126  25.4280376  65.3875160  54.2216110  24.4829917  64.4106245
  57.1227789  27.8890991  48.8684797  56.1678839  27.9068232  48.8044977
  57.3641062  28.7863445  49.0985775  44.5653780  12.5334831  34.7865971
  44.1075761  13.3725019  34.7346886  45.0055797  12.5530048  35.6363495
   7.6733722  56.3274394  19.9943455   6.7649641  56.2335681  19.7076138
   8.1280222  56.6909503  19.2344864  72.2813671  53.9422332  26.4338501
  72.0696848  54.8050414  26.7902001  71.4923017  53.4213196  26.5830143
  69.0344858  15.6391668  67.0709467  68.7322140  16.5460455  67.1202707
  68.3960295  15.1455629  67.5856924  86.2897413  68.5537480  36.2990482
  86.7847174  67.8384613  36.6985424  86.1889093  68.2931613  35.3835400
   3.3291664  76.8535422  10.0694950   3.4602871  77.1523665  10.9693535
   4.2142334  76.7233847   9.7289856  54.1299772  21.8464041  63.9303160
  54.6137905  22.3423719  63.2698774  53.7279081  22.5149393  64.4849586
  43.4093465  72.4966286   5.6150873  44.0324678  72.2813772   6.3090761
  43.6540212  71.9246339   4.8876341  74.8263121   4.6935332  70.8991671
  73.9344740   4.9522734  71.1313534  74.7861958   4.5117310  69.9602509
  70.6623030  35.2012253  65.3815985  69.8767710  34.6546960  65.3597689
  70.6649876  35.6506133  64.5364475  77.7061336  47.3329734  33.5536202
  77.1401708  46.7503022  33.0472477  78.5105961  46.8310963  33.6847408
  74.8131616  11.3194319  10.4192742  75.1948507  11.4543958  11.2866409
  73.9423616  11.7126318  10.4769714  67.8571289  45.7558821  45.8940228
  67.9824703  44.8255279  45.7070358  67.1508258  46.0251718  45.3067787
  37.0037842  22.5928497  53.7621880  36.0484028  22.5792646  53.7048244
  37.2999120  22.3679280  52.8801727  49.1549878  55.5841528  39.6010597
  48.2944208  55.2567290  39.8626907  49.2250758  56.4392566  40.0254639
  59.0539320  21.3859459   7.9387434  59.8323495  20.8289238   7.9430779
  59.3873174  22.2648235   8.1194790  62.0464189  17.7351185  10.2150829
  63.0028493  17.7288624  10.2529629  61.7703779  17.4477096  11.0853871
  74.0688436  61.1356579  23.3610447  74.6626060  61.6477870  22.8120430
  73.1934421  61.4092456  23.0870731   0.4210510  46.6151344   1.8373354
   0.1861181  47.1799921   1.1011465   0.0676336  47.0635675   2.6056011
  79.9164438   2.5208977  50.8361769  80.0263119   2.7667364  51.7547178
  80.5511570   3.0615309  50.3659725   5.9636900  11.4919949  67.2936440
   6.1498377  11.8374407  66.4205742   5.3650400  10.7611942  67.1394444
  55.8867867  55.4024818  40.7678080  56.5243561  54.7564486  41.0717440
  55.5445511  55.7970002  41.5699673  36.3504982  11.2413275  57.9236603
  35.8202815  11.0488117  57.1503305  36.7889619  12.0660126  57.7141953
  71.3278454  70.9056042  26.8664654  71.8340128  70.1612185  26.5410145
  71.7571419  71.6718625  26.4859589   3.1321230  55.5190967   2.3694523
   2.8501787  55.6088041   3.2797773   2.3445930  55.2424501   1.9009550
  65.0195377  72.9530047  35.5110939  65.3872531  72.1796798  35.0833233
  65.6919353  73.2232689  36.1364563  43.6157980   2.6234912  11.0219010
  42.8073206   2.2263955  10.6979950  43.9969816   1.9577788  11.5944012
  11.6380872   8.6748027  23.9863308  11.5577449   8.3038448  24.8650654
  12.2424307   8.0872797  23.5326679  19.8898346  77.9827270  57.8246737
  20.5187256  77.3127273  58.0926752  19.1447432  77.4887022  57.4826002
  58.2609415  12.3985136  68.0043411  58.6345196  11.9782221  67.2297239
  57.9487610  13.2468247  67.6894712  65.9747141  77.6077913  10.5238732
  66.3754814  77.1136140  11.2389954  65.1503365  77.9302357  10.8880909
  57.2858804  55.5197762  26.0366066  57.9964178  55.4236316  26.6707333
  57.6727074  56.0190069  25.3173264  25.1083460  71.6584228   3.6031063
  25.0920572  72.4337291   4.1642388  25.3166475  70.9372424   4.1970261
  54.4485896  65.3121661   6.6889008  53.8686936  65.7534264   7.3095806
  54.2933314  65.7590412   5.8567770  29.5792253  12.7149959  48.0376061
  30.0088460  12.8588529  47.1944245  28.6708696  12.9793020  47.8917702
   8.1481399  37.3525472  30.6588658   8.4869804  38.2382180  30.7892712
   8.9053049  36.8477102  30.3620918  62.3490715  38.6087799  65.0809383
  63.2588625  38.4714437  64.8170233  62.2881079  39.5489120  65.2502537
  23.3435257  18.2708498  18.9427002  24.2776210  18.3115574  18.7376602
  23.1723936  19.0706201  19.4399937  41.0125246  63.6751460  26.0322960
  41.6678800  62.9832243  25.9430035  41.1904707  64.2691349  25.3030785
   3.5430565  52.1229922   3.2255467   4.2782678  51.5181648   3.3249672
   3.7202634  52.8210865   3.8560208  47.6286793  10.5333555  63.2544470
  46.7849779  10.9440708  63.4434319  47.6775408   9.7957295  63.8625193
  25.1984872  75.2834820   2.1207197  25.6317320  75.3947328   1.2744625
  24.5164003  75.9549664   2.1307047  33.8457002  41.6953298  21.4380558
  34.7223940  41.4095593  21.6949089  33.9538374  42.6164336  21.2011822
  46.9182386  53.5479652  36.0719689  47.6954641  53.1602691  35.6696709
  47.0930280  54.4890724  36.0725697  11.0873044  24.6870589  46.5776396
  11.3835192  25.5971026  46.5951157  11.6296005  24.2714930  45.9072304
  63.3103418  22.9577208  66.1301899  62.6223803  23.2935882  66.7047644
  62.8394985  22.5906515  65.3819942  82.0820682  56.8037008  19.8992165
  82.9460304  56.5931200  19.5450123  82.1912830  56.7441284  20.8482941
  76.3951605  60.7511627  17.6403340  77.3424785  60.8869981  17.6593502
  76.2608498  59.9330710  18.1187828  87.1960705  82.5144147   6.4174851
  86.7187231  82.2145842   7.1910961  88.0857246  82.1838902   6.5419777
  35.5730970   5.4883524  18.4740170  35.3872306   4.9227615  17.7244957
  34.7554834   5.5030628  18.9715393  42.5007827  24.3107506  13.3811005
  41.7885883  24.8571583  13.7134464  42.3522909  23.4540935  13.7815006
  66.9376905   0.4212518  10.3844937  66.3706358  -0.3490357  10.3479775
  67.6662214   0.2102419   9.8005875  33.5341921  68.2075714  29.8162850
  33.6990347  68.9413785  29.2241772  33.0508890  67.5749205  29.2848690
  33.8310995  77.7508997  43.1677445  34.6956815  77.3779296  42.9956539
  33.8433542  77.9633807  44.1009815  15.9248754  25.3647900  68.4495449
  16.4314672  26.1757135  68.4048843  15.5123541  25.2923751  67.5888348
  33.9279516  23.0301853  21.1860283  34.2605503  23.8103386  21.6298397
  33.8158615  23.3022686  20.2751835  83.4186649  53.2456255  59.9089289
  82.9676247  53.3977127  60.7393885  84.1937828  52.7369499  60.1470041
  44.5151861   5.5155845  36.1545761  45.2487285   5.9023710  36.6326340
  44.8252351   5.4513069  35.2512653  75.4908579  60.3753732  60.9650906
  74.8541563  59.7723948  60.5813416  75.0896471  60.6557237  61.7876824
   3.1997862  58.0737792  26.9123753   2.4873247  58.1109678  27.5505360
   2.8413477  57.5689720  26.1823662  58.1501856  65.1655434   3.5327013
  58.6153688  64.6021842   4.1511400  58.7307634  65.2185034   2.7735241
  83.0909729  54.9512672  64.6297264  83.0982971  55.9084320  64.6268559
  83.0999851  54.7144604  65.5571270  19.1112430   3.4947010  47.3816784
  18.7995536   3.8080974  46.5326412  18.9762123   2.5475498  47.3516663
  63.7537258  61.3838457  22.9761227  63.5093348  61.1726688  22.0750626
  62.9800814  61.8148326  23.3393868  18.2640066  55.8497690   2.2370346
  18.4170618  56.3662301   3.0282839  17.5625934  55.2446185   2.4779614
  26.3215025   1.1752554  23.2651718  27.2201307   1.3961406  23.0204113
  26.1752708   1.6432186  24.0872772  14.7225752  66.4552592  25.6300743
  14.5380439  66.7590021  26.5188416  14.5694818  67.2222327  25.0782211
  24.4094457  61.9501613  29.1076477  24.2008104  62.5108503  29.8548611
  24.1714372  62.4730395  28.3420189   3.8431778  81.6664504  10.0686939
   4.4982710  81.2139820   9.5373161   4.3344249  82.0056580  10.8169182
   0.1747438  73.7374020  71.0872126   0.1590940  74.3850803  70.3825903
   0.4250356  72.9203224  70.6559753  78.1895781  19.0171826  71.1823893
  79.0829754  19.0746963  71.5211630  77.7524805  19.7963226  71.5260696
  26.2401397  13.7015100   1.5389736  26.4869316  14.2525573   0.7962282
  26.6114862  12.8433367   1.3343437   5.4241171  81.0576485  32.8547962
   5.2015342  80.6952189  31.9972809   4.6431818  80.9085916  33.3878620
  62.2228010  22.7803417  38.2508095  61.9759901  23.3632513  38.9688213
  61.3954980  22.3993536  37.9564388  68.5661840  43.5652590  51.1158133
  69.2334700  43.6714506  50.4378080  68.1042910  42.7626133  50.8736515
  70.5674790  24.1589781  34.8991402  71.3676236  24.5363613  35.2646263
  70.0041590  24.9133058  34.7262390  50.6908472   8.8512750  18.7402352
  51.2908704   9.5912405  18.8332279  49.8336513   9.2071005  18.9744194
  47.7622080  20.4292130  64.1542673  48.2846928  20.9867501  64.7308111
  48.2462311  20.4183030  63.3285332  80.9556787  73.3844255  19.5293625
  81.5816753  73.1034921  18.8619526  81.4996641  73.6585044  20.2677353
  22.6028068   1.2725778  20.7527645  21.7856319   0.7744404  20.7704647
  23.1237323   0.8539053  20.0675018  34.8930032  41.7930551   6.0884007
  34.8834045  40.9040018   6.4429815  35.4583223  42.2829958   6.6855629
  22.1049888  13.1640001  31.2736805  22.3870094  12.4966999  31.8993099
  22.3271139  13.9950462  31.6935166   7.3612871  77.7701401  13.0482681
   8.1507864  77.4213766  12.6344116   6.6410961  77.3149775  12.6119335
  33.6395359  76.2631655  53.1251860  33.1247377  75.9872055  53.8835096
  33.4692883  77.2020102  53.0489349  85.5699175  64.9954771  37.3430832
  85.9409778  64.8752283  36.4689644  85.8383959  64.2143344  37.8267868
  55.1278918  82.0427035  16.1789330  55.7780807  82.5802993  15.7267388
  55.5111330  81.1657094  16.1943539  68.1317449  21.3412566   4.7776810
  67.8648687  20.5110783   4.3829457  68.5960937  21.0887022   5.5756966
  30.2770509  56.4331399   4.9240263  30.5885305  57.0536851   4.2651375
  30.8997812  55.7073711   4.8828323  19.8029413  53.8497590  25.4731186
  20.3885402  54.5171558  25.1155098  18.9428796  54.0687834  25.1145847
  83.7237453  18.5907269  41.2869596  83.6406422  18.1238079  42.1184111
  83.9585876  17.9123902  40.6537628  76.1821096  67.5848435  37.4207314
  76.4920061  68.4325455  37.1019943  76.9764297  67.1281694  37.6977451
  52.6166534  66.0557508  65.2275896  52.8560543  65.9762383  66.1509466
  53.3875370  66.4429140  64.8127651  39.9667747   8.7034794   1.2460192
  39.7762401   9.0094562   2.1327599  39.7670658   9.4534679   0.6857784
  20.4426517  51.1782025  44.6518143  20.7136812  50.5522500  45.3233441
  20.1933851  51.9619416  45.1415547  79.9179762  61.5818523  30.3551109
  80.1773947  60.6629907  30.4231175  80.5018728  62.0408963  30.9589108
  76.2994545  62.9512333   3.4912260  76.2884014  62.0561003   3.8301142
  76.5039223  62.8527736   2.5613173  66.3741493   4.2627227  70.9071445
  66.5552473   4.8703685  70.1900673  66.0519361   3.4716570  70.4751444
  22.2658434  40.6417517  26.7973622  21.9730558  41.2172749  26.0907753
  23.1871786  40.8681083  26.9244202  23.3136263  63.8180875   6.6729506
  23.6456957  64.1152500   5.8258064  24.0895929  63.5053753   7.1380528
  15.9933653  64.2542766  31.8986614  15.8807268  63.8038873  32.7357395
  15.6619539  63.6359261  31.2474735  18.2789840  71.3594912  31.1339100
  17.5354900  70.8111357  30.8833988  17.9325189  71.9363426  31.8146713
   7.5172064  63.9543915  60.1934958   8.0125829  64.5145702  60.7910156
   6.7407915  64.4683886  59.9716282   5.1459064  78.0367278  20.6797703
   5.1612606  78.9135741  21.0633572   6.0569038  77.8629540  20.4428776
  46.9291575  81.6366266  50.6804514  47.6227696  81.4277217  50.0547504
  47.3940355  81.8778772  51.4816475  55.5867672  50.4203367  63.0538082
  55.2312565  51.2882423  62.8625345  56.2362242  50.2707863  62.3667288
  71.0372543  38.5279512  64.8024988  70.9553862  38.3039689  65.7295179
  71.8488646  39.0325618  64.7487879   9.2344846  44.7202482   3.2225235
   9.5326318  44.6879404   2.3135193   8.6907711  45.5066960   3.2684477
  17.4922218  81.6420459   2.4633940  17.6355114  82.2261714   3.2080420
  18.0113735  82.0242261   1.7558249  32.4963941  74.7980927   5.9194239
  31.7349615  74.9288868   6.4845331  32.5891103  73.8473319   5.8587082
  87.9774063  81.1967396   2.2731264  88.5767239  80.5622171   2.6661022
  87.8467863  80.8809351   1.3790138  62.3605718  19.9756001  20.9118755
  61.5139284  19.5791911  21.1175068  62.6821985  20.3028082  21.7519482
  60.5377252  10.6904026  44.0044983  60.0740011  11.1243339  43.2883270
  60.5934770  11.3549371  44.6911629  44.4821634  51.2369626  19.5034512
  44.9312391  50.5262654  19.9611195  43.9418688  50.7959454  18.8478382
  22.6242168   6.1889787  51.8810948  23.3690174   6.7770715  51.7560108
  22.8710802   5.3881212  51.4185818  57.0852239  38.4143110  15.5551918
  56.4411218  38.8711973  16.0961350  57.3823221  39.0737291  14.9281891
  68.4687631  81.8918799  21.7410954  67.5414603  81.7674159  21.5389832
  68.9147561  81.7727088  20.9025677  87.2539776  41.2859300  18.4975727
  88.0661314  40.9441198  18.1236656  86.5736835  40.6965864  18.1718357
  82.6435345  38.3187335  14.9627121  82.2257154  37.5856050  14.5108517
  83.5815065  38.1725677  14.8399265  16.6326799  49.0594124  20.0718697
  17.3263874  48.5302477  20.4655560  16.9132652  49.9639403  20.2109154
  14.1414316   3.4901710   7.5412329  14.6287735   3.0193897   8.2173260
  13.8805254   4.3098970   7.9610022  24.8218813  71.9732927  23.9678581
  25.2821245  72.2750138  24.7510346  25.3265562  72.3348092  23.2392700
   7.8021660  79.4038056  20.8153256   7.4360456  79.3611406  21.6987045
   7.5492944  80.2688192  20.4927738   4.6161444  10.1070209  16.4270695
   4.1471655  10.0775953  15.5931481   4.0749891   9.5908590  17.0245274
  49.4402075  48.6930513  69.7444105  49.7271109  49.5661497  70.0120163
  50.1185608  48.1055069  70.0773621  79.7235124  47.4440436  10.0026997
  79.3218439  46.9587110  10.7233532  80.5175321  47.8214430  10.3812893
   0.5214300  69.3686985  38.7770851   0.0836172  68.5727690  39.0788277
  -0.1881228  69.9980353  38.6478336  45.1636560  20.9405943  10.0408085
  45.8447177  21.3529821  10.5721481  44.4833190  21.6093345   9.9623497
  86.3204956  14.7799420  51.8741751  86.2547112  15.6495678  52.2687054
  86.4755058  14.1924727  52.6138258   8.4077604  44.2812963  17.8401001
   7.9876525  44.8086019  18.5195740   7.7197940  43.6886545  17.5372513
   7.4275715  16.1123081  27.3897465   8.3661492  15.9591623  27.4985893
   7.0123274  15.3468796  27.7871330   6.9771995  82.7609490  36.4587219
   7.7354469  82.3602246  36.0336216   6.8083467  83.5537099  35.9495648
  70.3174169  24.1599127  22.4062832  71.0730989  24.4595905  21.9009503
  70.2072771  24.8225303  23.0882271  31.5597810  39.1559984  22.5173195
  31.6412916  38.2498573  22.8147991  32.3830404  39.3337363  22.0624741
  52.3291643  15.3039261  26.7208393  51.6023977  15.2296015  27.3393257
  51.9097192  15.4776998  25.8781632  17.8879364   6.2060972  22.5389488
  17.8316982   5.4990001  21.8962296  17.5640543   5.8174701  23.3515461
  19.6013029   5.2703520  12.1057709  20.1541383   4.7035356  11.5678795
  19.8568208   6.1589761  11.8581970  15.3372057   0.5827041  58.5607060
  15.5877359   0.0332685  57.8180226  16.0731180   1.1845251  58.6724098
  69.0040493  32.5694537  57.0500660  69.3019152  31.6649032  57.1464968
  69.3173218  32.8338504  56.1850882  41.8931444   9.5838304  20.1107414
  42.5487001   9.4838186  20.8010109  41.0626276   9.3713566  20.5365666
  26.5754404  78.2850884   9.4698151  25.8188047  78.8381432   9.2752274
  27.3316850  78.8523530   9.3197067  83.0208223  73.9165329  26.7775353
  82.8547590  74.1661977  27.6865585  83.3718698  73.0277942  26.8335541
  84.1542690  66.2115644  21.8872650  84.5540827  66.3243507  22.7496155
  84.2919176  67.0507263  21.4478405  10.8310451  50.1645576  26.9706543
  11.7149248  50.5310266  26.9443424  10.8786621  49.4713913  27.6290424
  86.4363926  44.7047793  48.6069687  85.7116001  44.0983273  48.7590511
  87.2025555  44.1407426  48.5016544   5.0250950  69.3556689  19.8861130
   5.9784259  69.3339204  19.9693211   4.7049369  69.3096780  20.7870110
  59.4553518  18.8619459  44.8737240  59.7901249  18.9684463  45.7641268
  59.6971178  19.6739268  44.4282246  15.8608076  31.5037775  60.1614809
  16.5690443  31.1127377  59.6498919  16.3068888  32.0020294  60.8463097
  71.3905828  58.1771098   9.7048672  72.3331230  58.1167756   9.8604878
  71.1236112  58.9765524  10.1585777  47.5508182  61.9827484  29.4085987
  48.0314570  61.1948060  29.1548927  48.2259100  62.6544427  29.5050915
  38.7638845  75.2688645  42.7320393  39.5833578  75.0185393  43.1586846
  39.0176000  75.4866885  41.8351467  31.2557211  51.2516789   0.8044251
  31.2766828  51.3947670  -0.1417868  31.4448538  50.3192984   0.9099157
  56.6352327   0.9553428  12.0395954  55.8082159   0.8233066  12.5031002
  56.9249303   0.0723119  11.8103321  62.4583299  12.2887130  21.4433582
  62.9863508  12.9906650  21.0629757  61.6475732  12.7190824  21.7148121
  87.2398155  75.0098156  31.6756542  88.1050651  74.7610282  31.3505657
  87.4189251  75.5357884  32.4550827  26.1340196   2.4468370  41.7345245
  27.0152242   2.1969791  42.0125206  26.2523229   2.8010126  40.8531674
  52.1470918  41.8775614   9.7466190  52.5525369  41.1244519  10.1763542
  51.7321672  41.5126149   8.9650353  78.9529961  79.6118521  31.1391934
  78.6482971  78.9366244  31.7453774  79.0593641  80.3920220  31.6834934
  76.6697233  73.4758996  15.1006134  76.4066236  73.0483149  15.9155853
  76.0328501  73.1716226  14.4540604  19.0928735  73.5098003  51.1205204
  18.2156696  73.4109186  51.4906223  19.1877021  74.4514798  50.9774216
  51.5858736  82.8352450   3.4892567  50.8718576  82.2005652   3.5492237
  51.7967786  83.0451678   4.3990286  20.1781484  20.0064564  58.1576633
  20.3296396  20.5606914  58.9232397  20.7655546  19.2609370  58.2816839
  45.2369649   6.5890976  16.2774284  45.7085712   7.1039577  15.6226452
  45.8278186   5.8647962  16.4835938   8.6466303  53.7199580  20.7740696
   8.5784759  54.4087123  20.1128491   8.2425918  52.9545831  20.3651817
  69.4450338  13.3099218   6.4134892  69.8031862  12.9472633   5.6032808
  69.7942598  12.7457090   7.1033724  58.0225904  22.9420181  19.8614700
  57.0693643  22.9386898  19.9484547  58.2199342  23.7680479  19.4199188
  81.7893331  52.5515353  22.8918083  82.2478979  52.0375859  23.5564907
  81.0322874  52.9156016  23.3506783  31.6139371  46.8915315  11.0812100
  31.0631616  47.6105543  10.7715519  31.8375118  47.1312567  11.9805344
  79.8136347  55.5449783   8.2427223  78.8751858  55.3588544   8.2126339
  79.9798935  55.7913767   9.1526039  75.4502678  36.2068367  40.3492498
  76.3189316  36.5860844  40.2157402  75.1198721  36.0478163  39.4650650
  35.0601203  13.5313173  21.7438992  34.1984708  13.8851639  21.5234955
  35.5407150  14.2772671  22.1028145  79.1515923  34.9339175  56.1605883
  79.8197222  34.4041753  55.7256126  79.3944168  34.9129057  57.0862341
  33.6129959  12.8008600  17.3644646  34.3040092  12.3793598  17.8754147
  32.7990062  12.4993129  17.7678497  75.8601434  10.6735225  23.3871086
  76.6820581  10.4101511  23.8010128  75.4997118   9.8610159  23.0319126
  12.4625673  70.1616262  20.9783562  12.9710521  69.3607973  21.1062153
  11.9958629  70.2835773  21.8051251  78.9471626  31.4128137  70.8594704
  78.2199430  30.9201479  71.2398195  79.0612841  31.0361052  69.9869442
  73.0268877  49.0416526   4.4576462  73.1135290  49.7838752   5.0558336
  72.2199600  49.2170929   3.9735802  25.3816659  21.3897701   7.6686342
  25.9413583  20.7750316   8.1430538  24.4920452  21.0721870   7.8234013
  79.9810362  56.3844156  56.1777258  79.1711712  56.1959696  55.7035494
  80.0271320  57.3401833  56.2026453  45.8257015   7.4912830  30.0231178
  46.2657125   7.9225155  30.7556828  45.5028398   8.2107445  29.4805630
  71.3677883  71.7294073  46.9420528  71.8128586  71.1594868  47.5692177
  71.9748926  72.4569893  46.8068409  87.8685587   9.2787002  47.9634102
  87.0655411   9.0607213  48.4365662  88.5716265   9.0887903  48.5845860
  33.9544733  30.6496759  33.0758961  34.1195591  29.9851175  32.4070557
  34.1459234  31.4803692  32.6405342  84.6246719  36.8279910  35.7223821
  84.2871284  35.9622431  35.4926443  85.5451393  36.8033171  35.4609013
  30.9055700  77.9613375   5.5315025  30.4810419  77.5184106   6.2662275
  30.4032316  78.7678121   5.4153927  84.4143503  56.6000794  11.6218670
  84.2788332  55.8722161  12.2285660  85.2575033  56.4137768  11.2088116
  59.2548943  39.1871142  65.0010395  58.4682560  39.7302365  65.0505686
  58.9687109  38.3914089  64.5525026  84.5657444   7.0385981  71.6768217
  85.2643108   6.5680230  72.1315718  84.5672512   6.6730964  70.7921505
  61.5080125   1.5287204  33.6276920  60.6835992   1.9395967  33.8880165
  61.5605123   1.6745420  32.6831253   9.1597547  74.1159366  48.0940159
   8.9688673  74.2024611  47.1600445   8.4015836  73.6538600  48.4516342
  25.1881702   1.6248174   0.5974491  25.4585369   0.7410093   0.3484209
  24.4512804   1.4908500   1.1935003  47.8601749   5.7225796  23.7455567
  48.7466867   5.8475300  24.0842446  47.9707058   5.1396747  22.9943951
  77.1070337  24.1298199  70.2382040  77.1333027  25.0674677  70.0475264
  77.8999186  23.7803817  69.8314285  75.0686796  22.9309746  33.4730633
  74.5014341  23.2310053  32.7628239  75.4325254  23.7345405  33.8447197
  33.8423395  26.0443854  69.0986776  34.5720458  26.5509105  69.4553185
  34.1237617  25.1326704  69.1749239  40.7648277  64.7770309  63.6663628
  40.1871729  65.5372667  63.7340498  40.1713800  64.0262413  63.6472368
  76.6619175  80.2694463   7.0168694  77.1044987  79.4450210   6.8151863
  77.3107403  80.7764481   7.5049313  12.0159061  14.4606443  36.0262879
  12.7119691  14.7467561  36.6177853  12.4734933  14.1955372  35.2284439
  73.0594873  27.4767971  57.1268797  72.3244619  27.3140597  57.7180529
  73.8343477  27.4148893  57.6854372  63.9690781  80.8522701  71.0227251
  64.6480131  80.2175617  70.7937622  63.1493807  80.4283810  70.7684898
  60.8851021  52.6100169   0.8557280  61.4025276  53.0251883   0.1657065
  60.1133912  52.2686313   0.4038962  78.7729740  34.6101069  63.0878448
  78.9394093  33.7632942  62.6737881  78.6090708  34.3991899  64.0070200
  32.7402517  33.2795286  64.2520952  32.8006288  32.6255536  63.5557461
  32.4945947  34.0874100  63.8013077  40.2571096  74.0700792  24.1091068
  40.4691114  74.6971201  24.8005589  41.0851373  73.9315223  23.6493214
  68.0508344  14.7119327  12.6756390  67.4716799  14.1890569  13.2300861
  67.7299772  14.5626922  11.7862518  82.5594671   4.1916271  24.1977604
  82.2810323   4.1802212  23.2820233  83.2779367   3.5603996  24.2375191
   3.0658371  11.2021585   8.4414585   2.5863631  12.0208164   8.3144386
   3.9014633  11.3424345   7.9961689  72.2355080  39.2160153  61.9703007
  71.2901258  39.0664577  61.9597149  72.4412918  39.3830323  62.8900814
  26.2786539   1.8190380  19.2677220  26.4832313   2.3667236  18.5098084
  26.0801132   0.9597393  18.8956650  64.6211202  24.0531488  26.5246971
  64.4639356  23.9129587  27.4584396  64.0077169  23.4627100  26.0872563
  13.3023967  75.7458733   1.9745310  13.5674085  76.4786433   1.4186056
  12.4528446  76.0088395   2.3285635  52.3851926   0.2906986  35.8702381
  51.5272195   0.6900783  35.7266625  53.0052335   1.0132499  35.7717236
  71.0461663  26.8705507   8.7820633  70.3104411  27.1730705   9.3144329
  71.7605017  27.4699970   8.9979847  87.5828362  70.5814743  71.4866209
  88.4601498  70.9524155  71.3920450  87.3828411  70.2166367  70.6245708
  68.3645208  15.6097313  21.4657410  69.2459352  15.9058090  21.6930779
  68.1750352  16.0397859  20.6318386  34.7309580  68.9115070  12.8910263
  35.0082578  68.3299087  13.5989006  35.4268732  69.5660948  12.8323563
  59.0242250   0.3863855  51.6507347  59.4490297   1.2239834  51.4658173
  58.2698877   0.3652473  51.0618694  81.0153614   2.9263063  44.1697319
  81.9543563   3.0065294  44.3373211  80.6370245   2.7142902  45.0230511
  50.0346088  70.7037449  61.0524750  50.4740334  70.0048876  60.5679846
  49.1603708  70.7503843  60.6654787   3.9178829  23.7819954  17.8802498
   3.4209518  24.5690437  17.6569851   3.5557441  23.1011863  17.3131664
  58.9127691  31.3907762  21.1481388  59.3367918  32.1215769  21.5979965
  59.3744905  31.3236519  20.3123577  45.3549583  33.9691396  17.1085461
  45.3838689  34.8865076  17.3802670  46.0359914  33.5435053  17.6293762
  55.6136408  65.0302743   2.4158676  55.7129850  64.1150759   2.1536167
  56.4091196  65.2251624   2.9113062  13.3852615  76.0827326  11.5319546
  13.5950699  75.5376457  12.2903069  12.8263559  75.5292915  10.9864720
  73.3320196  23.7309404  24.9260719  73.6233385  22.8794428  25.2521427
  73.4931333  23.6942669  23.9832409  44.9550779  23.0806442   5.8221396
  45.0598486  22.1981378   6.1777170  45.7225807  23.5583158   6.1367758
  73.0390644  46.6090488  67.2027206  73.1481647  45.7048798  66.9080925
  73.8875055  47.0194578  67.0355511  30.8602674  22.8270956  45.6195171
  30.6872423  23.1973072  46.4851006  31.7852027  23.0144354  45.4594143
  63.5563374   0.8196329  52.7595234  63.2085514   1.7009196  52.8959465
  63.1734514   0.5369510  51.9290304  17.4354799   2.9421373  21.0879334
  18.0896528   2.2738167  21.2919911  16.6076429   2.5662704  21.3873299
  70.2879381  68.0246544  55.1322031  70.1108551  67.6756477  56.0057354
  70.1281977  68.9649630  55.2130556  42.1945913  38.3574148  12.8140362
  42.1074302  39.2809435  13.0500897  43.0346162  38.0926462  13.1888493
  15.0057371  15.0610681  20.5094345  15.1756723  15.8482977  21.0267647
  14.9026115  15.3810545  19.6132191  27.2350301  55.6896471   5.3518112
  27.5483789  55.0477253   4.7146423  27.8209486  56.4389740   5.2448471
  37.6012029  67.9102300  24.6521576  37.2559251  67.8069757  23.7653931
  38.5514917  67.8671860  24.5456894  20.7168092   3.0411050  71.6991711
  20.8853426   2.7275845  72.5877237  21.5857210   3.2184407  71.3389158
  85.6232889  13.1535764  12.6237400  84.9133451  13.5074039  12.0880039
  85.5273683  12.2039314  12.5515946  82.1906488  74.9800800  32.6033409
  82.8262251  75.5284594  33.0632885  81.6333931  75.6012009  32.1343907
  76.8989897  63.4578466  62.0837307  76.1198997  64.0043449  61.9808006
  76.7393780  62.9620552  62.8868198  79.9103315  15.2879902  21.9712170
  80.2347143  14.8422714  21.1886891  79.7557600  16.1888548  21.6869934
   9.9948236  39.1394258  62.7382708  10.3531954  39.5587754  61.9560051
   9.3405363  39.7579575  63.0631685  74.2412050  35.8932729  15.4424484
  74.3963678  35.4346367  14.6167286  73.5074670  36.4792629  15.2567299
  25.7269277  80.2877377   6.9803150  25.2589216  79.9578022   6.2132843
  25.1566019  80.0745558   7.7189024  27.0717771  19.9569793  37.7757271
  26.8607290  19.1060014  38.1598194  26.9149740  19.8422333  36.8384560
  66.0797079  16.9050880   5.8177002  65.8665330  17.1980425   4.9317177
  66.9963129  16.6341062   5.7663258  16.6574117  42.1331549  71.6980696
  16.8124220  41.2031555  71.8633270  15.9609052  42.3722410  72.3095846
  43.2057483  15.3014847   8.4605129  43.7775047  15.2415891   7.6951798
  42.3213918  15.3405042   8.0963429  47.4598779  74.0469502   2.5890453
  48.1672945  73.6528825   2.0786436  47.4732484  73.5745786   3.4214600
  81.2898827  44.6267939  70.5770350  81.3221455  44.1734552  69.7346163
  81.4369774  45.5472612  70.3594732  73.1315756  19.4176698  36.3236499
  73.5115528  19.3740380  37.2011161  72.2562647  19.0432000  36.4227939
  83.1195695   6.4695354   8.2852371  82.8036649   5.7993646   8.8912972
  83.9864404   6.1626955   8.0195101  72.5008733  26.3154217  25.5269249
  72.6967199  25.4025598  25.3158386  73.2124765  26.5849491  26.1076267
  12.7804262  78.5312655  62.1459436  13.7257750  78.4404108  62.0263958
  12.6544697  78.4964102  63.0941772  17.1036615  81.3421463  20.5004986
  17.1733036  81.8626403  21.3007935  17.4102106  80.4714178  20.7536610
  73.9431906  24.2191315  59.8856592  73.0333281  23.9244437  59.9248409
  74.3879700  23.5539818  59.3603182  81.2740820  70.1662849   5.1189860
  80.9360903  69.2868184   4.9500569  80.5998152  70.7521700   4.7749861
  21.1704769  38.2716902  26.7646130  21.7944135  38.9298897  27.0707329
  21.0119810  38.4996643  25.8485611  27.8512049   9.8938823  58.8602781
  27.0320034   9.8965335  59.3553877  28.1711173  10.7939434  58.9217329
  19.4427290  42.1579627  26.1697586  18.9089288  42.9523225  26.1530121
  20.3140392  42.4491993  25.9009941  69.3433612  32.3236214   5.4595335
  68.5605471  32.8733264   5.4950245  69.6309345  32.3749338   4.5479973
  69.9481552  57.5472461  17.4509819  69.4997518  57.7943562  18.2597454
  70.3353136  58.3628463  17.1329601  16.5678140  12.4473202  58.8369226
  15.7840082  11.8986106  58.8651466  17.2801325  11.8607092  59.0913343
  82.1514759  64.4272712  67.4686289  81.7654214  63.5992423  67.7542210
  82.6576839  64.1992047  66.6889048  84.6941631  39.7217517  34.7132786
  84.1133230  40.2135915  35.2937515  84.5114725  38.8037034  34.9133881
  71.8729353  18.8694012  57.8856516  71.1462307  19.4438052  58.1268835
  72.1360683  18.4575379  58.7086725  67.3369932  12.4363387  55.3899670
  66.8911314  12.5440550  54.5498276  67.8162718  11.6123617  55.3028536
  17.2774155  53.1775239  68.6429977  16.3232548  53.2436827  68.6809206
  17.5093872  52.6284364  69.3919468  75.9928816  45.1987286   3.3125647
  75.8447426  44.9126409   2.4112089  75.2407282  45.7554995   3.5138186
   7.8869714  19.2390608   8.3205803   8.2426681  20.0953125   8.0827816
   7.7472772  18.7968015   7.4832447  76.5412760  55.5805159  50.2538300
  76.7628908  55.9665012  51.1012602  75.8642197  54.9343777  50.4546547
  42.9604340   6.4063203  68.5518646  43.7483168   6.8727016  68.2726526
  42.2819996   6.6955763  67.9417133  78.6903112  50.7396637  39.8095043
  77.9857939  50.3772484  39.2723473  78.7737863  50.1269882  40.5401905
  70.9062927  58.3223223  25.2177437  71.6526192  57.7452813  25.0557240
  70.2946585  57.7867078  25.7229717  23.4670980  16.8471761   1.9472130
  24.2664011  16.9496341   1.4306362  22.7615602  16.8523737   1.3003595
   4.7323789  39.3697684   5.8262976   4.3683042  39.2340416   4.9515064
   4.2650547  40.1336815   6.1643417  41.4719286  47.7810721  17.6556786
  41.9493284  48.5292368  17.2971161  42.1263303  47.2996365  18.1618317
  65.1917171  28.7994146  55.1500940  65.9322405  28.3233190  54.7743416
  64.9075460  28.2578278  55.8864117  62.1316767  18.1800699  64.5618725
  62.8318024  18.1850719  65.2145863  62.4422646  18.7676048  63.8729858
  62.1564627  12.8751850  65.1414633  62.6027346  12.6987052  65.9696722
  62.1603394  12.0346785  64.6834612   9.2361052  45.8411887  58.1427670
   9.4151671  46.6340616  57.6372766   9.5846135  45.1303270  57.6047611
  70.2320259  44.6407701  10.5911263  71.0987203  45.0453891  10.6279381
  70.2751558  43.9241751  11.2242706  19.7741348  75.7376280  69.1966200
  20.6642897  75.5136159  68.9251947  19.4801361  76.3778928  68.5486555
  19.7487821  46.8121963  36.6034229  19.0948238  46.1155810  36.5459927
  19.7995939  47.1667855  35.7157810  34.2483511  61.3849210   6.4442022
  34.5912065  60.7848214   5.7819660  34.0330972  62.1807359   5.9578093
  51.8479013  12.8000402  59.2449093  51.5937519  13.7162292  59.3555403
  52.2618341  12.7687776  58.3824062  71.1461973  21.3172722  71.9381714
  70.2132225  21.1092091  71.9881916  71.5769339  20.4668617  71.8515682
  64.3293762  29.4685650  65.6241608  63.7379313  28.7703276  65.9050369
  64.1297960  30.2006674  66.2076235  85.5573337  29.6976231  32.9984196
  85.8358591  28.9226126  32.5105484  86.3741320  30.1103877  33.2789429
  38.9191866  16.8771231  70.3956270  39.1168118  16.1350906  69.8241711
  38.5382342  17.5336957  69.8125172  72.6047659  16.4242840  47.1360683
  73.1906033  15.8001530  46.7077160  71.8512392  15.8992183  47.4057674
  57.2629278  71.9204019  21.1571129  57.0277398  72.8395175  21.2841709
  57.3346298  71.8205403  20.2078446  32.1581585  81.5593526  69.7180986
  31.8110401  82.1829484  70.3559589  32.2150547  82.0574462  68.9026833
  57.5251215   3.3812617   3.1698664  56.6092699   3.3634828   2.8921374
  57.6415413   4.2494153   3.5558565  29.6169557  67.8711675  28.8272484
  29.2605295  68.5390757  29.4129952  28.9297571  67.2068762  28.7751778
  87.5912380  34.4636655  51.2770462  87.1221161  33.7124896  50.9138727
  87.2743130  34.5313311  52.1777201  59.0961218   7.3090154  58.4667635
  58.7370348   6.7513263  57.7766418  59.1504240   8.1777996  58.0686474
  75.1954382  19.3088936   6.9776209  75.7483547  18.5525011   6.7817028
  75.2724617  19.8684572   6.2048443  22.9941930  48.8272153  34.0027626
  23.0672350  48.5619633  33.0859573  22.0520010  48.8887571  34.1599568
  10.1469857  79.4059777  56.0740852  10.0413353  80.1287553  56.6926813
   9.4938476  79.5745566  55.3949499  11.7182333  80.2450621  60.0018930
  12.1887428  79.5431817  60.4515791  11.9685204  80.1506475  59.0828323
  83.4516685  35.8844434  21.6341026  83.9229076  35.2788447  21.0618981
  83.6790340  36.7531480  21.3026055  20.4003317  67.8996423  49.0888977
  19.7415526  67.4136236  49.5849133  21.2018091  67.3857167  49.1875982
  61.3007515  63.5731410   7.0906933  60.7959288  64.3748592   7.2271975
  60.8024423  62.8955959   7.5476988  85.5232065  59.1925548  14.6316345
  85.6886452  58.3020662  14.9412926  85.1383083  59.0764200  13.7629517
   5.6530323  56.1177717  13.8333233   6.3096418  56.4780902  13.2372864
   6.0722341  55.3454899  14.2129048  30.0512964  74.4409683  29.3087316
  29.5193560  74.2871931  30.0895190  30.0630648  73.5971811  28.8569403
  67.6537102  49.8031001   9.4500359  68.5053127  49.7288572   9.0193470
  67.0761841  49.2369657   8.9379891  16.0962429  68.0691336   2.1346434
  15.6540479  67.4848436   2.7505167  15.8388414  68.9484333   2.4117859
  84.3102169  11.4714026  28.2010722  83.5175228  11.9405723  28.4613371
  84.9681950  12.1573055  28.0877733  31.8159189  66.1432909  28.6846550
  31.5754594  65.7212065  29.5094307  31.1206808  66.7831420  28.5314472
  79.2418289  19.4360983  36.1443448  79.7624302  19.3760991  36.9453454
  78.5915184  20.1130795  36.3315010  84.4272344  78.8891267  21.5493591
  84.4145840  79.8085402  21.8153580  84.8270481  78.4313368  22.2888287
  77.4024296  10.5153227  66.0862637  77.8781557  11.3456666  66.1074066
  76.5454149  10.7207119  66.4598608  61.4724882  20.8740087  27.0532807
  60.6460245  20.6409307  27.4762161  61.4997537  21.8300625  27.0913799
   5.3976383  24.9645327  11.8952091   5.8441295  24.7017609  12.7000912
   4.7158088  24.3039321  11.7729386   1.5417215  25.1353073  50.9657478
   0.8484861  25.6730580  50.5830240   1.8648073  25.6512260  51.7044497
  78.4486198  15.8355486  69.0656376  77.7365112  15.6935036  68.4419775
  78.0141830  15.8903873  69.9168062  84.2002075  70.2416276  29.7082623
  84.2703836  70.7667803  28.9110573  83.2888620  69.9492835  29.7230347
  84.8956793  48.0910258  29.7741039  84.9910753  49.0198647  29.5634087
  85.7780998  47.7322452  29.6800812  25.6811578  23.0310293  23.5344990
  25.4818637  23.5861440  24.2883976  25.3056772  22.1794363  23.7581928
  26.4782514  53.4507226  20.8017929  25.5552091  53.4771668  20.5497368
  26.7678823  54.3613600  20.7462414  50.0726022  34.2392974   4.5792254
  50.0899591  35.1905786   4.4743736  50.8803739  33.9377360   4.1635426
  86.2207573  76.7092489  14.4364174  86.3548534  77.0364474  15.3258999
  86.9788330  77.0285534  13.9469250  66.7357111  15.6588066  60.4870367
  66.3520861  16.2598181  59.8484087  67.6259995  15.9850144  60.6182194
  75.3887033   4.8984075  45.3175974  75.9058666   4.0983933  45.2240515
  76.0238314   5.5649257  45.5795145  71.4434297   5.7593199  15.9223946
  71.7338140   5.0572916  16.5046890  71.2228448   5.3154369  15.1035221
   6.3809290  64.7337292  21.7949589   6.8611374  65.5117844  21.5116509
   7.0297231  64.0303253  21.7721184  54.1560967  74.9064377  64.3600368
  53.5114891  75.4103419  64.8568201  54.1180737  75.2735344  63.4768486
   0.8192005  65.5916165  22.4154099   1.2906637  65.2258824  23.1638725
   1.4729061  65.6327318  21.7174061   4.5306387  73.4062265   3.3055218
   4.9965515  72.8186177   2.7106531   5.1103534  74.1622566   3.3981617
  21.3469322  26.9002958   9.7416313  21.3411195  27.6413961   9.1358574
  20.7930954  26.2426754   9.3208798  51.0089254  10.4037035  54.7681999
  50.2487087  10.3358340  55.3458643  50.6514549  10.7183194  53.9378595
  12.1403780  56.1270069   1.6428574  12.1022834  55.1733779   1.7161616
  12.0803299  56.4392172   2.5457152  10.1618614  58.0885886   4.5259245
   9.9456634  59.0182625   4.4538363   9.3981590  57.6972746   4.9500330
  20.2409067  61.3888692  24.2473610  20.6502905  61.8905782  23.5424240
  19.3427267  61.7176389  24.2849548  19.1480674   3.2928442  27.6054867
  19.0971365   2.7932190  26.7906101  18.2615461   3.2563351  27.9646214
  -0.0570290   6.4167305   6.1046894   0.0551755   6.6269823   7.0317515
   0.1095493   7.2423931   5.6499727  55.9769440  51.4840603  71.1442041
  55.0941372  51.3528395  70.7982826  56.4264345  50.6563139  70.9738350
  82.1184557  68.8028930  32.0658024  82.0483368  69.4334792  31.3490875
  81.2234323  68.4904908  32.1983727  43.5916700  58.8813101  40.0007923
  44.5322408  58.7125348  40.0561913  43.4995355  59.4840919  39.2629631
  29.2718782  19.5771741  31.1309345  28.6251535  19.0135335  30.7063397
  29.4415559  20.2700471  30.4926785  53.8605595  27.2799492  57.1093893
  54.3027544  26.5985847  56.6029930  54.1490746  27.1340680  58.0103397
  30.3944292  49.3596112  10.3927811  30.6404676  49.8916845  11.1494740
  29.7587289  49.8961483   9.9192246  65.5833309  66.1304592   1.7063721
  66.2523811  65.8075713   1.1027582  65.9170382  65.9074591   2.5753601
  62.5637205  11.2485262  33.5898693  62.4126108  10.5066057  33.0042561
  61.6886098  11.5885683  33.7763603  87.7625864  45.0233578  14.2704018
  88.6723678  45.2358808  14.0621670  87.7929609  44.1182308  14.5803269
  59.2792797   2.8335255  34.1521883  59.0171051   3.0586457  35.0448322
  58.4612370   2.5980902  33.7144637  40.4341347  77.5403967  65.3358221
  40.4751904  78.4111738  64.9404812  39.9504597  77.0117631  64.7011328
  62.1505690  17.2246778  24.5269823  61.4051580  17.5081563  25.0563574
  62.8229856  16.9898653  25.1664734  16.0127851  26.1827922  71.1378765
  15.9729502  25.8270884  70.2501106  16.8857309  25.9466147  71.4515829
  50.1397116  75.1637766  68.1248903  50.4672701  76.0626855  68.1549311
  49.5435984  75.1010135  68.8711739  15.5103578  40.3426029  14.2996128
  15.7762708  41.0080909  13.6650665  15.9071388  39.5330116  13.9781197
  73.3276146  78.6093973  19.4310864  72.6087444  78.0689238  19.1034516
  73.6694591  79.0503763  18.6533268  17.5786860  79.3177509  42.5366449
  16.7448599  79.2947897  43.0061626  18.1512482  78.7361121  43.0367422
  70.2724743  35.6507587  47.5465298  69.8195887  35.6902599  46.7041683
  70.0742674  34.7773409  47.8842974  29.0703096  77.2067021  23.0543049
  29.7756185  77.7679561  23.3764179  28.5450735  77.0127033  23.8306530
  51.9636471  58.0295542  52.5208759  51.8943627  58.4878138  51.6833591
  52.8930122  58.0787805  52.7446651  24.6699800  60.6390296  24.9591644
  24.7192087  60.6645261  24.0035732  24.2491617  59.8019110  25.1550682
  85.9346216  30.9291385   2.0069464  85.6669157  30.4728578   1.2092169
  85.4202383  31.7363786   2.0052393  61.6400862  29.5335627  61.7033529
  60.8159781  29.0594220  61.5925980  62.3140144  28.8549757  61.6637707
  70.6589508  25.9488606  68.0146170  69.9821043  26.0593224  67.3468542
  71.3496351  26.5602946  67.7590084   4.9241104  62.5696777  14.2973622
   4.5883550  63.3908080  14.6568688   5.8753624  62.6758980  14.3054398
  75.9254456  17.9058743  70.2767467  75.2459097  18.5006046  70.5941725
  76.7459297  18.2993150  70.5738068  40.7849009  61.3413742  28.4175587
  41.1639578  61.0865095  29.2587447  41.0959704  62.2354391  28.2757282
  11.4622488  41.3226258   4.8376520  12.1071424  41.2366090   4.1355522
  10.6233062  41.4027241   4.3837889  55.8577156   0.3416624  62.1289444
  56.2236691   0.7185689  62.9291058  55.0934649   0.8847740  61.9361258
  61.4381266  38.3833933  71.9396687  60.7409525  37.7340579  72.0320749
  61.7006445  38.3238816  71.0210943  42.7422571  16.1226976  70.6087399
  43.6899900  16.1999667  70.7185888  42.5122643  15.3174758  71.0723686
  13.4713156  80.9061652  51.5323877  13.4109146  81.2310465  50.6340361
  14.4109709  80.8202895  51.6933537  10.6343116  61.2698828  22.7538784
  11.3736620  60.9256374  22.2527893  10.6226577  60.7454120  23.5545262
  70.4138630  56.9678627   6.9866141  70.6253450  57.4839293   7.7645500
  70.3274982  56.0711764   7.3102291  51.3577366  35.4006243  60.4964209
  51.9784403  36.0174108  60.1084375  50.7649088  35.1746559  59.7796774
  35.1105768  69.4987705  70.2222490  34.4276030  68.9681902  70.6324434
  35.8408672  69.4686571  70.8403111  57.7635319  59.8402312  52.5643253
  58.6262638  59.9878004  52.9518223  57.3112042  59.2785004  53.1936789
  21.3745298  50.3234415  14.8010643  21.7895212  49.4629656  14.8610600
  21.6665830  50.6719964  13.9587792  50.9832127  61.4559176  71.2972784
  51.0087330  61.9701436  70.4903364  50.3273089  61.8938520  71.8397188
   7.6114216  54.6686994  55.5589970   6.8937053  55.2328013  55.2710636
   7.5067510  54.6139716  56.5088852  38.0746849   3.0658384  11.0381134
  37.1365173   2.8838392  10.9838112  38.2950838   3.4434791  10.1866253
   2.4142971  80.4507302  39.0497978   3.3648910  80.3385114  39.0464218
   2.2247877  80.8630084  39.8926266  36.4824278  60.3712442  49.9391127
  35.7163221  60.7645419  50.3570032  36.9324000  61.1066607  49.5232821
  75.5216854  56.1439132  16.4546593  76.0801952  56.3989471  17.1889980
  74.6901148  56.5879236  16.6207131   6.8753359  13.3141184  63.8319635
   6.5905401  12.4013186  63.8758326   7.6559278  13.3483124  64.3849039
  11.3934650   1.8030285  13.5470780  11.9796743   2.5520252  13.4393891
  11.2808742   1.7212175  14.4941052  65.0645065  39.4585657  45.6619692
  65.0051403  39.6958995  44.7365618  65.0784206  40.2968645  46.1238098
  59.9656439   7.2508520  54.5357847  59.5640087   6.4073163  54.3275309
  60.8122587   7.0244855  54.9207926   0.7599439  61.6153787   4.5466097
   0.9904089  61.1233484   5.3346594   0.1501264  62.2865247   4.8530682
  13.6934843  12.7080058  61.7606838  13.6175384  13.2519029  60.9766873
  12.8992452  12.8962706  62.2606571  21.8881406  34.6018367  22.4649056
  20.9894886  34.8451929  22.6872547  22.4019708  34.8571824  23.2310684
  71.8011808   3.3454412  55.5538273  72.0449829   3.0855110  56.4422131
  72.5639200   3.8217363  55.2258015  36.5172567  50.2185266  10.8168228
  36.4080801  49.5096861  10.1829060  35.7079401  50.2095782  11.3278587
   0.3084776  28.3675194  62.3811340   0.7324335  28.2669973  63.2334232
  -0.0951174  29.2348027  62.4151945   7.7923002  27.4960719   0.0516136
   8.1432476  27.8593432   0.8646973   8.5426893  27.0721279  -0.3648273
  26.1576929  66.6923403  17.0785149  26.3955297  67.5025009  16.6276177
  25.9477605  66.9676517  17.9709061  26.4730539  73.8609098  48.5640438
  25.7507505  74.2303394  49.0720089  27.0641699  73.4929465  49.2208679
  77.6611154  49.6780067  28.5853203  78.3765524  49.3698524  28.0290611
  78.0813282  50.2679728  29.2110928  31.9876487   6.0196872   0.4688461
  31.4508779   6.1360641   1.2527903  31.4805849   5.4235645  -0.0822965
   5.6126585  54.3941103   8.3780773   5.8028164  53.7201701   9.0306671
   6.4733543  54.6954225   8.0871399  35.7185640  64.4576381  33.7876995
  36.1358156  63.7306999  33.3254345  35.6291380  65.1428746  33.1253727
   0.8224222  16.0587263  70.6631327  -0.1312330  16.1344850  70.6310177
   1.1223718  16.9250357  70.9383917   5.8473529  62.5713514   5.5661781
   4.9833097  62.9426931   5.3879412   5.9905805  62.7346681   6.4984043
  35.1230325  58.0141853   9.6649368  35.4453649  58.8026964   9.2283734
  35.2444162  57.3169767   9.0204247  26.7715826  76.0372232  28.1414898
  25.8465280  76.2828707  28.1544026  27.0190420  75.9872602  29.0647991
  70.1769083  11.1552738  16.9366844  70.3697794  11.1630749  17.8742226
  69.9788635  10.2395629  16.7405136  15.3255439  28.9868808  26.3606763
  14.4749856  29.3934774  26.1949635  15.1193953  28.1926918  26.8536258
  75.8909845  30.4854965  62.5897646  75.4451370  31.0885954  61.9950199
  75.3396225  29.7030616  62.5951433  44.7325237   5.7445760   3.3383234
  44.1555221   6.3440653   2.8651245  45.5309589   6.2502952   3.4899195
  17.2093429  57.2251915  32.3946388  17.8514852  56.5232145  32.5000675
  17.7084055  58.0295991  32.5363930  45.1018602  74.8368809  67.8059435
  44.9487002  74.1234538  67.1864319  45.7215149  74.4750729  68.4394693
  16.2528648  32.0267748   5.0526341  16.8408813  32.7318673   4.7818716
  15.3766670  32.4059759   4.9839934  65.2877998  25.8874154  42.8822422
  66.2270308  25.7032824  42.8690958  64.8788071  25.0656867  42.6107359
  59.5837593  30.9152269  63.6383343  59.7999907  30.2167106  64.2560339
  60.4257298  31.1708903  63.2615566  24.9418344  59.5248686  19.5498760
  25.7805433  59.9358009  19.7594555  24.4037428  60.2392124  19.2086990
  80.8168285  34.9923574  22.5158127  80.8212297  35.3591965  23.3999165
  81.5911978  35.3678947  22.0968254   2.2993936  46.0202365   5.6958922
   2.5311126  46.2762766   4.8031529   2.7672043  46.6426628   6.2526377
  60.9875011   5.1641285  42.1243286  60.5970144   4.5183715  41.5354729
  61.7560244   4.7236508  42.4870777  -0.2655135  37.1467196   5.0127609
   0.4909553  37.2382303   4.4334372   0.0416174  37.4683909   5.8603628
  39.0074474  55.7631043  35.9036946  38.7503941  56.6753057  36.0380077
  38.7407477  55.5689266  35.0051403  46.3616743  61.4056550  46.0392292
  46.6787901  61.7276763  45.1954468  45.5877294  61.9379853  46.2232311
  62.3525746  70.0427452  71.4458847  62.8979523  69.6586898  72.1324015
  61.6686947  70.5158797  71.9198990   2.9623815   4.8200136  28.9931250
   3.3239195   5.7002550  29.0965724   2.0143911   4.9511075  28.9745426
  84.4902342  37.7652090   0.8027895  83.6206358  37.3652383   0.7951601
  84.6501463  37.9731720   1.7233379  43.9028914  80.9178537  49.3408489
  43.9146359  81.8586984  49.5166492  44.8166687  80.6464845  49.4280005
  69.7435158  54.6056258  56.7705925  69.8181503  54.7583925  57.7125748
  70.1361339  53.7430917  56.6359909  15.8039512  42.9096748   2.0364245
  16.1189499  42.0207148   1.8728502  15.4265299  43.1874165   1.2017735
  65.5136633  35.5005121  61.0899687  66.2802172  36.0723662  61.0497952
  65.8725834  34.6147490  61.0367250  47.1424150  12.2434270  67.1874475
  47.2050238  12.9799271  66.5792704  47.5440264  12.5646544  67.9947615
  69.4227331  66.9125937   7.0396336  68.7729352  66.2631439   7.3083552
  69.9848240  66.4469742   6.4203747  74.8970383  72.7371143  12.9339131
  74.1400640  73.0534123  13.4270485  74.5200985  72.3060917  12.1668537
  36.8550856  70.0747433  40.8656216  36.1323530  70.0883534  41.4930820
  37.4929316  70.6933895  41.2215185  63.2562828   5.9617817  70.6758118
  62.9583740   6.8590367  70.8255291  63.8790035   6.0337293  69.9524355
  15.6640264   3.2332388  33.3129692  15.7755682   2.2921316  33.1784058
  15.9262487   3.3779329  34.2221093  62.9897680  73.8996242  28.2347782
  63.5705080  74.5905041  27.9159363  62.1079626  74.2461942  28.0986508
   9.7603359  68.6897682   4.6833285   9.3447342  69.0906428   3.9199074
   9.0796938  68.6939000   5.3563364  38.3356697  82.9845213  29.2891479
  39.1319973  82.5063426  29.5203209  38.1784947  83.5629973  30.0354004
  15.3023016  35.6887937  43.6214495  15.3193343  35.7723284  44.5748472
  14.4911802  35.2152109  43.4369659  53.5387278  24.0856123  59.8683786
  54.4692469  24.0175939  59.6545076  53.3468008  23.2866669  60.3593826
  80.9639263  32.9898548  59.1605663  81.1386108  32.0935440  58.8736105
  81.4367771  33.0726719  59.9886894  59.5087385  10.2990019  57.3841858
  58.8482904  10.9379959  57.6520014  60.0569487  10.7698989  56.7565298
   2.1768274  68.6114072  34.2103489   2.7675953  69.3644689  34.1993435
   1.8527021  68.5743879  35.1102360  56.8851120  54.3040278  62.0382738
  57.7488548  54.1520551  61.6547585  57.0639832  54.5190146  62.9537058
  65.0464296  30.8206558  59.5432377  65.3732252  30.6339359  58.6631393
  64.4981480  30.0666118  59.7601175  81.3596743  69.5960997  29.3524368
  81.3487404  68.8333415  28.7742432  80.5308788  70.0416373  29.1768654
  32.8175535  48.7080317   6.4046152  31.9498624  48.6444776   6.0054644
  33.3714475  48.1441926   5.8646925  68.6830759  41.5323687  62.1110678
  67.9256868  42.1061373  61.9953775  69.4389391  42.1007538  61.9632721
  15.6310713  34.9382067  55.0118113  14.9427843  35.1688719  55.6357384
  16.1889613  35.7150292  54.9726057  85.2086735  15.7025373  71.4595413
  85.4816437  14.7855532  71.4302397  85.6132412  16.0475516  72.2554827
  62.8821039  15.4100132  68.1263733  63.7437868  15.1263881  67.8209257
  62.2859907  15.1720083  67.4162769  87.9242247  34.6915977  -0.0788061
  88.1608312  35.5122100  -0.5110590  87.4243992  34.9620532   0.6914290
  26.3430109  49.0634047  37.4651726  27.2886934  48.9172332  37.4886234
  25.9758272  48.3371388  37.9691036   6.0361501   8.6481607  58.6306763
   5.7847997   8.8409615  59.5339394   6.0175821   9.4978541  58.1903267
  42.0823891  74.6296200  55.8924198  41.5183956  75.0451437  55.2401304
  42.9708655  74.8668870  55.6268263  68.5704668  15.3149267  33.2452305
  67.8339632  15.6753345  32.7513703  69.1047342  16.0770174  33.4688481
  73.1319284  21.9606137  53.4054804  72.9615784  21.0187602  53.3942127
  72.9002047  22.2564697  52.5251341  72.5135773  18.8303088   2.5900801
  73.3499735  18.6732696   3.0282696  71.9523161  18.1113838   2.8805359
  17.3587503  82.3817490  22.9822548  17.3123064  81.4264082  23.0196388
  17.4622478  82.6524018  23.8945397  69.4342201  60.7800459   8.0080755
  68.5454219  60.5682157   7.7227648  69.9795597  60.6081187   7.2404345
  22.3114671  71.9147228   4.6775587  22.1733179  72.8616165   4.7007998
  22.2143736  71.6810988   3.7543972  85.7363892  56.5713406  60.8171463
  85.7356071  55.6568575  61.0999012  85.1625919  56.5856838  60.0511312
   8.2027855  77.0560478  16.6021259   8.7585296  76.4936231  16.0626324
   8.7863388  77.7533172  16.9013127  61.9087076  31.8271732  51.3742352
  62.2349977  32.4530768  50.7277012  62.2829342  30.9881592  51.1054611
  73.6931055  80.9636616   9.8700817  72.7552526  81.1521815   9.9035652
  74.1046350  81.8179940   9.7397335  14.0773413  39.7534847  48.2072401
  13.7602636  40.3278828  47.5102711  15.0272867  39.8709893  48.2008553
  28.2615492  17.6057839  67.3646975  27.3044035  17.5963807  67.3686218
  28.4912130  18.4289873  66.9336319   1.3987657  18.3165884  39.3357706
   0.4687235  18.4987199  39.2013097   1.4632627  18.0679059  40.2578497
  55.7168825   8.6652323  37.4578579  56.5441854   8.2485767  37.2166165
  55.5011804   9.2208572  36.7088612  16.3090982  60.7060467   2.4559410
  16.7953148  60.6018578   3.2738503  16.4176836  59.8690223   2.0044668
  47.2975053  48.1862055  11.3530739  47.5302305  47.3045026  11.0620888
  47.2643461  48.1224572  12.3075779  16.4001217  79.0364407   2.8960903
  16.4055767  78.9785003   1.9406613  16.9428243  79.7999810   3.0928429
  35.3068151  64.1022013  19.4854553  34.6253194  64.7392844  19.2711552
  34.8541631  63.2587956  19.4874294  36.8779077  76.2475990   4.0758618
  37.7877035  76.0776042   4.3200262  36.3691892  75.9654259   4.8360069
  37.2716512  34.3403785  35.0730141  36.4546194  34.3358724  35.5716904
  37.2379388  35.1511674  34.5653637  65.0652456  37.9254651  64.3614912
  65.2527046  36.9946885  64.2400646  65.8866215  38.2949138  64.6856499
   0.2853414  43.8376617  60.2240372   0.7645628  43.0109835  60.1676846
   0.1075575  43.9482546  61.1580563  14.6742460  24.6238780  59.9279976
  14.0160486  23.9303708  59.9734020  14.1667482  25.4353929  59.9169731
  21.4585611  32.0208764  29.0212917  21.0054323  31.9639206  29.8625183
  21.9237253  31.1879849  28.9429307  39.1531107   1.6155119  41.2563992
  39.5219442   0.7540822  41.4516783  39.6785948   2.2243163  41.7754936
  23.5263338  56.1384879  43.4085377  23.8107195  57.0521425  43.3842762
  23.4433069  55.9381567  44.3408497   9.3611452   9.3187255  59.9336386
   8.8041422   9.8866391  60.4660368   8.9150545   8.4718513  59.9396753
  87.6273125  47.4611448  29.2886360  88.4177416  46.9418775  29.1409310
  87.9521101  48.3217906  29.5532616  25.3222044  20.1093431  27.5871475
  24.6926935  19.4549032  27.8899105  25.3919132  19.9566456  26.6447838
  36.7182626  78.6489509   2.8144797  36.8679800  78.0258559   3.5255154
  35.8276167  78.4633588   2.5169428  80.5929470  29.9219990  50.5438566
  80.2182674  30.6371379  50.0296354  81.0585022  29.3845558  49.9030399
  77.7410221  40.6567574  53.3906984  77.4508572  40.2577972  52.5704098
  78.6966228  40.6488943  53.3359861  54.6405275  32.2267576  13.8906105
  54.4137533  31.6806503  13.1379040  54.3474443  31.7223211  14.6494778
  50.2920206  42.2483583  15.9381588  49.7870643  42.9673429  15.5582722
  51.1204488  42.2580095  15.4587372  39.8085775  41.2130088   3.0735787
  40.4624929  41.9090360   3.1381949  39.7049417  40.8976458   3.9713724
   1.6782179  69.3984770  12.6156147   1.1032047  68.8827084  12.0503052
   1.8620004  68.8236951  13.3586319  20.1384821  51.6942858  19.0052899
  19.7027578  52.0975577  19.7561176  20.8787861  51.2203054  19.3841370
  66.4607191  45.7696438  43.6029959  66.2326145  46.6446018  43.2889080
  65.6845236  45.2399158  43.4209538  86.3163526  10.8702894  46.1380966
  85.7076891  11.0972257  46.8411263  86.9695146  10.3106542  46.5581234
  85.4951286  71.2561893  57.0481396  86.0974216  71.2181139  57.7911186
  85.9132862  71.8570185  56.4313841  21.6050329  41.4855256  10.1923569
  22.4697580  41.4872150  10.6028278  21.4453020  40.5673318   9.9740990
  19.6798250  31.8920493  34.3471336  19.2448446  31.3583112  35.0120807
  19.5707819  32.7922773  34.6536136  64.2501981  38.2837435  11.2713535
  65.2026327  38.3761640  11.2947567  64.0566881  38.0254884  10.3701885
  21.7708006  73.3387088  28.4402474  20.8294382  73.3533930  28.6130341
  21.9105997  72.5325130  27.9435166  22.8119299  14.5223010  68.0159283
  21.8881151  14.6994293  68.1931973  22.9662630  14.8996460  67.1498919
   9.1078908  14.6251913   3.7924822   9.9731453  15.0295778   3.8560732
   8.5129435  15.2714487   4.1727741   3.5727331  55.4757977  62.9481459
   3.4722063  56.2779713  63.4606314   2.8722498  55.5181074  62.2971678
  10.3361532  22.7881527  62.1439314   9.9706957  23.1773281  61.3494396
   9.5820448  22.6700020  62.7215052  13.7703647  72.7300690  19.3428715
  13.2300939  71.9966887  19.6369656  13.6714830  73.3905171  20.0286301
  18.3652248  75.2357553  17.8431423  18.3408870  76.1483048  18.1310566
  17.9719963  75.2493380  16.9705494   6.9408151  52.2747421  50.8316851
   6.8840620  52.5097370  51.7578506   6.0665151  52.4532032  50.4852915
  33.0605211  54.5527922  47.4350651  32.9509344  53.6842834  47.0478829
  34.0085592  54.6694015  47.4972828  40.2450933  46.6541909  15.1252278
  40.6690206  46.7666142  15.9760388  40.9429922  46.3420226  14.5492752
  27.5731870  16.9555497  56.8378258  27.8755209  17.3097718  56.0015535
  26.6605779  17.2372234  56.9013405  38.8398440  80.3830302  66.8134022
  39.4281370  80.4876465  66.0656071  38.3400471  79.5909062  66.6159725
  29.3125446   1.3662287  12.3967751  29.5194490   1.6874119  13.2744225
  29.0345438   0.4604097  12.5325878  59.2291481  76.7716554  54.9328566
  59.4237930  77.7050576  55.0171661  59.3787510  76.4157250  55.8087349
  73.2838876  16.4437004  33.4307011  72.8544385  15.8059068  32.8605850
  72.6811464  17.1868845  33.4554489  23.8404741  79.8622011  26.5904244
  23.2304563  80.5886029  26.4621742  24.1392126  79.9571513  27.4948414
  39.3079397  10.0445497  56.4236403  39.9115011   9.5344263  55.8835220
  39.5903799  10.9516609  56.3069820  38.2458520   6.9421190  45.3197670
  38.4019756   7.5603652  46.0336542  38.2097793   7.4876481  44.5340681
  25.0461664  33.7483256   6.2051781  25.4221525  33.0393492   6.7269238
  24.6558942  34.3388908   6.8494995  15.6774542  10.1041031  29.3689036
  16.4319727  10.2588749  28.8005829  15.7946703   9.2078263  29.6838355
  75.1659298  66.1154699  64.4737530  74.9249125  66.7328596  63.7831211
  75.7096577  66.6267776  65.0730467  68.4331846  27.2158456  47.6677179
  68.3240557  27.6561928  46.8248558  67.5849485  27.3132443  48.1004333
  55.9601362   0.5184932  37.0334919  56.1260183   0.5807014  37.9741581
  55.3852232   1.2595030  36.8421467  47.8570175  55.0101852  56.6138887
  47.8721476  55.6318235  55.8861732  47.1824741  55.3477001  57.2032166
  72.0905676  71.3967799   4.8552473  72.0782938  70.5440472   4.4205864
  72.5190057  71.9792007   4.2279823  26.5289327  54.4634295  66.3316011
  27.2500345  54.5240450  66.9581509  26.3588735  53.5248089  66.2522173
  35.6186175  17.5016212  62.6682138  36.2457752  17.8204894  62.0191908
  36.1045861  16.8466103  63.1692410  86.3858986  18.7980175  70.6356192
  85.9742832  18.9589727  71.4846754  85.6833076  18.4403002  70.0928020
  17.1082136  58.2294655  57.2540998  17.7592298  58.8945246  57.0302677
  17.4413511  57.8288794  58.0570793   9.2731657  72.4259256   9.0264233
   9.5964708  72.9061888   9.7886856   9.2984190  73.0637192   8.3131035
  13.9934656  14.1055763  56.8115425  13.0705187  14.1207433  56.5582275
  14.3555090  13.3478785  56.3521338  76.7331903  29.6274542  12.1643456
  76.1651438  29.9599384  12.8593357  76.9344442  30.3964471  11.6310795
  80.1306534  13.4029245  60.2262354  80.8824635  13.9579868  60.4333925
  80.4708672  12.5097299  60.2780771  59.8209858  47.9460716  69.1284323
  59.1365862  48.4493732  69.5694828  60.1670885  47.3664999  69.8070669
  13.1247541  60.3765059  59.1792870  12.3400900  60.7737112  58.8014555
  13.8482401  60.8983088  58.8321304  80.2394962  23.9264631  62.2246122
  80.0748253  23.5313869  63.0807877  79.9502754  24.8339295  62.3199606
   6.5815487  82.0856665  23.6911305   7.0993414  82.4780749  22.9881867
   5.6813612  82.3504876  23.5020264  27.4335691  54.3214226  47.4778271
  28.3260271  54.2576361  47.1377134  27.4882337  54.9779701  48.1722260
  43.4850111  49.1790657  13.1273182  44.3525972  49.3591164  13.4893902
  43.6125078  48.4109222  12.5706013  81.8508148   3.3175695  49.1524124
  82.3188591   2.9764614  48.3903027  81.8040180   4.2617059  49.0019178
  53.4444673  12.4243208  11.3131912  54.3629987  12.2302242  11.1265000
  52.9603632  11.9900699  10.6108292  79.8302603  38.4970284  67.1511555
  80.7824707  38.4073400  67.1125841  79.6289253  39.1873622  66.5193844
  76.4233160  35.7202721  54.9955416  75.8678389  35.7086086  55.7749891
  77.2494316  36.0992169  55.2958155  62.6182413  57.1637011  58.5129929
  62.5000286  57.2869015  59.4548464  63.4048128  57.6669121  58.3024788
  47.8272064  53.0874105  12.3279102  48.2497413  53.0074163  11.4727505
  47.2030456  52.3622175  12.3554428  12.3073980  26.3865542  43.9614201
  11.6630384  26.8902373  43.4640980  12.2569963  26.7427397  44.8484516
  38.1550874  60.6682156  15.4988773  37.6872816  60.7635056  16.3285263
  38.0741396  59.7390531  15.2836235   6.0053465  40.0118589  64.8471260
   5.0706503  39.8112488  64.7988653   6.4387628  39.1937971  64.6038914
  53.0361040   8.1706997   1.0418661  52.1094949   8.4099766   1.0223110
  53.4370000   8.7093063   0.3596504  79.9046659  26.5429592  61.8535137
  80.8278084  26.6792512  61.6403008  79.4831753  27.3741698  61.6351891
  78.9336862  57.8649746  13.0930813  78.9443006  57.0842944  13.6468514
  79.7033300  58.3636414  13.3673199  77.4844837  42.4410629  45.2710009
  77.8043795  42.8799248  46.0592222  76.8309593  41.8194294  45.5914879
  27.0400354  51.1069679  44.4717169  26.6516992  50.2422857  44.3384743
  26.2919161  51.7032623  44.5030737  25.4353704  74.4073962   4.6148451
  25.4402914  74.7277950   3.7128742  24.7394933  74.9064754   5.0425108
  18.3971998  60.7921171  43.9907265  19.2512438  60.3616762  43.9513683
  18.1976911  61.0120869  43.0807590  39.5124616  75.8480381   4.2853840
  39.3591299  75.1532172   4.9256523  40.3943624  75.6782483   3.9542492
  71.0759783  29.0448427  70.6552601  71.1123848  28.1079888  70.4623652
  70.6602621  29.0961885  71.5159464  47.4609263  73.1529990  52.9069901
  46.5899975  73.5399148  52.8174925  48.0072004  73.8664171  53.2369232
  82.6258810  11.6746469  10.7786568  82.5001009  12.3042913  10.0687607
  83.0691392  10.9335323  10.3657444  36.0524637  75.9794167  35.8758259
  35.8008892  76.5904316  35.1832938  35.5839712  75.1718756  35.6645751
  69.2356920  14.5162594  71.4948845  69.9433422  14.5394385  72.1390295
  68.6132431  13.8793027  71.8457031  28.3428087  61.4658951   6.1096295
  27.7984991  60.7362210   6.4054831  27.9339304  62.2411250   6.4944275
  76.5576990  27.0718904  25.5709084  75.8417375  27.6983209  25.6768330
  77.2231729  27.3609205  26.1952789  40.5762584   3.3367391   8.2386120
  41.1109359   3.1626554   9.0132340  39.7522314   2.8804250   8.4088715
  29.9902460  42.5411034  70.1914024  30.8388159  42.5042391  70.6327724
  30.2048418  42.5316000  69.2586136  11.9757499  36.5968995   9.9178131
  11.7851343  37.4251442  10.3581627  11.1202659  36.2732284   9.6356495
  57.8083696  81.8091344  39.0215214  57.7315511  82.2884129  38.1965264
  57.0010366  82.0136164  39.4933804  59.0665579  28.2711887  61.6528749
  58.8483953  28.3277631  62.5831604  58.4040356  28.8083315  61.2183952
   2.7203922  32.1451183  16.2021168   3.3208064  32.8840299  16.1033638
   2.8346042  31.6348882  15.4003342  52.1267881  40.0049858  20.3121956
  52.3754778  39.1136040  20.0676067  51.2639513  39.9107267  20.7157524
  27.9091665  29.0038180  40.8192635  28.7606069  29.3916607  41.0214186
  27.9080793  28.1700444  41.2894297  56.5117540  65.3306721  21.5654381
  57.4262037  65.0823258  21.4300545  56.1344804  65.3441523  20.6858261
   6.4125242  61.0627316  19.9170216   5.6977167  61.6574835  19.6899613
   6.0056867  60.4025053  20.4781063  25.5040254  64.7883343  27.6859673
  26.0990038  64.0820097  27.9376515  25.9513178  65.5881857  27.9623707
  76.9985516  82.2547909  67.6601505  77.6787407  81.7489129  67.2155619
  77.4382145  83.0605319  67.9316521  22.9024812  33.5132146  71.3231993
  23.2462522  32.8071070  71.8704319  22.2314665  33.9301133  71.8637180
  78.2223606  60.5004501  63.4907818  78.1432962  60.0356197  62.6577663
  79.0771532  60.9288692  63.4458065  70.4395158   8.9764782   9.6238239
  71.1848218   8.5367151   9.2147453  70.6687696   9.0229412  10.5520065
  46.2500031  62.9945615  25.4881573  46.1483891  62.8044894  24.5555377
  47.1675713  63.2505348  25.5818391  80.7125282  21.1204481  41.6833687
  80.6072712  20.8289862  42.5890207  81.3543224  21.8288827  41.7328119
  76.6810352  64.2722490  57.3202229  76.6549236  63.7744906  58.1374025
  77.4101860  63.8912645  56.8309116  65.3503091  20.5257173  23.3624180
  65.7971437  21.3454481  23.5736378  64.8079069  20.3439518  24.1298779
  46.4281273  54.7536850  46.3352442  45.6093454  55.1717186  46.6018629
  46.5052652  53.9908648  46.9082975  34.8113146  39.0529083   7.1683224
  34.1617002  38.4136798   7.4609478  35.4858102  38.5285206   6.7367037
  73.1509018  15.7963777  64.6605492  72.7512121  15.1084721  65.1927757
  73.6300087  16.3371086  65.2884865  86.2499714  73.3866310  50.2241611
  87.0874691  72.9436207  50.3604269  85.6497955  72.9569817  50.8336067
  27.9472597  10.4162212   6.0321577  27.9947622   9.5682855   5.5905874
  27.5845106  11.0090347   5.3739651  60.3477001  38.8365149  59.1141224
  61.1908245  38.4620571  58.8588667  60.0610638  39.3280649  58.3444118
  71.5234501  80.0159794  60.7272339  71.4595253  79.1287932  60.3736162
  72.0041496  80.5057332  60.0599241  25.5890772  28.9139962  45.8085489
  25.4934236  29.5658946  45.1142073  25.8355448  28.1105089  45.3504086
  73.6737871  47.4310064  52.0283127  74.5146847  47.4259377  51.5710402
  73.0866718  47.9115295  51.4446783  72.9232080   9.7017570  13.0601223
  73.7414320   9.2118068  12.9783257  73.0566175  10.2652307  13.8223084
  59.2668533  37.2571540  69.3927813  58.6153746  36.5581989  69.3356037
  58.9586210  37.9227614  68.7778044  73.7371683  14.2543757  61.5226221
  74.4160271  14.8987675  61.7229652  73.2100868  14.6666646  60.8381987
  86.7049789  39.7939777  66.8437672  87.1805096  40.5858660  66.5927410
  87.0851803  39.1038609  66.3002443  45.0165231   2.6621528   1.8067749
  44.5640762   3.5047575   1.8459948  45.9428365   2.8829380   1.9038828
  81.3167095  31.2866306  39.2786813  80.5172348  30.7603121  39.2704058
  81.4574718  31.4938831  40.2025127  22.5048048  76.7839828  60.7800817
  23.0523331  76.0794023  61.1265039  21.6131765  76.5372994  61.0258007
  34.6590318  73.7099932   0.6541260  34.6598329  74.6079706   0.3226669
  34.1165056  73.7459587   1.4419182  24.5678034  68.0351995  14.1537865
  25.4528322  68.0904316  14.5141895  24.5625963  68.6659263  13.4337910
  68.3013439  40.0672197  59.5541525  69.0353537  39.4554949  59.4971514
  68.4535122  40.5488205  60.3672600   1.6767809   7.1088952  71.8109226
   1.9462034   6.2131643  71.6076660   0.7219812   7.0657921  71.8632269
  32.2606268  66.2619017   2.2656830  32.4998178  65.9742521   1.3846167
  33.0962076  66.3480090   2.7246197  60.9772730  28.5348654  52.3538113
  60.8884382  27.5820303  52.3326731  61.4484262  28.7494087  51.5486956
  19.6415922  45.1305676  44.4293785  19.7312567  44.9213600  43.4996367
  19.0973589  45.9178114  44.4463396  68.6206245  41.5147257  69.7724104
  68.7372732  42.2386026  69.1570807  69.5095348  41.2846565  70.0428486
  58.7732275  15.6289478   7.1786221  59.3627508  15.9492012   6.4958771
  59.3069799  15.6244608   7.9731806  79.3286943  51.1966038  59.8410225
  79.0006113  52.0944929  59.8898935  79.5947552  51.0881853  58.9279556
  63.7101776  80.4359338  43.4670687  64.3593437  80.2271134  44.1387939
  63.0245049  80.9113301  43.9362001  20.0472566  55.1092863  61.1244440
  19.6463606  54.3583202  60.6867647  20.9742281  55.0551748  60.8920193
  69.9757051  39.5029306  39.4369221  70.1750565  40.1449442  40.1183224
  70.7703972  38.9740515  39.3662786  47.2164161  13.8792797   1.9968088
  46.6130121  14.6223350   1.9940241  48.0849273  14.2762752   2.0624836
  34.2208471  21.8579160   3.0093964  34.8732176  21.9964098   2.3227652
  33.4058084  21.6923844   2.5355347  62.9919012   0.3345390   1.5326269
  62.3867376  -0.4038433   1.4633902  62.4323900   1.1090227   1.4747770
  56.1091287  17.8699728   8.8435467  56.2106283  18.5768553   8.2061680
  56.1583765  17.0686241   8.3223446  57.0873673  77.8275844  70.4938793
  57.4471218  78.6022082  70.9260511  57.8525002  77.2892204  70.2914524
  72.9081648  33.2478737   2.5043495  72.8307407  32.9834681   1.5876587
  73.7903374  33.6126338   2.5747307  85.8929975   6.5337606  13.1044682
  86.7448766   6.9351860  12.9329880  85.2737768   7.2629877  13.0723293
   1.8792650  39.6617866  68.0787945   2.4891302  40.0054836  68.7316084
   1.7804930  38.7373471  68.3065796  47.4080457  82.1140717   8.9381416
  47.1265306  82.6940154   9.6457012  46.8920221  82.3917054   8.1812580
  40.8706369  63.8106417   5.2491434  41.2637415  63.1460689   5.8148678
  40.4272833  63.3102320   4.5641144  33.3129110  75.9533500  23.5954197
  32.5919714  75.5293607  23.1298931  34.0972509  75.5003976  23.2857712
  12.5560781  53.0391884  52.1784592  13.0299970  53.1302261  53.0051041
  11.8014452  53.6209440  52.2696877  25.8394739  60.5424166  57.1128750
  24.9463007  60.7322359  57.3999929  26.0445616  59.6966791  57.5115061
  55.1344068   4.8779722  36.9828232  54.4286783   4.3070932  36.6790493
  55.1343591   4.7733207  37.9342850  14.1817195  28.9790579   8.0939205
  14.5981653  29.7864862   7.7924784  13.3246143  29.2575927   8.4164341
  75.0294161  54.4938231  59.5490885  74.9757576  53.5483789  59.6886635
  75.1891565  54.5886230  58.6100864  54.4044359   7.6244684   8.1673344
  54.8094709   8.2126709   7.5299986  54.2438753   8.1753774   8.9334591
  68.1183298  18.3136650   0.8318813  68.7283857  18.8496681   0.3251560
  67.8761251  17.6017376   0.2396591  54.6747579  81.7719077   9.7372540
  54.1019048  81.9049643  10.4924782  54.7245874  82.6319217   9.3199738
  73.0960131  58.5935116  55.6839561  72.4606609  59.2223835  55.3417826
  73.8263226  58.6307192  55.0662994  61.1733873   4.6549984   4.4912918
  60.4812295   5.1620527   4.9155911  60.7348115   3.8618847   4.1833122
  52.2902257  23.2465168  12.5383862  52.9790170  23.8142439  12.8840550
  51.5152032  23.4688850  13.0542572  65.4315329  27.0564127  51.2772131
  65.6238937  27.9532099  51.0033894  65.9276581  26.9418359  52.0877457
  17.4186537  38.4690666  44.7055006  17.4742815  37.7951550  44.0280199
  16.4799234  38.5810590  44.8554230  59.8099859   2.2984787   3.9598854
  59.0184171   2.5807806   3.5016592  59.5004613   1.6578527   4.6002157
  11.6282644  69.2103695  14.4462498  11.2098827  69.0037059  13.6105068
  12.5653114  69.1171764  14.2745217   6.3428518  51.4810562  60.5095434
   5.8515379  52.2575474  60.7776976   7.1354124  51.5020657  61.0458708
  34.3606748  62.8395485  11.8372257  33.4264555  62.6552461  11.9346531
  34.6001520  62.4301051  11.0058125  51.0424223  62.4583291  23.7684353
  51.3721552  61.8898295  24.4643696  51.3658323  63.3296226  23.9975269
  76.6781664  59.2780876  51.0630608  76.7405558  59.7908926  51.8688965
  76.4987612  59.9250221  50.3807688  52.4189711  20.3942013  47.4801111
  52.6553011  19.4670796  47.4513674  53.2399321  20.8560252  47.3098803
  15.4721376  27.0190382  62.5843477  16.3248846  27.1987867  62.1884298
  15.6795046  26.6045904  63.4218836  21.6519029   5.6866737   4.2895325
  21.1664350   5.0510641   3.7636526  21.9344289   5.1940580   5.0600775
  82.8654003  60.2226877  51.8046093  83.4450150  60.2177334  52.5663567
  83.1115723  61.0114765  51.3214588  27.3078272  27.9696584  58.4697151
  26.5171930  27.9037690  57.9341888  27.4769422  28.9097071  58.5324717
  25.3735073  27.8505560  18.5027798  25.8646925  28.5468479  18.9388283
  24.8940761  27.4172731  19.2089184  64.9585874   5.8508058   5.7962330
  64.4192655   5.2373024   6.2952049  64.9254568   6.6637369   6.3004883
  60.4825497  60.9666300  60.9882259  59.8621511  61.1479664  61.6942406
  61.2670183  61.4609671  61.2258673   3.6414835  72.3767948  57.0672894
   3.3099672  72.3278856  56.1706638   4.5848486  72.2390890  56.9816923
  16.7886629   0.9358785  55.3891802  16.7624559   1.5666005  54.6696424
  17.5798835   0.4217526  55.2283239  66.2051136  67.2023347  47.4292564
  66.6622097  67.5290301  48.2042122  66.5814049  66.3354877  47.2768974
   7.4376161  15.4091068  10.9618004   8.1888015  15.7104345  11.4728363
   6.8838580  14.9534794  11.5958222  47.7317047  70.3437567  59.4139481
  48.1909943  70.1911783  58.5881090  46.8050385  70.3538942  59.1743183
  64.3792684  10.3937050   5.9845122  63.9631612  11.0503240   5.4259928
  64.8269136  10.9029432   6.6601713  84.5928860  57.1946001  32.3815823
  85.0222206  57.3058128  31.5333271  84.0483093  57.9757833  32.4786425
  74.4021566  17.8055044  23.0952557  74.0394456  17.5345083  23.9385994
  75.3466852  17.8500553  23.2439526  28.1304962  82.9598651  49.2252684
  28.4314329  83.5987951  48.5791731  28.8636429  82.3518397  49.3203068
  24.7859373  62.8710555  37.4874409  25.4679289  63.5391997  37.5559528
  24.9066915  62.4940347  36.6159447  72.5083501   7.7538296   8.3010300
  72.1971376   8.2544370   7.5468548  73.3671529   8.1274982   8.4986599
  86.6434097  55.0375986  54.9693918  86.2905693  54.1918898  55.2460146
  86.7806530  54.9431133  54.0268040  87.3594093  43.9023829  43.0742502
  87.1722221  42.9636669  43.0709267  87.3260498  44.1499901  43.9982700
  80.9932232  77.5493431  70.2868938  80.2696037  77.1922159  69.7720528
  80.6410980  77.6264668  71.1736250   8.0522289  66.1896991   2.4642237
   7.6800956  66.1241602   3.3436878   8.0206480  65.2957295   2.1235617
  16.9223902  24.1805291  58.4299707  17.1955702  23.3378196  58.7925196
  16.2379286  24.4866729  59.0249681  56.7184217  22.0977922  12.7195843
  56.2125356  22.4559923  13.4489639  57.5927885  21.9548460  13.0819042
  61.9551802  27.8826833  56.2642670  61.3085794  27.1855927  56.3747358
  62.7835989  27.4220324  56.1310101  81.0378139  68.3005999   1.7448910
  80.6934183  68.1075333   2.6168736  80.2754610  68.2455229   1.1686857
  70.5942566  67.2024050  49.3054676  70.4916508  66.2801734  49.5404005
  70.1524479  67.2848633  48.4603405  47.0870812  73.2676426  20.6158090
  46.4811022  73.5628393  21.2954259  47.9081280  73.7175044  20.8151507
  34.9375176  17.6232839  20.0905585  34.4408202  16.9414258  19.6382380
  34.3682981  17.8970575  20.8097720  16.5342447   3.5042754  48.8581324
  17.2161600   3.9640620  48.3684206  16.2329122   4.1418916  49.5053434
  10.2379789  56.6425692  32.2630222  10.9394922  56.1994885  31.7857464
   9.6572914  55.9360908  32.5457295  13.7132730  51.8973314  13.2063778
  14.2355623  51.0954319  13.2264622  13.3631887  51.9329165  12.3162087
  18.1253328  53.4327554  17.5595959  18.7135448  53.2219957  18.2847317
  18.5803547  53.1117784  16.7810352  76.3969803  30.3410435  68.3964968
  76.0041571  29.5093822  68.6615610  76.2046289  30.4095078  67.4613237
  35.1670637  64.4662474  36.6892536  34.4105806  63.9931129  37.0358284
  35.0984182  64.3651508  35.7398899  16.4575615  58.8284086   9.7936733
  16.8473234  59.4470011   9.1758927  15.5224695  58.8432525   9.5896919
  71.3130283  34.8158884  68.8096523  70.8600950  34.9742174  69.6379137
  72.0395231  35.4391360  68.8109970  21.0268290  78.0583790  71.4561415
  21.2589676  77.1641013  71.7063618  21.6604502  78.2891387  70.7767963
  12.7487489  24.1367435  34.7822857  12.9758856  23.4072208  34.2057133
  13.5870382  24.4294739  35.1397777  61.0328037  76.2885836  65.6815052
  61.5853722  75.7729807  66.2689161  60.4527981  76.7770919  66.2656116
  55.8400726  10.9720492  39.7057056  55.1319265  11.4210188  40.1674318
  55.6385517  10.0415730  39.8048782  63.8333368  38.9463735  59.0578461
  64.3205118  38.3011746  58.5453892  63.7012243  39.6794319  58.4566784
  48.9471895  61.6702679  67.9349375  48.2545931  62.2012761  67.5417757
  48.6662562  60.7664230  67.7922058  38.9987642  71.2615839  65.5480766
  38.9764053  71.7175475  64.7067547  38.1945736  70.7425955  65.5606794
  68.4283638  26.8079758  37.3158026  67.6864672  26.6156101  36.7423773
  68.3807373  26.1412024  38.0009127  41.8907156  50.5493008  14.7268398
  41.2356748  51.1004000  14.2985352  42.3054781  50.0692366  14.0100773
  43.5779268  78.4796834  52.9884481  44.4547064  78.3209574  52.6387358
  43.7097532  78.5737088  53.9318514   1.1676618  18.7300801  71.0585213
   1.5704176  19.5895743  70.9348869   0.2533552  18.8552105  70.8042955
  57.8996038  14.2908168  27.7339315  57.1806335  13.7033796  27.5010610
  57.6130009  14.7102678  28.5451961  41.9497378  82.0407510  46.6009712
  42.5215227  81.4786017  47.1237373  42.5433619  82.4996997  46.0066605
  71.1394787  45.2601194  71.9825602  70.7283068  45.8157969  72.6446724
  70.6215811  45.4073334  71.1911392  50.9602060  39.1311328  10.8570870
  51.7488374  39.0582957  10.3195007  51.2723722  39.0256526  11.7557915
  85.0343227  21.2298298  70.2308941  84.7244167  20.6377292  70.9161711
  84.9233150  20.7353234  69.4188786  15.8089182   0.0186214  66.6427755
  16.5930959  -0.3396089  67.0586824  15.9340116   0.9671416  66.6726780
  27.8813162  71.9768261  19.1467198  28.6464777  71.9215606  19.7191723
  28.2274427  71.8190430  18.2683476  25.9465715  62.0661449  34.9077034
  25.2320883  61.4404345  35.0270510  26.7417833  61.5382195  34.9795389
  40.8759815  51.5025309  44.2280960  41.1882193  51.1828592  43.3816051
  39.9226219  51.4381102  44.1716051   7.7502558  16.3241422  65.9895182
   7.0842764  16.9433177  65.6906652   8.5759947  16.8006277  65.9037256
  66.7667324  69.8968783  31.9817901  67.6421005  70.1977184  31.7379451
  66.2679989  69.9241307  31.1652398  29.2691252  10.9810865  39.1754603
  30.1732179  10.7256162  39.3587327  28.7871095  10.1545000  39.1501451
   9.1991636  17.8851914  30.0498533   8.3259222  17.4949825  30.0122118
   9.7748586  17.1607590  30.2948236  77.1341467   0.8209420  64.4038868
  77.3955631   1.3022603  65.1888847  76.6389608   0.0720822  64.7358990
  21.7361648   3.5058351   2.3403748  21.1920030   2.9639192   2.9117306
  22.2975833   2.8811165   1.8812807  77.0577877  63.6329674  10.3499134
  77.1263473  63.9639782   9.4543846  77.5747555  64.2463063  10.8722027
  87.0431232  35.9225249  43.1967640  87.8116131  35.7557797  42.6510000
  87.4033451  36.1829710  44.0444899  17.3859300  58.3042239   0.9901817
  17.7941742  57.4663197   1.2080916  17.7296676  58.5198568   0.1232489
  85.8744209  59.7473310  10.5045708  85.4906242  59.7760915  11.3809879
  85.2527063  60.2245568   9.9550636  48.4259064  73.6271438  45.4388285
  48.6562903  72.8603974  44.9141836  48.4590847  74.3582550  44.8218966
  48.1965637   0.4330115  55.8742476  49.0932560   0.3582421  55.5477667
  48.1965780  -0.0663467  56.6908693  53.5621548   2.7730632  36.1904311
  52.8532124   2.7957565  36.8331718  53.2166338   3.2498944  35.4357934
   0.5292596  58.1899582   8.1912144   1.2330045  58.5069977   8.7573059
  -0.0991307  57.7892183   8.7918480  10.7601490  63.7335967   8.3121308
  11.6311254  63.3388733   8.2693775  10.4473390  63.7221597   7.4075611
  69.8534918  25.5831599  24.7086644  70.7164001  25.7131147  25.1020312
  69.2514086  25.5651093  25.4525709  18.3160717  80.9067367  40.4395390
  18.0490000  80.3520295  41.1724854  17.5165398  81.3664488  40.1833296
   2.2579309  24.3640518  53.9865017   3.0816862  24.7629476  53.7062645
   2.3263189  23.4513092  53.7064028  76.7785549   6.3649243  47.8361607
  77.6113176   6.0359102  48.1745243  76.3471317   6.7527574  48.5975361
  74.2335033  40.6171036  48.9752340  73.4299183  40.4292250  49.4601917
  74.6788788  39.7721100  48.9131260   4.4791338  14.5998740  51.7230177
   4.4835779  14.3646634  52.6508570   5.3457948  14.9750495  51.5668821
   2.7498457  36.0218811  68.9903259   2.9758570  36.7056942  69.6208477
   1.8529245  36.2266922  68.7261009  30.5140144  71.0361400  30.3381205
  30.7040865  70.1660088  30.6887960  31.3662655  71.4701882  30.2994132
  76.2834644  23.0509543  53.5534763  75.8875561  22.8816986  54.4083691
  75.6603289  23.6271214  53.1107950  24.1432943  72.9609488   1.4602192
  24.5626630  73.8202761   1.5040262  24.3350305  72.5574278   2.3067625
  53.0065186  74.7954318  47.8168249  52.0622379  74.8893306  47.6912975
  53.2732422  74.1547725  47.1575499  29.4482357  67.9889205  37.3289728
  29.6825153  67.1503153  37.7265716  29.8769457  68.6434796  37.8803301
   1.3040373  27.7696371  64.8427963   1.8041822  28.4623575  65.2743435
   0.9279558  27.2621608  65.5620050  32.4791231  49.9154871  21.1041554
  31.9734373  49.1993247  21.4883717  32.3187246  50.6599681  21.6840275
  40.1677694  67.6181577  23.4793575  40.7380857  68.3753823  23.3467491
  40.0305452  67.2648262  22.6004036  21.7180831   3.5489460  10.5322846
  21.4055402   2.6676985  10.7371052  22.6513250   3.4361692  10.3517922
  18.6328146  38.7920046  61.0453081  18.2070753  39.6196795  60.8218670
  17.9511091  38.2826638  61.4835739  14.2860147  11.8851650  23.0064249
  13.5564920  11.5382564  23.5199165  14.4785711  11.1975515  22.3689771
   0.7928583   4.3231776  68.1488371   1.2003919   3.5324872  68.5023308
  -0.0224093   4.4135034  68.6422110  58.1109173  81.7976193  35.6353354
  58.9877922  81.7454244  36.0155916  57.9269344  80.9077285  35.3345418
  32.7871782  70.6996348  38.8134313  32.1515066  70.4592982  38.1393433
  32.4354155  70.3223684  39.6197605  37.7802076  24.5380329  15.0615986
  37.8133001  24.1350352  14.1939934  36.9243993  24.2875551  15.4095467
  75.8404303   8.5280114  70.2691126  76.0270023   9.3288320  70.7591200
  75.5237627   7.9115260  70.9293413  52.4873955  80.8290102  66.4962292
  52.0503647  81.6619742  66.6734409  53.3523781  81.0770425  66.1698675
  26.9155342  72.4993399  31.0585284  26.9582302  72.7026334  30.1241398
  27.0799524  71.5575889  31.1065054  39.4238836  65.3295806  66.9976234
  38.9822800  65.9143236  67.6134968  40.3151400  65.6735578  66.9378424
  17.0690431  67.2146748  12.3119267  16.2206020  66.9432210  11.9616516
  17.6475134  67.2349142  11.5495594  82.2356606  27.0756269  69.2617369
  82.8411198  27.8165984  69.2368698  81.5393448  27.3551297  69.8560858
  82.6962566  30.4650640   5.1876199  82.8375721  29.5696449   4.8802331
  81.7447281  30.5506396   5.2467334  11.4338817  67.4571537   2.3324307
  10.6934728  67.6287769   2.9143007  11.9884529  66.8505214   2.8230198
  17.4608824   5.5065852  65.6482029  16.6012975   5.9233880  65.7084370
  17.8912279   5.9497249  64.9170017  55.0730409  42.1820916   7.6619347
  55.3434267  42.9616292   8.1471642  54.8593130  41.5404710   8.3393391
  68.8504648  52.1745348  58.5071945  69.1866589  52.8221846  57.8877163
  67.9423094  52.4365330  58.6583328  28.3302107  46.5850805   0.1435764
  28.5963239  46.5694319   1.0629089  27.9834833  45.7080780  -0.0203602
  82.2305012  21.0204482  50.3456688  81.6441631  20.7556677  51.0544252
  81.6800594  21.5422988  49.7617865  69.4610054  75.5272034  53.0165672
  69.5483524  76.4720741  52.8907919  69.6795590  75.1508740  52.1640158
  54.3594701   2.1417757  31.1763390  54.9069936   2.2478481  30.3983982
  53.9998777   3.0142112  31.3369091  54.1248312  58.5925506  11.9347294
  54.2142954  58.2957171  11.0291203  54.1549005  59.5475839  11.8778237
  64.2320442  65.5602932  65.6493998  65.1056814  65.7007694  66.0144377
  63.8251877  66.4266348  65.6616783  23.1504907  47.8378181  13.8660439
  22.5587644  47.2459554  13.4015091  23.8638296  47.9971086  13.2479675
   1.8640157  10.1576722  45.8932209   1.4587328   9.9559695  46.7366028
   1.2687513  10.7868910  45.4858160  19.1273632  65.4242443   1.0497816
  18.5040989  65.0481986   0.4282005  19.2764606  66.3142799   0.7306584
  63.0906057   4.0804499  43.2610130  63.8665724   4.6360192  43.1871557
  63.4368467   3.2108206  43.4612513  59.9593534  66.8019341   1.5884455
  60.8828821  66.6643070   1.3777693  59.4866171  66.4504408   0.8339890
  69.0996552  20.6658483  47.2767591  69.6501207  21.4114094  47.5162506
  69.2830229  20.0076318  47.9471016   2.5386610  71.9596003   4.5507534
   3.2142963  72.5030350   4.1452559   1.8234529  72.5673078   4.7388991
  76.0280418  53.7775421  56.9458008  76.5048695  54.4743109  56.4948273
  76.2664890  52.9797506  56.4736700  26.9834352  21.6540408  59.2559958
  26.4334202  21.1114407  58.6909294  27.4307346  22.2494340  58.6546135
  81.5625286  17.5072598  65.1241779  81.5778351  17.9339051  65.9808969
  81.7460060  16.5867209  65.3117228  68.6404419  20.2510357  72.1010637
  67.7357244  20.5344224  72.2330284  68.6510038  19.8882020  71.2153625
   5.4006216  27.6336360  63.4754753   5.9131643  28.4243488  63.3072567
   4.6795484  27.6774979  62.8474951  47.1564314   8.7187827  60.9338951
  47.9830095   8.3202529  60.6615543  47.4164316   9.4541305  61.4887762
   5.7523813  20.0366591  33.6948784   6.3738908  20.4711436  34.2789753
   6.3005008  19.5262789  33.0987938  81.6433988  14.2399736  48.7274178
  80.7495723  14.4489427  48.9987858  81.5360175  13.6174198  48.0082997
  15.4034240  41.3031240   5.8726175  15.3552730  40.9108587   5.0008162
  15.4020412  40.5565019   6.4716061  46.7884903  76.0709642   4.6344193
  47.0021325  76.9635652   4.9061783  46.3372724  76.1770891   3.7969406
  67.7594059  59.9330436  10.9749993  68.7007015  60.0879144  11.0538014
  67.5727265  60.0606345  10.0448902  25.2556658  40.0891590  54.5033932
  24.3105030  40.2302217  54.5581675  25.6097102  40.5380249  55.2711201
  12.8666742  12.9299827  25.2283104  12.2785242  13.5150667  25.7057865
  12.2854765  12.2928711  24.8129376  80.3821199  56.7301844  25.4441269
  79.4998663  56.7666839  25.0746353  80.2962702  56.1679958  26.2140663
  48.4715085  70.5430840  34.2232330  48.0343430  70.7179450  35.0566204
  49.3346494  70.9462642  34.3163117  74.0969675  80.4880236   6.3360651
  75.0246685  80.3063058   6.4863356  73.8967007  81.2149094   6.9257744
  32.5020790  58.7624550  67.5324154  32.3724270  59.2405939  68.3514404
  32.8334022  57.9066515  67.8045559  26.8909986   8.5059734  54.5876797
  26.0492189   8.9569231  54.5222481  27.4934061   9.0482040  54.0784367
  13.2025058  38.5258909  22.6947792  12.8347642  37.7611681  22.2518356
  13.9113243  38.1732078  23.2327660  82.6187246  40.2964899  45.8599194
  83.1438177  40.1923626  46.6534432  82.3870533  39.4028394  45.6070431
  50.5932958   7.3744627  38.7896546  50.7320745   7.6203342  37.8750332
  51.1225851   7.9971309  39.2880161  49.3686788  76.5171741  49.0127857
  49.6352308  77.3944448  48.7378700  49.6871035  75.9412621  48.3176811
  62.9539013  65.0780869  56.3762522  63.3873940  64.9190235  57.2147131
  62.1203613  64.6126366  56.4454699  68.7658828  70.5984424   3.7965115
  69.0092795  71.5118908   3.9468439  68.6770099  70.2267097   4.6740921
  42.9047876  80.8160948  25.8326252  42.9769974  81.7009448  25.4747780
  43.6273365  80.7505440  26.4570149  10.4120119   0.7975145  43.4527023
  11.1578567   0.6199213  42.8796299  10.7437332   1.4322229  44.0877922
  80.3995895  62.9216862  48.4883404  80.0469494  62.0726824  48.7549210
  80.4716206  62.8626776  47.5356817  16.5271575   3.8168426  27.9217728
  16.0063417   3.1955524  28.4306725  16.0153348   3.9633127  27.1262749
  29.9502110  20.9859061  49.3405294  30.8818793  21.1943316  49.4097233
  29.5103860  21.6975832  49.8056126  78.2981537   5.0852581  22.6898773
  78.0181514   5.0248667  23.6032112  77.7779518   5.8020445  22.3267754
  19.1172040  24.2753673  63.6279583  18.2213175  24.0310574  63.3957243
  19.0151215  24.9807239  64.2669249  73.1171434  69.3689631   8.2647522
  72.3513525  69.8283695   7.9201658  73.3832281  68.7823747   7.5566967
  61.8158214  64.6367048  13.7142189  62.1036713  65.5369471  13.5627659
  61.6357057  64.5976495  14.6535118  70.2950869  15.0113006  52.2275742
  70.5324040  15.0854679  53.1519135  69.8596249  14.1616102  52.1595200
  53.3251279  67.5545715  10.1830204  52.6042645  67.9633497  10.6620701
  53.1084173  67.6922177   9.2608936  71.8616174  26.4422985  41.2432869
  71.7137526  25.5240436  41.4695175  72.5793122  26.4204498  40.6102951
  13.5484512  10.3682371   6.4888199  13.2672603  10.0888153   7.3600777
  14.2241676   9.7370525   6.2413366  55.2338045  76.1936878  11.1110981
  54.2905228  76.0312508  11.1193283  55.3153794  77.1198152  10.8833511
  88.0325340  37.8661561  65.7113838  87.3617895  37.6757812  65.0555706
  88.3829586  37.0083976  65.9515572  80.2746259  31.7921491  19.1918095
  81.1763392  32.0563646  19.0092190  80.2039991  31.8247648  20.1458367
  86.8929039   7.1744772  33.3979042  86.9922982   8.0616756  33.0525978
  87.7407346   6.9757505  33.7952908  24.4094665  39.0891405  27.9385670
  25.2859027  39.0596147  27.5548657  24.4177921  38.4047743  28.6077507
  81.1276851  47.2406812  32.2052963  81.7155085  47.6676222  31.5820702
  81.4888941  47.4600836  33.0641468  29.9773717  71.9354391  65.1169491
  30.1106954  71.0005999  65.2735710  30.6954122  72.3615074  65.5850410
  21.1075454  60.7732939  19.8008927  21.5541308  61.2466680  19.0989597
  20.4470830  61.3874840  20.1215084  62.0652056  57.3368359  61.0407543
  62.3990297  57.8422022  61.7819691  61.1746836  57.6627111  60.9103298
  22.3992147  74.1053985  15.3684910  21.6031351  74.1944288  14.8444946
  22.0844545  73.9999889  16.2662991  15.9395845  14.5397850  16.6101177
  16.5138443  13.9945408  17.1478565  16.4918048  14.8232408  15.8814629
   8.5063703  16.2409206  18.2216843   9.0417583  16.8590351  17.7241619
   9.1392334  15.7182356  18.7141426  42.9116249  23.3674479  53.2803679
  43.2444811  23.8991475  52.5573683  43.6970901  23.0292201  53.7103462
  68.5459177  22.3085256  36.2229736  69.1350137  22.9759403  35.8711823
  69.0624986  21.8629785  36.8944367  33.5939558  10.7949205  15.3608330
  33.7090070   9.9909588  15.8674248  33.8027628  11.4977308  15.9762104
  31.1221654   6.4536615   3.2839878  31.1335571   5.5930038   3.7027605
  32.0175607   6.5789457   2.9696568  33.2838488   7.7013743  69.5062351
  33.9932823   8.3333915  69.6223783  33.6341429   7.0588058  68.8892794
  47.2449797  71.7048954  18.3845623  46.7414658  70.9046601  18.5339935
  47.2243398  72.1614240  19.2256268  69.2124145  74.6757745   9.2557152
  69.2845910  75.4253911   9.8465641  69.9275988  74.7938179   8.6305721
  31.4851037  57.5093089  24.2195042  31.3277627  58.4424816  24.0757568
  30.8234086  57.0697938  23.6854466  16.6007049   4.5105406  53.3606442
  16.4116771   4.9209209  52.5167854  17.3579986   3.9504333  53.1902989
  42.6199579  25.2141309  57.2068882  42.7832317  25.6420255  56.3663626
  41.7209053  24.8922396  57.1411371  53.3530085  50.2645569  27.0833595
  53.5763495  49.8865186  27.9339035  53.5890096  51.1888127  27.1626385
  64.9857657  75.9800576   8.0743416  64.0853851  76.3049291   8.0726441
  65.4293149  76.5071272   8.7389382   1.9000871  46.4438005  12.9637821
   2.7322419  46.3540979  13.4282215   1.8403776  47.3765512  12.7572830
  29.6864462  52.9407787  71.8032885  28.9064169  53.4312773  72.0625067
  30.3966689  53.5812044  71.8442106  48.3735085  75.3422499  70.1851225
  49.0676308  75.6500816  70.7679319  47.5618458  75.5977249  70.6234980
  63.4511995  82.7907085  51.3425779  64.1052675  82.1111298  51.5056658
  63.9524841  83.5258579  50.9897184  28.5626323  12.9371448  15.2502831
  28.6009224  13.8235088  14.8909481  29.4562967  12.6051231  15.1645287
  48.6908197  71.3994694  63.3152246  49.4821262  71.7016602  63.7610388
  49.0111160  70.9807825  62.5162649  27.4446876   2.4619385   7.4350079
  27.9377897   3.0079551   6.8226774  27.9429586   2.5072046   8.2510384
  26.1177356   6.2416836   5.7377060  26.4117725   7.1001240   5.4329928
  26.8854148   5.8640571   6.1670073  87.6977692  16.7096515  32.7514179
  88.5078512  16.6756244  32.2426613  87.7174817  17.5672718  33.1760796
  27.1364458   5.7780309  47.1803578  27.1514709   5.5742498  46.2452229
  26.4012439   5.2706524  47.5242718  18.9191937  48.6875486  69.4916725
  19.6853781  48.1256437  69.3756771  18.7839448  48.7156057  70.4388571
  81.0674684  77.8051423  36.6381367  81.5148752  78.6290907  36.8309315
  81.7727630  77.1931289  36.4278134  86.3641630  37.1673151  21.7500981
  86.0729252  38.0409809  21.4890869  87.1547495  37.3228260  22.2668369
  56.0231161  70.2703381  68.3090496  55.3906155  70.5902958  67.6657772
  56.8518925  70.2323246  67.8316402  79.9397932  53.6248918   5.9496840
  79.0008841  53.4546896   5.8741100  80.0320874  54.0947195   6.7785271
  11.5276201  25.5181738   5.7042988  11.0242374  24.7184797   5.5515583
  11.1320121  26.1653896   5.1204832  82.8176199  43.7354036   0.3098305
  82.7213059  42.7994295   0.1340206  83.5029159  44.0231271  -0.2933447
  75.1268838   8.6970945  11.8427475  75.6733273   9.4302984  12.1256645
  75.6649194   8.2300945  11.2034805  66.5578751  34.0927644  11.6532715
  65.6381129  34.3536134  11.7004593  66.9513725  34.4580074  12.4457367
   1.0851581   9.2707630  29.9954708   1.3366683   9.6532388  30.8361252
   1.2637289   8.3356281  30.0947865  49.9451702  75.3386091  31.9845303
  49.7591799  75.0476049  32.8772457  50.3476208  76.2003588  32.0924671
  10.8966453  32.9174276  13.5733517  10.9032161  33.6243625  14.2186649
  11.0813720  33.3516212  12.7405365   6.5877278  22.6197668  17.4160202
   5.6608112  22.6560398  17.6521214   6.9985921  23.2964798  17.9540642
  48.6132877  77.6615523  63.3993157  48.5939043  77.6996349  62.4430664
  48.4366279  76.7438029  63.6061009  39.3659790   3.9948030   2.3148974
  38.6694725   3.6682649   1.7452629  39.8314292   3.2081838   2.5991734
  82.7461761   3.8989440  17.3053185  82.1160548   4.0386287  18.0122010
  82.2470229   3.4462730  16.6255013  26.8401389  72.1496605  25.9985169
  27.4752515  72.4920868  26.6274841  26.5677851  71.3091039  26.3666447
  34.5151567  74.6991586  56.3006409  33.6526429  74.7217749  55.8861645
  35.0814377  75.1860904  55.7019337  20.9112318  18.6794754  13.7192066
  21.1753995  18.7479683  14.6366795  21.3452823  17.8869005  13.4035214
  64.8655759   4.1661831  50.7409104  64.6896700   5.0068422  51.1635025
  65.6383882   3.8278433  51.1931427  44.8047836  20.6922336   7.1095760
  44.9984701  20.5483576   8.0358704  44.3694742  19.8875471   6.8281086
  48.1528282  34.8617220  60.7758760  48.3963299  34.3263698  61.5310812
  47.2274160  35.0637174  60.9138727  17.1671112   9.8862596  32.8710850
  17.3751695   9.1502281  32.2955807  17.2953088  10.6614443  32.3243817
  86.5025411  42.4143739   7.0700844  87.1942769  42.6093240   7.7023276
  86.5923200  43.0922075   6.4002283  55.7255571  46.5370591  18.3715733
  54.8505991  46.6310232  18.7482079  55.8327215  45.5940594  18.2470806
  14.6118939  50.7987928  68.0851460  15.5429399  50.6446218  67.9250956
  14.2670023  51.0820961  67.2383738  66.7302452   1.4758106   3.6045988
  66.6248707   0.5477949   3.3950337  67.6678942   1.5798136   3.7665518
  12.3490388  22.6560779  11.5898426  11.3930471  22.6299663  11.5495308
  12.6019056  23.2584902  10.8902844  80.0796042   9.5518299  11.5644367
  81.0065017   9.5420595  11.3257034  79.6918069  10.2137848  10.9920223
   7.9115827   5.3864046   9.3385990   7.0981486   5.8678718   9.1877850
   8.4978921   6.0269495   9.7413166  67.5005000  72.8444361   5.6717070
  68.4102195  73.0337261   5.4419001  67.5483458  72.0512794   6.2054165
  68.0320638  82.6225566   1.0323198  68.0294221  82.1008776   1.8348654
  67.4396556  83.3510588   1.2182530  33.1996336  67.2252916  15.9294041
  34.1387357  67.3258280  15.7738312  33.1055441  66.3308619  16.2570770
  83.4393893  41.4191194   9.0891655  83.3460675  41.2063547   8.1605919
  82.7987514  42.1138807   9.2412575  69.0600894  30.7002922  69.6590050
  69.8556576  30.4076715  70.1036175  69.3546019  31.4016338  69.0779598
  39.1697954  72.2789310  30.7438572  39.5482748  71.5884565  30.1995857
  38.6618715  72.8135775  30.1336105  20.1991661   2.9075571  16.3382919
  20.6949432   3.1367632  15.5522164  20.7269437   2.2333570  16.7662342
  27.2316065  30.5496393  12.1250637  28.0995741  30.3325998  11.7848118
  26.8991270  31.2171267  11.5249355  29.3309522  32.3887825  70.8743811
  28.4854388  31.9401288  70.8674574  29.8861980  31.8447661  71.4329290
  33.4311669  35.8536159  15.3603085  33.3042436  36.7929517  15.2270039
  34.0152957  35.7957785  16.1164005  80.5209446  36.6651344  69.9536800
  80.4708099  35.7817936  69.5884085  79.7170687  37.0925164  69.6581221
  55.0147765  63.1044363   8.8019283  55.6173032  62.3721384   8.9320572
  55.0365250  63.2678508   7.8590258  48.0871802  51.7543005  15.6036003
  48.6032741  51.3524370  14.9047573  47.3233383  52.1198641  15.1573475
  13.4801752  79.4506988  53.8715982  14.3144304  79.4910088  54.3391705
  13.5463173  80.1338226  53.2043648  10.6671269  78.6279541  70.5745840
  11.3664658  79.2539170  70.3866243  10.1727802  78.5685152  69.7570753
  48.5786676  23.8931513  42.7642679  48.2566643  23.0039310  42.9120398
  48.7772846  23.9235306  41.8283939  63.3648579  53.4448181  17.1500023
  64.3137138  53.5098385  17.2580727  63.2491963  53.0161427  16.3020046
  56.0996931  74.1048168   5.3744133  57.0526641  74.1700934   5.4361828
  55.9467953  73.5453986   4.6128996  69.3116651  70.3491619  66.9201517
  69.3896911  70.4259697  67.8710699  68.5577528  70.8950332  66.6968298
  25.6416750   3.2342055  49.2949247  26.1148310   2.7023083  49.9348021
  25.2900314   3.9646643  49.8038530   4.1023976  82.7772258  61.6933298
   3.8167102  82.3274835  60.8981276   4.5169694  82.0934269  62.2194290
  37.2614043  54.5152353   2.4965914  37.1794575  53.7756788   1.8944510
  37.9434036  54.2479752   3.1127747  85.8719383  12.8541609  15.3300293
  85.9297095  13.0800148  14.4016464  86.4419733  13.4872576  15.7664688
  63.6058085  42.6545433  10.8108719  63.0396169  42.1020592  11.3497837
  64.4900363  42.3305020  10.9822472  16.0076106   5.0615937  68.8640785
  15.3683639   4.8826435  69.5536947  15.5083811   5.5191845  68.1876087
  70.3007954  77.4573134  16.6640766  70.8575600  76.6802715  16.6145332
  70.8625238  78.1736993  16.3682945  77.4310589   5.8215225  69.8563099
  77.2817469   6.7619497  69.9539471  76.7128658   5.4134917  70.3399849
  63.0674212  71.7718767   0.7837351  62.4315040  71.2647795   0.2790650
  62.9996651  71.4240288   1.6729124  12.0713909  29.7230573  45.4410656
  12.0506723  30.6297441  45.7472141  11.6903503  29.7577425  44.5636662
  51.6657179  56.8526851  31.2398728  51.5027182  57.2608482  30.3895386
  52.6197164  56.8175231  31.3097389  62.1975415  43.5879590  13.4126385
  61.6669028  44.1191142  12.8188904  61.5703338  42.9996215  13.8329895
  22.7460790  38.7789869  57.8536224  22.6273656  37.8621936  57.6053667
  21.9326162  39.0134263  58.3003283  77.3548000  46.5233977  12.3822220
  77.9778974  47.0712029  12.8596028  76.7795437  47.1462988  11.9380386
   1.0683853  79.4105285  59.3900537   1.7394359  78.7345877  59.4850636
   0.2690775  79.0030780  59.7237062  51.0931826  17.8098094  61.8592548
  50.5894709  17.0009148  61.9497824  50.9554768  18.2715476  62.6863384
  35.0654483  12.7217233  44.1752243  34.9541712  13.5559297  43.7192106
  34.8643827  12.0589209  43.5145473  16.1950054  79.6674227  24.7003468
  15.3477420  79.9083303  24.3257244  16.2567129  80.1831149  25.5043896
   6.5979624   3.7277344  54.6967030   6.7137980   3.5294503  55.6259489
   5.7585418   4.1855943  54.6523237  50.0645011  54.5703720  13.2656201
  50.0528138  54.8250698  12.3429974  49.3719190  53.9140390  13.3416947
  84.3437450  69.3379020  14.6539505  84.6877687  69.0072917  13.8241490
  83.9585607  68.5701846  15.0764187  87.7829903  65.2577256   2.2562178
  88.6370771  65.1473831   2.6740654  87.2386854  64.5692729   2.6383122
  57.2542565  59.7996496   9.8269375  57.3757522  60.6078695  10.3251846
  57.7424901  59.9424611   9.0160950  51.6638899   8.3319420  61.6696072
  52.1395731   8.9833546  61.1542225  52.3394299   7.7232945  61.9686508
  71.1638546  16.0260355  62.7157545  71.9845486  15.9177887  63.1963587
  70.4993248  15.6403899  63.2866430  26.2743194  19.9330374   3.6874445
  26.0830457  20.2055832   2.7900227  25.4875715  19.4660087   3.9687641
  57.8477097  14.9313974  66.9219589  58.6762428  14.9182868  66.4428043
  57.2068596  15.2447522  66.2837172  45.6321907  26.0792708  63.6774445
  44.8543739  25.6197381  63.3611059  46.1053467  26.3246179  62.8823614
  24.8697921  36.7206534   3.5517700  25.1418208  37.4444782   4.1159590
  25.5967053  36.6081564   2.9392536  58.0935669  52.4364662  66.2485933
  58.6276817  52.4246407  65.4543543  57.3908806  53.0570793  66.0554600
  54.5241213  44.8221588  58.5407066  54.4565868  44.9204254  59.4904518
  54.2399120  43.9238214  58.3720541  57.9407184  58.9401411  35.6074627
  58.8006418  58.7661539  35.9902008  58.0750912  58.8472019  34.6643074
  62.2264831  76.1322664   8.3168038  62.1627849  75.5667089   7.5471838
  61.8415945  75.6166219   9.0254696   4.3834455  24.6771856  32.6835163
   4.8634059  24.5654674  31.8629177   4.6091349  23.9036699  33.2002075
  56.9823790  14.4172084  59.6935654  57.3543358  14.8919809  60.4368496
  56.1746693  14.8881507  59.4885063  82.2088173  50.6042290  34.6198106
  82.1222368  51.4355278  34.1532540  81.4570090  50.5824280  35.2118754
  87.3148309   4.0765424  42.3213299  87.2839485   3.4738823  41.5783127
  86.7391167   4.7982307  42.0684536  19.8073077  10.8085203  64.0659094
  19.0296483  11.0545516  64.5668554  20.4890418  10.6862664  64.7266102
  11.3897331   4.1869636  16.3694771  11.8946083   4.7461458  15.7790096
  10.4882557   4.4959779  16.2795838  16.2031705  11.4628120  16.9960507
  16.0746915  12.0222994  17.7620133  17.0382841  11.0237785  17.1575077
  47.6214504   1.9688304  59.6990871  46.6979790   1.9625704  59.9508572
  47.7907848   2.8722969  59.4320536  75.6885467  74.7744855  62.2571659
  76.1385284  74.8461774  63.0989552  76.3781951  74.5401356  61.6361237
   9.1404898   4.4554373  30.1958473   9.4646485   4.0652128  31.0075577
   8.2025106   4.2645832  30.1962383  22.5793083   6.1858650  39.0540703
  23.4520872   5.8607813  39.2749890  22.7307804   6.8239351  38.3568199
  87.3489438  27.2479482  23.2754143  86.5111695  27.2529026  23.7383755
  87.8746043  27.9100414  23.7243469  69.4271980   0.8079477  16.3255795
  69.0634881   0.8019777  17.2109707  69.3654083  -0.1020245  16.0351189
  88.0261646  14.8948141   8.8720425  87.5744830  14.7614856   9.7053726
  88.6291180  15.6191011   9.0396221  78.2265983  33.2591291  17.7019127
  78.7196360  32.5181623  18.0542095  78.4208403  33.9816519  18.2989510
   2.0174701   8.7815376   7.8635319   2.0338805   8.5140081   6.9446238
   2.3385675   9.6832414   7.8562410  86.7011230  81.2086533  42.8312786
  87.3038118  80.7479094  42.2475727  87.2670286  81.7531060  43.3786019
  72.3539448  73.3844042  69.2356825  72.5042439  72.4444866  69.1346741
  72.6417446  73.5784721  70.1277256  10.0776680   3.2935186   7.4182280
   9.3720825   2.6569458   7.5329216   9.6471484   4.0641876   7.0481594
  74.8971098  70.3377198  14.5699223  75.3849857  69.6259259  14.1557224
  75.1479643  71.1187624  14.0766915  39.5877798  27.4742790   9.6486481
  39.0595586  28.2710214   9.5994862  39.1574771  26.8642803   9.0495117
  45.1570034   1.3221391  60.6292820  44.3237877   0.9142019  60.3935480
  45.4441690   0.8470093  61.4090395  48.0516320  70.8339857   8.6096962
  47.9216307  70.6227421   7.6851900  48.1193798  69.9829649   9.0425976
  18.4008462  38.1979128  22.8340252  17.4826152  38.3490558  22.6098831
  18.5058553  37.2477051  22.7859600  87.8951853  78.9281081   8.4378250
  86.9750231  78.6771940   8.3567436  88.0040996  79.1430591   9.3641956
  56.2818187  67.7257799   1.5743597  56.0309451  66.8040251   1.6348847
  57.2310799  67.7081465   1.4525993   2.8070345  73.7711762  32.8127773
   2.0182743  74.2875694  32.9783829   2.7868738  73.5982679  31.8715389
  16.1293394  80.3156003  55.0529146  16.2020857  79.8727113  55.8983660
  16.1144573  81.2474641  55.2711821  82.6435576  14.3273636  15.0531586
  82.0792447  14.4196983  15.8207901  83.5258518  14.2391344  15.4137142
  45.1222818  67.3003863   6.1807497  45.0281923  68.2219361   6.4218386
  44.2249208  66.9690751   6.1460169   0.2992811  82.7133130  59.6904762
   0.0240698  82.0760583  59.0313919   1.0924902  83.1067036  59.3267544
  20.7654524  24.3019557  57.8619814  20.1245737  24.3130255  58.5728836
  20.3565979  23.7701011  57.1791887  18.1895454   7.3027893  35.6571110
  17.6829488   8.0371853  35.3103264  18.6083467   6.9163461  34.8880203
  18.8857849   6.5592142  27.7169521  19.3967636   6.4145990  28.5133274
  18.5489900   7.4506660  27.8070458  68.4525030  61.9759964  37.9993065
  67.8024857  61.9501947  38.7014778  68.2569330  61.2072884  37.4635132
  20.7680137   1.1389395   9.7666844  20.5730827   1.7024656   9.0178974
  19.9521787   1.1143108  10.2667149  54.2602747  66.4184641  12.5051792
  54.0071481  65.4958271  12.4751576  53.9662950  66.7748784  11.6668614
  77.9182690  77.8720068  33.0800827  77.2601908  77.2092389  33.2896145
  78.7059420  77.5811003  33.5396298  30.5940206  23.4986540  34.6249207
  30.4808338  24.0956588  33.8853272  31.3504369  23.8447519  35.0985058
   3.9087565   0.6991716  43.6545475   4.4779928   1.1887165  43.0607899
   4.4715555   0.4754921  44.3958004  87.8618544  50.9469907   5.3588398
  87.5515287  50.1002859   5.6798084  88.6525505  50.7392310   4.8609741
  85.6228655  68.2350205   0.2673062  84.9269407  67.6152991   0.4860886
  85.6089943  68.8725590   0.9811552  61.7687552  81.4886259  40.4871948
  61.3370555  81.4580416  41.3409718  62.3089688  80.6987928  40.4635246
  67.1917391  46.6869020  48.3968496  67.5684357  46.3988781  47.5653648
  66.4659119  46.0827398  48.5530233  60.6434410  76.9122075  31.6318997
  60.1016181  76.1357235  31.7723663  61.5065306  76.6653012  31.9640835
  18.3175428  22.7887197  19.7198113  17.5431926  22.2897573  19.4597157
  18.2945163  23.5711237  19.1688641  21.9202137  10.1287973  68.8301373
  21.3485742  10.7840335  68.4299803  22.6537538  10.0466740  68.2207060
  87.0759869  39.9913287  52.9233980  87.0565414  40.4094696  53.7842178
  87.9104900  39.5228791  52.9034758  63.2296031  64.8962997  24.4424542
  62.9879825  65.3680610  23.6454018  63.4000676  65.5843734  25.0856789
  73.9120643  63.2570170  14.9440296  74.2556112  62.3906802  14.7256954
  73.7058132  63.6532162  14.0974339  42.9089506   0.7787891  39.0128525
  43.0429895   1.4286752  38.3229836  42.7436502   1.2965294  39.8007973
  34.6204268  80.4759978  12.2702129  35.3435796  81.0223578  12.5780686
  35.0133245  79.9114393  11.6045292  34.7385843   3.6631962   1.1689575
  34.5292862   3.5424515   0.2427586  34.1890247   3.0250164   1.6238697
   5.2914746  13.5827060  21.5020664   5.3841479  13.4948488  20.5534180
   5.3701408  14.5227571  21.6643627  69.0566295  45.6022360  42.1449574
  68.2209628  45.4703950  42.5927361  69.5981996  44.8649271  42.4265774
   2.6126821  15.2602669  14.2667111   2.7453287  14.9498935  13.3709915
   2.9996498  14.5786520  14.8161514  80.4476278  79.6823429  14.0166958
  80.0686615  79.2160581  14.7618111  79.8041075  80.3585433  13.8048752
  71.0003536  55.2292882  43.2699879  71.7161291  54.5958494  43.2184799
  71.3687866  56.0367011  42.9114159  64.8535984  53.9987205   4.2726668
  64.8389881  53.1411289   4.6975859  65.7163661  54.3557488   4.4833668
  82.2096222  82.5705289   9.0986641  81.8952053  82.5979232  10.0023373
  81.8638342  83.3693265   8.7004383  69.7663563  70.7180904  12.3698147
  69.8153036  71.6735052  12.4017246  70.6044310  70.4232954  12.7261265
  71.0653942  77.8582524  31.8275078  70.5850284  77.5806903  32.6075371
  70.4668873  77.6808189  31.1018761  40.8369017   8.6736822  54.3494320
  41.0608864   7.8313142  53.9538574  41.6576767   8.9848042  54.7312164
  20.8637388   6.2227913  23.7031563  21.0985715   6.2533518  24.6305950
  20.1755912   5.5594106  23.6520584  35.4786270  49.5159434   7.9517229
  34.6803784  49.5469587   8.4790428  35.1848965  49.7074168   7.0610531
  60.7226992  19.4586170  57.7994919  60.1368999  20.0286961  57.3014164
  61.0028601  19.9933577  58.5423231  33.3366513  18.4483695  61.7081356
  33.6845160  19.2594039  61.3373995  33.9781547  18.1937122  62.3713541
  12.9170694  63.3475970  20.4696568  13.1075515  64.2648195  20.2730473
  12.4486484  63.3737634  21.3039978   7.9258909  83.2760047  21.5720566
   8.6830511  82.8519295  21.9759091   7.7592935  82.7649163  20.7800491
  78.5727280  55.7767879  21.4563568  78.1143730  56.5498065  21.1268337
  79.2782658  56.1296605  21.9985111  62.8124707  43.6590752   8.3448132
  62.9071586  44.6075817   8.4319981  63.0426329  43.3150567   9.2078980
  26.9036396  22.2513004  12.8926476  26.0621316  22.6534076  12.6772316
  26.7009122  21.6329952  13.5946758  77.3701303  64.2888044  18.3885010
  77.7010601  64.4014882  17.4974259  76.4216488  64.2133259  18.2839974
  60.7913463  78.3852123  16.4136704  60.8262651  79.3396663  16.3501747
  59.8566645  78.1788658  16.4085587  45.1103895  47.7481042  30.6662281
  44.2383569  47.5784223  30.3098591  45.7063251  47.3049955  30.0622852
  74.3929975  65.6259202  32.2936543  74.4224947  64.6712707  32.3569306
  73.5665005  65.8109735  31.8476685  87.2275703  77.7904605  25.9587963
  86.4787834  77.4390148  26.4405068  87.7317016  77.0180415  25.7029637
  56.4245432  56.6703342  33.0538090  57.2613018  57.1269869  33.1405934
  56.5327709  56.1169814  32.2802933  70.1148289  67.2244071  27.5547798
  69.2753952  67.2994589  27.1009644  70.0829761  66.3659047  27.9769047
  76.2205362   8.5757273  52.3402548  76.7266083   9.3825948  52.4355745
  76.6401243   8.1141967  51.6141891  16.9786722  74.7777811  67.8476095
  17.9318030  74.6971413  67.8119755  16.7448265  75.2179530  67.0304203
  16.2317729  12.4094892  51.4457703  17.0335090  12.6461077  50.9794426
  16.5009856  12.3323166  52.3610830   9.8060828  18.1910217  67.6585054
  10.3842282  18.8901913  67.9636955   9.0622544  18.2154334  68.2604647
  49.7986191  69.5904158  18.5175999  49.7497719  69.2737435  17.6156147
  49.4561427  68.8679932  19.0439518  20.2995014  26.5301776  70.4333878
  20.7126713  26.9025445  71.2124014  19.5136976  27.0607853  70.3022337
  24.6652730  48.0639719  41.5535553  23.9757179  48.3984088  40.9800537
  24.4337793  48.3915191  42.4226673  57.5163334  75.0164651  16.0653980
  56.8437784  74.3444489  16.1762913  57.9900663  74.7533058  15.2763756
  20.0595146  64.9907826  10.0732716  20.7314335  64.5188235   9.5813187
  20.5464923  65.4742264  10.7406243  11.0682972  26.6226145  25.3272160
  11.6321762  27.2656198  24.8973091  11.3059957  25.7878204  24.9236782
  74.8625963  74.8376774   4.8451241  74.9707382  75.7393454   5.1476677
  75.2387731  74.3035578   5.5447252  32.6609428  18.5510870  26.3152702
  32.9856260  17.8553100  25.7436855  33.4405191  19.0581222  26.5419968
  77.9212139   6.1969658   1.2588604  77.1028946   6.6087814   0.9813841
  77.8607975   6.1634775   2.2135647  85.6699102  66.8501090  50.5547436
  86.1752384  67.1618985  49.8039730  85.2252500  67.6307677  50.8850201
  14.6120889   1.6353079  16.3221558  13.7771804   1.4507719  16.7524059
  15.2292783   1.7643734  17.0423325  18.7316122  75.4627656  23.4804543
  18.2364072  75.5668448  22.6679428  18.4168520  76.1688541  24.0449055
   2.5147667  48.5790341  27.5784786   1.7462339  48.2682710  27.0999249
   2.1548071  49.0414904  28.3353146  12.0901813  78.0045532  22.8338249
  11.7218961  78.1711172  21.9661530  12.2746982  77.0653247  22.8394325
  54.6787930  31.1291623  57.6245356  54.9752808  30.5214643  56.9470167
  54.3151617  31.8698740  57.1394110  55.9336465  72.7159404  15.1426609
  55.2077072  73.1234764  15.6150540  55.9261935  71.8038009  15.4327973
  77.7180307  69.1713189   3.0456265  77.0813625  68.4982370   2.8051146
  77.6573818  69.8199104   2.3442848   1.7884769  81.6900872  15.5293949
   1.7663326  81.1503838  16.3196285   2.7193298  81.7742394  15.3228386
  44.6272135  24.6678901  58.8394594  44.1845179  24.1059756  59.4754648
  43.9201880  25.0235176  58.3010578  12.6869905   8.4721839  64.6834993
  12.0350873   7.7794111  64.5770979  12.3039103   9.0641743  65.3308249
   9.2147913  66.4942716  29.1153534   8.5794677  65.8188795  29.3529328
   8.8462343  66.9053696  28.3334358  39.8766208  23.7358642  68.0862284
  39.8488998  24.3839526  68.7901068  38.9591193  23.5116458  67.9308319
  20.4988623  18.0941677  71.7919207  20.2097774  18.6008239  72.5508404
  19.9253237  18.3796895  71.0807514  26.2871463   4.0861269  15.2406128
  26.5396555   4.0213581  16.1616333  25.6004531   4.7528263  15.2268417
  48.8145828  12.8240180  55.9656906  49.3509865  12.1857011  56.4358521
  49.4478703  13.4081614  55.5486155  49.9759405  69.3830060  22.8255661
  49.0512531  69.6159314  22.7423294  50.1537197  68.8320707  22.0632752
  83.0848506  44.4721985  58.4432125  82.1722159  44.2971420  58.2136774
  83.4921709  43.6068773  58.4824514  54.8035877  59.6222423  44.2359360
  55.3799646  60.3606807  44.4327362  54.5106571  59.7796332  43.3383568
  64.7903347  44.7561407  65.2462816  64.2020845  45.2995062  65.7706404
  65.0015306  44.0149832  65.8140135   7.8530152  39.9912115  45.9668644
   7.0433838  40.2707525  46.3941677   8.3771832  39.6113725  46.6719826
  41.3976078  71.9813513  53.9722260  41.0838287  71.7724870  53.0923756
  40.7207697  72.5501083  54.3391617  24.6799710  71.6353463  19.2682942
  25.4086213  71.7665933  18.6615952  24.2098855  72.4691414  19.2619618
   8.5952933   4.5053097  41.9539555   7.8994758   5.1591392  41.8863114
   9.3430240   4.9043890  41.5091332  29.0165540  70.1977752  43.3769043
  29.0677939  71.0618757  42.9683216  28.2953563  70.2708052  44.0020188
  67.0597380  79.6905350  49.6857937  67.8672569  80.1258611  49.9589832
  67.3486536  78.8480829  49.3350323  78.4752195  73.7790583  41.0314186
  78.1986254  73.2552503  41.7833241  78.5902946  73.1428121  40.3256043
  66.2209194  81.6589974   9.2352780  66.8486326  81.2303947   9.8170860
  66.1534303  81.0723876   8.4819039  51.2837766  16.3336225  14.9581345
  51.5031950  16.5505262  14.0520199  50.9117065  17.1404739  15.3141983
  79.7258156  73.8586186   3.6060246  80.6130617  74.0448712   3.9131601
  79.1641062  74.0773796   4.3495663   4.3978627   4.9894138  11.5315827
   5.3091939   4.8013826  11.7559631   4.2808254   4.6048065  10.6628998
   7.1373589   2.3708626   4.8050697   6.9938595   2.5434252   5.7355841
   6.9346721   3.2008692   4.3735083  69.9186247  52.7154826  27.5336750
  69.0075629  52.9714714  27.3899182  70.0843780  52.9258536  28.4526356
  71.6003101  70.7116793  35.5340202  72.0321243  70.5467652  36.3722141
  72.1788614  71.3269399  35.0835045   6.1903371  65.9696983  14.1543778
   6.3591137  66.6678213  13.5216339   6.1479892  66.4174007  14.9993618
  57.4700253  61.4825486  18.1190785  56.5449922  61.7014288  18.0066593
  57.4984115  60.9700762  18.9270409   0.9426441  75.8285307  26.0380467
   1.3849964  75.1328539  25.5516346   0.3987970  75.3663133  26.6758640
  71.3400381  45.4619666  18.0901249  71.9986980  45.6954195  17.4359806
  71.7249840  44.7256713  18.5654266  78.3219259  45.1825555  30.2600678
  78.6159532  45.3361403  31.1579521  77.5694340  45.7641350  30.1516731
  17.7972014  81.6559862  66.1563253  17.3991902  82.4940394  65.9207773
  18.6309511  81.8925998  66.5626574  53.3489387  76.1785029  25.5777271
  52.5538533  75.6962131  25.8045967  54.0638845  75.6069516  25.8577450
  62.5820511  50.7161300  12.0253189  62.8192609  51.3118182  12.7360352
  61.6388648  50.8372890  11.9159897  49.7638178   6.2443995  57.5360966
  50.4449892   6.9115603  57.6205730  50.1966143   5.5150843  57.0922279
  55.6508558  65.9998940   9.5005329  55.3974264  65.0860833   9.6307285
  54.8208659  66.4681481   9.4105919  15.0238550  27.7630353  47.6818848
  15.2106440  28.4482718  47.0401716  15.3101742  26.9537902  47.2583580
  47.1057933  46.5661137  25.5518826  47.3795133  46.9674878  26.3766297
  47.3369663  45.6421166  25.6468590  73.6671465  73.1893228   9.3722923
  73.7585419  72.8093337   8.4985073  72.7697485  72.9804157   9.6316536
  31.7187316  19.0935274  42.4406250  31.4051397  19.6147009  43.1797226
  31.5621860  19.6457525  41.6746147   0.0960858  24.3809553  42.7905472
  -0.3255694  23.5231872  42.8422554   0.8077581  24.3368860  43.4291466
   8.2619507   2.8518959  22.7268513   7.7356203   2.1881719  23.1725891
   7.8356130   2.9648729  21.8773182  41.4548302   3.1666663  68.3294916
  41.1743879   4.0375578  68.0481863  40.6881380   2.6111096  68.1888771
  48.2025623  14.7516775  45.6656361  48.8083982  15.4556322  45.4340219
  47.4552965  14.8766387  45.0806475  61.6753643  46.4907469   9.8935993
  62.5003784  46.9301866  10.0996979  61.0610216  46.8131267  10.5530556
   1.6831674  72.4674772  26.3531597   0.7459154  72.4488090  26.5466602
   1.7725553  71.9519829  25.5515965  52.4825723   3.9416452  34.1013725
  52.8269632   4.6284958  33.5305317  52.4971921   3.1515737  33.5611828
   3.9519985  41.1444898  11.9735821   3.1633956  41.6140123  12.2454079
   3.7644393  40.2268549  12.1710594   0.3525247  70.6885027   7.4779900
  -0.5992565  70.7804536   7.4345358   0.6726970  71.1402916   6.6972168
  56.8735361  42.6559305  64.7440195  56.2183571  42.7241278  64.0495300
  57.4538898  43.4033871  64.6000290  59.7100013  65.7057308   7.7886589
  59.2504781  65.5405616   8.6119373  59.0145319  65.7628154   7.1334561
  58.0521672  68.2773374  14.7821720  57.3010724  68.6226009  14.2995937
  57.7135389  67.5017308  15.2293785  87.2863500  73.2975196  21.0143955
  86.7824476  73.2436107  20.2023514  86.9795292  72.5561236  21.5363320
  49.6698254  72.6900719  11.9097241  49.1648810  73.0910610  11.2022885
  49.3688827  73.1360697  12.7013977  73.9436930  58.4198569  11.2570389
  73.7846487  59.2786979  11.6486080  74.4648331  57.9519461  11.9095047
  56.9929314  48.1339741  71.8072081  57.6127529  48.5140657  72.4297714
  57.3767710  48.3114004  70.9484768  66.4805984  54.7938824  70.6134558
  65.9296560  55.5117798  70.9254122  65.8954954  54.0367746  70.5875254
  36.6875274  26.5474983  41.8595894  36.5363939  27.3603817  41.3772972
  36.1776264  25.8899446  41.3864620  42.1372373   6.7917104  15.1349648
  42.5359638   5.9276911  15.2384956  41.7218359   6.9665428  15.9794148
  78.3689230  81.2128495  71.1751564  78.6664789  81.9973372  70.7144268
  77.8999727  80.7081841  70.5105980  46.9171429  10.6492758  46.9375610
  46.3007832  10.6300092  46.2054682  46.3670874  10.5624855  47.7161074
  18.0732305  21.2510248  32.1344383  17.3200281  21.6921802  31.7416294
  18.7153347  21.1973520  31.4265926  87.9863081  72.4086144  47.3407698
  87.9904280  71.5293708  46.9624233  87.0596061  72.6073769  47.4747324
  78.3787411  58.4521567   5.0677164  77.7268236  58.1596981   5.7046660
  79.1768902  57.9819726   5.3088005  63.7307327  55.6024824  20.7860954
  64.4940846  55.0782214  20.5438622  64.0969198  56.4346813  21.0854061
  78.1993316  31.9972654  56.7465504  77.3453675  31.8750664  56.3317688
  78.8223921  31.9854160  56.0199936   6.3743772  75.4187106  17.5471981
   6.7723407  75.3222846  18.4123905   6.8628015  76.1325024  17.1371086
   8.7030687  52.7661358  11.8755825   9.1782036  52.4799823  11.0954579
   9.0460815  53.6410664  12.0574387  68.7743609  69.3544411  42.7076920
  69.4052713  69.7730373  43.2933148  68.2357328  68.8122653  43.2840164
  68.6133998  72.9332279  36.6479118  68.4373467  72.0257710  36.3994034
  68.6727660  72.9127835  37.6030548  35.5857944  60.8149468  41.6727074
  36.3271152  61.3563262  41.4014443  35.5168586  60.9587752  42.6165207
   7.0612629   0.8299061   2.2704132   7.2932107   0.6584354   3.1831177
   6.9173415   1.7755028   2.2334488  66.5050745  44.6468973  62.8676701
  66.1367369  44.9672127  63.6910486  66.9967699  45.3908348  62.5197792
  69.4265461  25.4450846  53.9214706  69.3241215  24.7762752  54.5985508
  68.9629984  25.0906944  53.1626797  64.3453646  49.5749283  64.3477154
  64.6354485  50.1506758  63.6401844  64.9130535  48.8072348  64.2797899
  58.7422912  63.9569019  17.7647694  58.1750696  63.2109188  17.9597004
  58.4732001  64.6317052  18.3880432   6.7965801   3.2846590   7.2343643
   7.1062238   4.1897817   7.2011574   6.4728172   3.1749292   8.1284435
  15.1673276  18.3144804  36.8548401  14.6480329  18.9800735  36.4036663
  14.8374136  18.3216949  37.7533539  86.1389845  51.3563703  34.5158299
  85.6662147  51.1204325  33.7176808  86.4681929  52.2391986  34.3471058
  12.0165147  70.8510493   9.9124058  11.7371740  71.4159750  10.6328686
  11.6037645  71.2305282   9.1366108  35.6994312  74.2194890  41.1704071
  35.5401688  73.6917542  41.9529446  35.3322523  75.0778674  41.3815888
  37.0687730   8.2196756   7.0133694  37.3749025   7.3729749   6.6883858
  37.8164012   8.5767790   7.4927004  56.7090662   5.4477497  11.5126904
  57.0300920   5.5334135  10.6150063  57.0903165   6.1937853  11.9756134
  77.2061603  33.4580540  15.3741749  77.5977152  33.2388382  16.2196644
  76.8761127  34.3494432  15.4869755  72.9115312  22.3387872  38.1042011
  72.8396671  21.4539169  38.4620674  73.1748360  22.8780781  38.8498982
  55.5335324  76.7297934  30.4953869  56.0028308  76.0343169  30.9561546
  55.1471823  76.2950610  29.7351463  28.1068714   0.0564142  20.9882553
  27.3954780   0.6959100  21.0228260  28.0999715  -0.2609495  20.0852307
  84.2003165  66.5046254  62.7347660  84.2346654  65.8735493  62.0158815
  83.3919177  66.9947556  62.5847864  55.7220023  63.9977597  30.7947262
  56.3893359  63.7594174  31.4382275  56.1233085  64.6995591  30.2822216
  29.8619032  33.5264206  61.6382456  29.3985677  33.9368129  60.9080839
  30.0664473  34.2507958  62.2295761   9.9984413  12.8669906  47.4539232
   9.7678423  13.2006705  46.5869093  10.0287914  11.9165504  47.3444891
  10.6059749  29.5694586  30.0859936  11.1945684  28.9999576  30.5814369
   9.7437294  29.4174000  30.4728325  73.2721870  45.5811556  32.0658119
  74.1644638  45.2481060  32.1614845  72.9141348  45.5652289  32.9533871
  31.8186815   2.0290037   6.4628084  31.5075595   1.4262768   7.1382006
  32.2966058   1.4730640   5.8473881  83.2682763   8.9396091  43.0364044
  82.6681791   8.8977333  42.2918518  82.7305804   8.6999412  43.7911804
  48.0340488   1.6255041  41.0837181  47.9886491   2.3720833  40.4863938
  48.5456283   0.9700771  40.6094368  12.7927024  16.3018461   1.9193895
  12.2703369  16.0009189   2.6628979  13.6931808  16.0755249   2.1520861
  52.2053092  55.6669246   1.7190178  52.0267694  55.0440859   1.0144385
  51.9051879  56.5087615   1.3762768  43.3199604  17.3978754  22.6006230
  43.0298336  17.4609466  21.6906269  42.6255710  17.8235718  23.1034477
  55.8897161   8.9486915  52.9575300  56.3728714   8.9295512  53.7836218
  54.9779558   9.0825975  53.2163668  17.8769667  81.3614640  36.8910336
  18.3228714  81.5386386  36.0627747  18.4590418  81.7241408  37.5587797
  41.3236952  30.4635096  63.4298468  41.8091965  30.8834291  64.1399097
  41.4095974  31.0666466  62.6915503  44.7700500  36.8921828  69.6394062
  44.6710682  37.6585031  70.2043724  44.1673183  37.0507669  68.9129114
  48.4611034  35.7874942  52.6958132  48.3224249  36.6370463  53.1144571
  49.4082451  35.7354331  52.5675821  64.3973692  16.8162437  34.2456349
  64.0056665  15.9552332  34.3921288  63.8818510  17.4099203  34.7915466
  83.7783824  32.5484129  21.1283787  83.2813655  32.3766227  21.9281872
  84.5455681  31.9800516  21.1964043  18.9086158   1.3146873  11.8203648
  18.6451108   1.6411968  12.6807030  18.1029089   0.9650512  11.4398106
  49.3439739  67.0580696  19.6656521  48.4847849  67.1568321  20.0758656
  49.3391590  66.1691283  19.3107041  26.7866278  32.5589824  61.2457991
  26.3036799  33.2774115  61.6542768  27.4071503  32.9908133  60.6586885
  23.7402525  60.5842422  31.9643124  24.5408239  60.3594767  31.4901837
  23.7557211  61.5396332  32.0210655  74.0351122  64.6676539   4.6300610
  74.8163288  65.2201318   4.6034773  73.7896316  64.5556115   3.7116821
  71.8933044   4.0658899  33.0931194  72.7205966   3.9838930  32.6186760
  71.6116629   3.1631370  33.2412632  45.5185938  55.7806921  57.8729057
  45.4439735  56.7348576  57.8574753  45.2347040  55.5324411  58.7526846
  18.5172374   0.5964800  33.8730534  18.3870847   0.1413246  34.7050007
  19.2797239   0.1690956  33.4829434  15.4235323  16.4370723   7.3113592
  15.4768999  17.3061987   7.7088602  15.8425672  15.8568617   7.9469641
  30.2472582  55.4783927  19.9243172  30.0257482  56.0426472  19.1835220
  30.8955087  54.8671876  19.5744141  15.1119001  21.5989872   1.5785607
  15.2527053  20.7438274   1.1722191  15.9710081  21.8458410   1.9209536
  36.7520547  21.3365579  62.8971195  36.6298747  21.5813780  61.9798613
  37.2725201  20.5339265  62.8635120   3.7750074  65.7862759  57.7891827
   3.4446642  66.6298056  57.4800444   4.3243620  65.4672241  57.0731878
  66.3094711  42.9827023  56.7780209  67.0385838  43.6016369  56.8173313
  66.7274666  42.1229744  56.7293215  71.5208769  46.6498423  61.4671087
  72.4143839  46.3101721  61.4170742  71.3373804  46.7039537  62.4049997
  30.1143432  28.5082150  60.8051205  29.9892426  29.3675447  61.2077808
  29.2352724  28.2376575  60.5400419  15.4032476  20.6793066  28.2115944
  14.8502691  21.3116451  27.7526863  16.0347946  20.3908392  27.5526817
  83.8265048  23.7092014  10.9016808  84.1935693  23.0456253  11.4857681
  84.1342388  23.4582849  10.0307186  16.9639595   0.9645410   9.9148949
  16.2222393   1.5442892  10.0880440  16.7855461   0.5997225   9.0481098
   6.5819873  52.3679196  35.4775627   6.4561596  53.3166634  35.4944523
   5.7561102  52.0109235  35.8042248   6.2782128  18.5816665  27.8190525
   6.8154867  17.8193613  27.6035031   6.9099290  19.2842193  27.9726418
  86.7805157  19.0326925  63.7927445  86.2635504  18.5956951  63.1159790
  87.1528612  18.3176513  64.3087967  18.2613809  30.9026428   1.5041788
  17.3935897  31.2765833   1.3514097  18.0927331  30.0993582   1.9966419
  48.9611435  71.3788176  70.9777927  48.1296873  71.7387199  70.6689548
  49.3131828  70.9072733  70.2228403  15.3482063  35.5331798  16.7192848
  14.6197898  35.1365848  17.1971520  16.1070640  35.4025980  17.2878941
  24.9265535  45.6282278  11.7045410  25.1497610  46.5007444  12.0287808
  25.6848056  45.3653761  11.1828240  13.8549383   9.2981525  42.9624756
  14.7462661   8.9680000  43.0754574  13.5151727   9.3802067  43.8535793
  58.9922397  62.9644560   4.9334248  58.2739299  62.3330044   4.9725350
  59.4084709  62.9073142   5.7934960  28.7732267  50.5381966  62.2522354
  29.3377733  51.0927820  61.7137623  27.9273081  50.5511713  61.8044806
  55.8326871  26.8765684  13.6561115  55.1165350  26.2899013  13.8993843
  56.1290510  26.5528484  12.8054627  31.0161932  12.6341339   1.3925560
  31.1431797  12.4255558   0.4670294  31.9029434  12.7057405   1.7457970
  10.7112801  66.4290953  70.3713560   9.9156201  66.1599350  69.9123240
  11.3741541  66.4938116  69.6838665  75.0044649  71.2128423  30.7083328
  74.7529428  71.9888448  31.2091263  75.1588409  71.5394782  29.8219307
  79.8142920   2.3067232  39.0563782  79.9938832   1.9572206  39.9292000
  80.4570637   1.8793388  38.4903248  16.7114902  26.3903379  56.6488075
  16.9288409  25.5018044  56.9307661  15.7599771  26.3826323  56.5449095
  79.1632758   1.8160768  24.6600922  79.4789754   1.1164709  25.2320393
  79.3451033   2.6215788  25.1441773  35.1344545   9.5101543  44.7041996
  34.9622972   8.6066576  44.9693211  36.0567815   9.6509071  44.9180515
  32.4100454   0.7970281  26.4324482  33.1630905   0.2958914  26.7455300
  32.5778110   1.6916509  26.7286499   1.4176931   7.7764985  59.4933844
   0.9748068   6.9443414  59.6595001   0.7788648   8.4426400  59.7471333
  68.1676906  63.3271693  19.2018135  68.5715168  62.8766655  18.4600552
  68.8761657  63.4232162  19.8382671  48.6797667  59.4643402  29.0162587
  49.5411730  59.2838907  28.6398983  48.1071234  58.7996864  28.6334324
  13.7965591   7.6980253  30.4305275  14.1800268   8.2756611  31.0904606
  14.4203241   7.7162834  29.7047051  19.6372928  73.7516950  39.3663414
  20.0716295  74.0088772  40.1796349  19.3345918  74.5760225  38.9854344
  50.1846838  29.7796273  64.5248890  50.1943588  28.8227367  64.5472908
  51.0105896  30.0177026  64.1036606  34.0749795   3.0980201  24.5646008
  33.4783275   3.4452244  25.2276905  34.9440963   3.3722397  24.8573025
  81.4629381  77.3547887  23.7179287  82.1216076  77.3039840  24.4106014
  80.6307571  77.4346136  24.1841229  83.0873333   6.2814232   4.4970997
  83.8139139   6.5925308   3.9571674  83.4932886   6.0426231   5.3304060
  49.9609191   6.3638492   9.1675575  49.9137647   5.8916851   8.3362492
  49.0536506   6.6001411   9.3605908  27.3595293   6.8129917  13.8092526
  27.6466854   7.6449724  13.4329804  27.4788101   6.1771866  13.1037338
  72.4229305  69.9964546  13.3364399  72.9930990  70.5030702  13.9147862
  72.9047411  69.9439715  12.5110062  14.7035732  64.4702815   7.2610624
  14.4317808  65.1982664   7.8199871  14.0268364  64.4210576   6.5859039
  75.8399677  68.6198425  65.8558702  76.4651203  69.1085815  65.3205681
  75.0164318  68.6729670  65.3708982  53.5560226  36.9285345  60.9600210
  53.5714388  37.0132589  60.0066996  54.4335318  36.6210818  61.1873722
  24.8072052  39.9075460  71.7946672  24.8828483  40.3230715  72.6536512
  24.0677261  40.3505754  71.3785791  53.7185519  78.1953834  13.3062847
  53.0033939  78.6913227  12.9077538  53.3125751  77.3767542  13.5913380
   4.8502197  51.3982801  28.0483158   4.1242160  51.5288250  28.6583241
   5.4435005  52.1290456  28.2221993  38.2841499  21.1682983  27.1860035
  38.2792766  21.8073650  26.4733990  39.2121036  21.0097023  27.3591526
  12.5801682  72.8148985  46.2321854  12.0512116  73.6063290  46.3325453
  13.4011889  73.0170584  46.6808367  69.6242874  72.5171851  21.7439945
  69.4304626  73.4363555  21.5601738  68.8055151  72.0577978  21.5574368
  66.8805218  48.9970207  40.9950829  66.1018848  48.5351229  41.3058901
  67.5168562  48.8971233  41.7031336  20.9483917   1.4245411  23.5427483
  21.8967302   1.3687702  23.4253700  20.5971010   1.4357229  22.6524170
  11.0914905   6.8922468  31.6516884  11.8656213   6.8132873  32.2091110
  11.4421184   7.0649763  30.7779320  41.5947580  82.5865364  19.4608629
  41.6034412  81.9365597  18.7582326  40.6743193  82.6518822  19.7153294
  28.7408168  26.4227243  10.7524784  28.2194002  25.6685444  11.0273750
  28.6604793  27.0455642  11.4748676  55.9849262  40.1934719  58.3805752
  55.1187992  39.8158669  58.2273769  56.4718246  39.5019293  58.8288355
  11.3152177   0.7419725  25.7760246  11.0157878   0.6606622  24.8705109
  10.8222158   0.0738331  26.2522324  42.4041755  24.3951126  16.9567974
  41.8004282  24.2179056  16.2354668  41.9330986  24.1087099  17.7392872
  54.7432232  45.8644915  63.9972210  54.0563536  46.1437511  64.6025801
  54.6070957  46.4012337  63.2164431   8.6037922  82.1463776  67.9422808
   9.5375329  81.9382477  67.9100037   8.2936341  81.9949055  67.0494843
  77.5568598  62.6899074   0.6784161  78.3527773  62.3519014   0.2679260
  76.9730633  61.9329857   0.7282408  26.6172178  25.4871937  30.1639565
  26.6382892  26.2299247  30.7674034  26.1799152  24.7917648  30.6552513
  31.3624668  26.9367814  62.7235460  32.1651268  26.4561939  62.5210381
  31.2810445  27.5760651  62.0157909  63.8625353   3.5354421  36.7254782
  63.9005893   4.1235349  35.9712076  63.9118569   2.6574704  36.3473701
  16.7049749  11.6847177   4.9961289  17.1715362  10.8562275   4.8858889
  17.2000892  12.1506019   5.6699570  71.5559433  28.2079979  20.1825627
  70.6415520  28.4737726  20.0851734  72.0574640  28.9373441  19.8181923
  86.6191578  41.0811853  50.4138994  86.6674137  40.4888105  51.1642313
  87.2854424  41.7454910  50.5899668   7.5155027  10.1486917  21.2189205
   7.6123173  10.9857364  21.6730316   6.9665844  10.3495260  20.4609020
  81.6797417  74.3593072  24.3337448  80.9723394  74.9661611  24.5517834
  82.0930641  74.1613864  25.1741226  49.9268532  55.1475859  65.7877493
  50.0771618  56.0602379  66.0341358  49.1361666  55.1720953  65.2488232
  40.4731281  24.3723436  31.8243893  40.8704622  25.1864858  31.5153034
  40.2168758  23.9123388  31.0250385  38.4555728  11.0352035  12.8454693
  38.0970390  10.5649896  13.5981949  39.2945344  10.6076809  12.6734455
  19.3696792  42.8326174  31.1202248  19.0743930  41.9589086  31.3764961
  18.9487989  42.9893251  30.2749260  18.1131830  82.3931836  17.7669533
  18.0881586  82.7047156  16.8622120  17.5954714  81.5881251  17.7574642
  15.4922540   7.2743126  28.0932339  15.0717075   7.5127455  27.2670849
  16.3961179   7.0715328  27.8521069  72.7277851  34.0487242  62.7562666
  73.2209396  34.8300982  63.0062389  71.9445562  34.0737915  63.3059549
  24.1347082   5.6851621  15.3655918  24.6003921   6.4906641  15.5903919
  23.2085140   5.9166141  15.4350670  44.7435420  71.1460422  15.8224972
  44.8947530  72.0341419  16.1459931  45.2458399  70.5865859  16.4148911
  47.2141941   8.4923931  32.7952297  48.0914171   8.7849136  32.5479515
  46.8418224   9.2316623  33.2759007  63.1229496  33.4158897  64.8790979
  62.5255823  33.6306524  65.5955219  62.6082468  32.8561425  64.2977190
  50.0486486  75.1751565   9.5200833  50.3665583  75.0405740   8.6273106
  50.7942336  75.5546712   9.9851711  31.8400182  79.9647855  27.4178513
  30.9423532  80.0127815  27.0890434  32.2114267  79.1940306  26.9886311
  17.5606067  37.3679729   8.5192402  17.7545507  37.7785011   9.3619068
  17.4721963  36.4365288   8.7213047  69.7964287  72.5601578  71.2658501
  70.2399588  71.9714451  71.8765306  69.4086885  73.2352066  71.8228054
  79.4810646  61.6122102  24.9754341  79.6973198  62.4142932  24.4999035
  78.6260145  61.7893742  25.3675278  80.6742559  26.8479963   6.0660084
  79.8134194  27.0831962   6.4122399  80.4887043  26.2144180   5.3729113
  64.6006680  56.4474678  71.7438555  64.4949675  56.3851404  72.6931572
  63.7061977  56.4872503  71.4053679  26.8750246   3.9766546  21.1777027
  27.7472408   4.3434807  21.0331066  26.7291362   3.4022613  20.4260262
   0.1903047  64.6374797   6.8970688   0.4290619  64.9332618   7.7755602
  -0.1527748  63.7533759   7.0270117   2.2159846   2.7456327  15.6561001
   2.6925762   2.9356237  16.4641770   2.8842170   2.4142738  15.0561817
  11.4617559   8.0854398  61.6861343  10.8044454   8.3315927  61.0352945
  11.2202093   8.5798776  62.4693394   2.3724308  75.0157641  14.1246803
   2.9324665  74.7374963  14.8493679   2.0168771  74.2008208  13.7701710
   4.4446905   8.0470415   5.8123596   4.9148781   8.8768526   5.8933933
   3.5230238   8.2987114   5.7538469  68.7459580  16.0323854  40.6279286
  69.0288053  16.2269302  39.7344120  68.9832173  15.1144739  40.7597550
  62.7752836  15.2460809  50.3427513  62.3678930  14.4221349  50.0755795
  62.2357709  15.5551048  51.0705288   1.2822380  81.1351441   6.8010719
   2.2068586  80.9345578   6.6559179   0.9183683  80.3316926   7.1729525
  34.7915936  79.9069071  67.3686361  34.5036936  79.8095894  68.2763100
  34.6769667  79.0368509  66.9864130  53.2603986  26.1257168   7.9829844
  53.1613405  26.1246820   8.9350422  52.3849733  25.9268375   7.6508721
  27.3322017  31.8547769  15.9352120  26.4205749  32.1237846  15.8220680
  27.8336675  32.4836632  15.4162987  79.6351688  81.3143777  17.9615601
  79.5897692  81.1108898  18.8957794  79.5166748  80.4700397  17.5264938
  65.3824902  76.7767048  55.3817940  65.1051283  76.4435196  56.2351942
  64.5825052  76.7846632  54.8562574  53.6659139  78.9351414   0.5917509
  52.7324741  78.9100789   0.3812893  53.9745038  79.7588848   0.2143248
  77.8493500  47.4314260  65.1549339  77.9858494  47.5280380  66.0974121
  78.3851957  48.1211901  64.7633696  72.1103828  64.1840791  20.0562008
  71.9450968  64.8817705  19.4220551  72.5805061  64.6154188  20.7697590
  86.6594826  33.5127064  24.5384224  86.8165408  33.3953710  23.6015137
  86.0824786  34.2746349  24.5909699  39.9941833  70.6324144  28.8190754
  39.8566396  71.1125704  28.0025204  39.6795805  69.7478147  28.6326702
  10.3787215   9.5318981   9.4885357   9.9388034   9.9936720   8.7747582
  11.3101203   9.5964285   9.2774304  32.6659401  37.8378816  36.7424114
  32.0067508  37.3919721  36.2105568  32.7701385  37.2792574  37.5126846
  26.5251596  19.3720909   9.3082722  26.9077833  18.7005707   8.7435730
  26.8723638  19.1789957  10.1791294  62.6546621  69.8599434  68.8898134
  63.6059332  69.9158907  68.9803028  62.3269796  69.8794699  69.7889662
  26.7405796  56.9059086  64.4224119  27.6752520  56.7016459  64.3924570
  26.3388705  56.1321735  64.8176336  74.7788637  68.8141726  34.1489323
  74.5751112  68.1434320  34.8007210  73.9860075  68.8795661  33.6166390
  83.6449419  75.2448412   7.4664362  82.9772459  74.5823999   7.6441820
  84.0679394  75.3915735   8.3124741  76.9501386  34.9693294  26.0039337
  76.8442558  34.1881891  26.5469273  76.0917161  35.3923889  26.0229309
  33.9459031  74.6020697  10.5171307  33.7147211  74.9612950   9.6605404
  34.8592656  74.3310665  10.4246243  50.4520845  18.5324943  68.8539314
  49.7364759  18.3360851  68.2493162  51.2463951  18.3428359  68.3546019
  14.0678365  51.7526384   3.6625631  13.5214002  52.5089212   3.8762720
  14.0570934  51.7119547   2.7062901   4.4613726  37.4290415   7.7542360
   5.1904066  37.2792049   8.3561428   4.7133572  38.2108160   7.2627457
  16.9196088  34.9181362  18.9728840  16.9223411  35.3401275  19.8320397
  16.4146335  34.1152902  19.1019829  73.0331659  60.4391336  71.4108372
  72.5639153  60.3121901  72.2354126  73.7636423  59.8220348  71.4534998
  20.4936266  21.0343480  48.1320572  19.7547019  21.2743354  48.6911869
  20.1181006  20.4433775  47.4794006   4.5740707  29.3066498   3.5116776
   4.9151714  29.5965572   2.6656063   4.3297846  30.1155754   3.9613398
  22.5668724  16.1857935  13.0401238  23.2963998  15.9432932  12.4698456
  22.9830844  16.5768142  13.8083084  61.5195554  73.8632201   6.5498551
  61.7907517  73.1034492   7.0650585  61.1664884  73.4909772   5.7417639
  74.4835441  66.9099020  13.8554867  75.0347155  66.2782763  13.3934315
  73.7264459  67.0313453  13.2825287  79.0776308  10.2856298  23.1945427
  78.8555009  10.0631901  22.2904404  79.8688467  10.8194824  23.1223877
  82.3389881  74.6048449  16.4491470  82.9961603  74.8680590  17.0934113
  82.6868503  73.7987422  16.0678013  77.7084112  48.9764690  55.2681303
  78.3910751  48.3347034  55.0723362  76.8880033  48.5022116  55.1330996
  83.7754951  13.4343239  17.6271160  82.9783188  13.0261036  17.2893341
  83.5894786  14.3731256  17.6102741   2.8058822  27.4765917  34.5376309
   2.8492363  28.0136820  35.3287609   3.4365661  26.7730470  34.6909149
  14.9702556  16.5728851  18.2310589  14.3208177  17.1869465  17.8884228
  15.2833612  16.1003252  17.4597748  46.1631298  32.0608640  63.1000423
  47.0179033  32.4851418  63.1747866  46.3630438  31.1259174  63.0537271
   4.6500547  59.0738245  32.6047142   5.3547771  59.3105264  33.2076843
   4.5702488  58.1238409  32.6906880  24.5732744   9.7626920   4.4971235
  24.8191030   9.5578905   3.5949858  24.3898637  10.7021089   4.4880112
  11.8462284  18.4717651  13.1902893  12.6446159  18.7533279  12.7435978
  11.5995319  19.2198368  13.7341316  40.9554853  82.9564570   1.9950779
  41.1531057  82.1359776   2.4467381  40.7775869  83.5804271   2.6988133
  86.5776239   1.9454523  29.4527157  85.7923327   1.4674898  29.1860684
  86.2899028   2.8551813  29.5291718  80.6659525  59.0534376  18.9026745
  79.7836225  58.6825703  18.8890751  81.1795252  58.4309112  19.4173916
  26.2332129  71.6790867  71.6883564  26.3525653  70.8579254  71.2111950
  26.4755678  72.3588800  71.0595655  16.5135772   8.2022997  15.4115208
  17.3038871   8.7107750  15.2295979  16.4454753   8.1988617  16.3662918
  79.9772041  67.8419207   4.1895350  79.1653602  68.2857679   3.9442881
  79.7342842  67.2930716   4.9351795  24.7803736  19.8146749  65.4036808
  24.2110682  20.5824757  65.3526592  25.6457067  20.1413298  65.1572514
  82.7687168  45.8155918  61.1287355  83.3072376  45.2478075  61.6799545
  82.9967308  45.5661917  60.2331686   2.0249684  20.9510179   5.0447186
   1.2939389  20.4341217   4.7061165   1.9477756  20.8804460   5.9961851
  43.3792019  82.7693653  68.6250687  43.1606007  83.6610126  68.3541250
  42.6070404  82.4685097  69.1041231  42.6623487  69.2428493  63.7784100
  43.3979940  68.6492825  63.9291906  42.4820995  69.6239901  64.6377516
  39.1360767  52.5335356  34.1014870  39.3078668  51.8120332  33.4963806
  38.8418634  53.2514234  33.5408505  59.9222524   5.9851070   6.5185555
  59.0939481   6.3756510   6.7971285  60.1055486   5.3162285   7.1782787
  73.4761594  38.1262632  18.1416901  73.4029911  37.2589107  17.7434738
  73.4273980  37.9623028  19.0834816  84.7344027  23.0096098  42.1181210
  84.6140610  22.1881576  41.6417130  84.9524365  22.7394243  43.0101402
  34.0299757  15.0064703  27.6160057  33.8699062  15.2895208  28.5162838
  34.4490392  14.1504904  27.7049835  27.3796375  11.8629595  52.8081997
  27.9250629  12.3226400  52.1698959  27.2066934  12.5138899  53.4883602
  78.8977718  76.3471556  68.8823509  78.6034727  77.0885086  68.3531857
  79.4175100  75.8145285  68.2803488  30.7096045  64.3255733  20.0363072
  30.4804142  64.9561452  19.3536099  30.6953766  63.4771847  19.5932873
  44.1052301  34.4671388  10.6111344  44.1015441  35.3464218  10.2328690
  44.3767364  34.5983549  11.5195950  75.6654072  47.5444984  69.2595577
  75.0017500  48.1602335  68.9486551  75.3093052  46.6815472  69.0480471
  82.5869690   0.0133224   6.8135842  83.1719671  -0.5379633   6.2938793
  83.1686149   0.6380745   7.2467192  25.8001668  35.6483265  22.3064335
  25.3044183  34.8696800  22.0530995  26.0867746  36.0302015  21.4768131
  79.8125873   0.5612608  31.8984326  80.0171934   0.7646652  30.9857472
  80.6594120   0.5823227  32.3441609  76.4769667  82.8343200  14.6987732
  76.4866655  83.7914132  14.7091110  75.8618563  82.5935267  15.3915127
  53.0223179  13.5663080  51.5841007  53.4026814  14.0854549  50.8755541
  52.6293755  14.2128587  52.1704435  69.3269174  80.6249665  14.3847378
  69.7911375  79.9125098  13.9452656  69.7628610  80.7076358  15.2328785
  87.4419223  14.9999996  11.6739567  87.9033743  15.4525896  12.3799713
  86.7556344  14.5014091  12.1174057  22.8306587   0.9994312   1.7287167
  22.9894168   0.3468128   1.0467251  22.4694450   0.4985758   2.4600847
  83.5975252   8.0806442  19.2669495  84.4749509   8.4628721  19.2510040
  83.5874663   7.4730774  18.5273560  78.7197321  62.0842313  27.9613598
  79.1382616  61.7056178  28.7344845  77.8125112  61.7826031  28.0082329
  14.3926151  12.6845594   9.0126331  13.7881525  13.3707138   9.2955788
  13.8714845  12.1312710   8.4308060  85.3812759  77.1445869  27.9732235
  85.3476923  78.0271148  28.3423432  85.3369491  76.5650367  28.7337406
  77.6990955  71.8247079   8.1848438  77.4449413  71.0567068   7.6731737
  77.4382513  71.6124724   9.0810307  12.4368770   2.2523828   5.9186800
  13.1219013   2.5524088   6.5161379  11.6547020   2.7324196   6.1907013
   6.8208685  79.0867733  15.4852017   7.1133365  78.3586191  16.0333737
   6.6839256  78.6966990  14.6218880  29.6873958  29.8851057  21.3681515
  29.7438724  28.9588829  21.1332901  30.2306421  30.3306003  20.7180317
  26.7566514  65.5313349  70.6446791  26.0912561  65.1362324  71.2080431
  27.0502186  66.3044596  71.1266804  27.4221792  28.1739137  62.9109859
  27.0652380  27.7515122  62.1297026  26.7569532  28.8148400  63.1618309
  57.6224089  63.0177927  59.5812321  58.2485867  63.6266041  59.9730015
  56.8219614  63.5320807  59.4762135  87.9759036  21.0820623   2.3819502
  87.1084748  20.7018038   2.2433813  88.5678874  20.3299804   2.3945387
  54.5562887  79.8527622  62.9085970  54.1255283  79.5878029  62.0958996
  54.3353939  80.7790375  63.0057812  66.1354685  65.8333492  68.8278246
  66.3122463  66.5978193  68.2795858  66.9197321  65.7399130  69.3685961
  49.9118185  31.7639661  54.2643690  49.2811346  32.3175550  53.8039303
  50.6082535  32.3643994  54.5302486   9.2783244   6.0095878  33.4764298
   8.6447413   6.7270799  33.4748467   9.8196037   6.1663242  32.7026756
  18.6654319   2.5172326  61.0811710  19.5424070   2.1569058  60.9496117
  18.5347213   3.1065843  60.3383350  27.2776134  16.9213911  21.7479714
  27.1231992  17.8582330  21.6266831  27.5360687  16.6070982  20.8815678
  49.9913120  58.6932564  70.1575661  50.1196289  59.6140432  70.3854179
  49.3328905  58.7079144  69.4629431  15.6858846  60.9596014  62.1784973
  16.4687273  61.0563278  62.7207565  15.0912115  60.4291821  62.7088261
  79.2388647  75.8302997  24.4359692  78.7749784  75.0035595  24.5684059
  78.9803665  76.1120843  23.5584744  32.9432399  39.2971464  13.6893757
  33.4908111  39.9898763  14.0588482  33.1874330  39.2665334  12.7643498
  56.6814096  36.8872400  11.5766533  56.2795026  36.0188003  11.5993126
  57.4950559  36.7875715  12.0708950  31.2765939   2.4629970   1.0867556
  30.3657777   2.2358175   1.2739428  31.2195642   3.1873079   0.4635723
  18.7016399  32.8354927  16.1004170  18.6092145  33.3847709  16.8788632
  18.4123714  31.9681020  16.3835915  49.0828943  51.9458532  66.1390781
  48.5051298  52.5414181  65.6618786  49.7629786  52.5124884  66.5032816
  52.7897985  15.9368177  21.1592873  52.7435453  15.7184263  22.0900925
  52.1705015  16.6586872  21.0515793  18.4301002  28.4405847   6.0439499
  18.9056070  28.3653160   5.2166279  18.1612260  27.5448747   6.2480171
  38.1622751  22.7739235  18.3540352  38.0491025  23.4665533  19.0049465
  37.3242862  22.7395387  17.8927048  21.9627769  24.1509767  11.1733254
  21.7573936  23.4579559  10.5458172  21.5866382  24.9422880  10.7878693
  29.6127405   2.2148892  36.0917449  29.8686971   2.1977231  37.0139313
  29.0798273   1.4281747  35.9764028  43.6770715  53.1547152  12.2855003
  42.8521909  52.6695036  12.3048409  43.8782301  53.2480978  11.3543423
  80.9719167  23.8510986  12.9390438  80.4012953  23.1124159  12.7269753
  81.6465364  23.4775301  13.5061081  74.7514963  82.1282673  69.6112156
  74.4845963  83.0433178  69.5235920  75.4047346  82.0023441  68.9229918
  85.7143457   5.8524843   8.5506066  86.0981233   5.2749916   9.2104920
  86.3458879   5.8472772   7.8313263  33.7999876  33.8200374  34.6819122
  34.3798120  33.9104172  35.4381283  34.3903692  33.6648842  33.9446171
  53.1257153  68.4577608  56.4372778  53.5916233  68.4213877  55.6019115
  52.2547579  68.1125927  56.2409925  88.2177275  76.1900424   7.4538668
  87.3410528  76.5730690   7.4227436  88.7922256  76.8793296   7.1206101
  76.7016619  70.0346516  39.7902115  76.0692613  70.2027415  39.0916165
  77.3491447  70.7338976  39.7004994  16.0557992  45.6400438  36.0236366
  15.1008852  45.5740305  36.0274799  16.2307270  46.5804239  35.9871872
  21.5326619  57.0375013  41.3400412  21.0347033  56.3329840  40.9254026
  22.0805359  56.5943813  41.9878912  49.9729586  65.3313637  56.3481998
  50.5334997  64.6683168  55.9452200  49.0983582  65.1453829  56.0065556
  77.5280772  33.6109777   6.2922056  77.2030137  32.8983970   5.7419356
  76.7642663  34.1694637   6.4368256   9.0403516  64.8929163   5.7760819
   8.9094336  64.4841619   4.9205025   8.2755215  64.6285864   6.2873562
  64.3253630  69.5929216  41.2108429  64.3301027  68.7380194  41.6413601
  63.5089867  69.6049641  40.7112225  11.2062223  37.0029255  24.4425114
  10.8296926  36.5251537  25.1815518  11.9621570  37.4590441  24.8122986
  11.9732895  80.6048726  18.8586147  12.5493660  80.3077840  19.5629604
  11.3591995  81.2012552  19.2869290  52.3970175  65.6988525  53.0802011
  52.1244764  64.9957657  53.6698008  51.8694639  65.5686188  52.2921944
  40.3102977  41.6013189  10.7482155  39.7750289  40.8790727  10.4194554
  39.6900756  42.1716734  11.2023552  41.7857082  13.3532234  14.3246849
  42.2679718  13.8671299  13.6769589  42.3506458  12.6012989  14.5026787
   0.8894784  25.1494547  13.1823547   0.4534133  24.3357654  12.9293926
   0.3645737  25.8389230  12.7757271  61.6510868  57.3795986  34.3013525
  61.9251299  56.5166378  33.9908195  61.7987442  57.9606676  33.5551691
  37.2165210  37.4861427  17.7155598  37.5748498  37.7574344  16.8704327
  36.9220073  36.5865751  17.5731953  59.2451017   8.4574696  40.4932070
  59.7682684   8.5509774  41.2893152  59.7315638   7.8293225  39.9593306
  51.5966661  10.8289142   9.6636303  50.7953031  10.7863899  10.1854046
  51.3633974  10.4157778   8.8322933  35.5962236  11.3940473  47.9679115
  35.8151157  11.7932649  48.8099011  34.9815996  10.6938406  48.1874092
  58.6236246  38.8919588  13.1023224  58.9251001  38.8859125  12.1938618
  59.4091566  39.0850206  13.6140831  68.0960703  76.0121250  70.5232573
  68.9927053  76.3388968  70.4491091  68.1961298  75.0833416  70.7320213
  48.8783789  43.7541103  43.0015945  49.0567589  43.0252600  42.4072981
  48.4953070  44.4304276  42.4429464  41.8578918  26.1961504  18.8333996
  41.9435318  27.0660682  18.4433468  42.0326240  25.5918928  18.1118973
  54.7919750  67.4749804  63.8944578  55.1009226  67.5411415  64.7980118
  55.5911636  67.4723005  63.3676577  84.3444317  10.1716706  70.1889706
  85.1556700   9.9548814  70.6484556  84.0236299  10.9593961  70.6280708
  77.4088812  45.7505751  62.7011871  78.3049345  45.9101534  62.4047709
  77.3689890  46.1510849  63.5696507  65.5626249  42.2487259  45.1739359
  66.4287186  42.3227215  44.7731447  65.0559092  42.9601336  44.7823095
  13.1315668   5.6401773  15.0231178  13.0855186   6.4810034  14.5680149
  12.8126533   5.0037142  14.3832405   6.7644174   3.1754823  15.2170380
   6.8740804   2.2630544  15.4847725   6.8972595   3.1645771  14.2691620
  61.5408516  80.4805660  70.3454256  60.8133459  80.2937508  69.7520685
  61.4019442  81.3880348  70.6164122  13.2081015  72.9331103  53.4280634
  13.3663685  72.0596531  53.0699348  13.5172207  73.5307398  52.7472448
  60.6074374  77.7598308  13.8007363  60.0507181  78.3936428  13.3484276
  60.5692761  78.0211638  14.7207840  32.8239417   6.3042766  61.4158010
  32.6294708   5.7988214  62.2050571  32.6296687   5.7059985  60.6943083
  35.0130116  12.4596952  28.0191811  34.2336061  12.0436930  27.6508053
  35.3013187  11.8607472  28.7079247   8.0377263  15.9681463  57.7011967
   7.4974954  16.7388773  57.8754234   8.1394494  15.9571302  56.7494774
  44.2199945  75.6598093  49.2835339  43.5169125  76.0767700  48.7854775
  45.0203466  76.0737755  48.9605816  49.3773634  73.0707303  40.4126978
  49.7424824  73.3715483  39.5805740  48.4293348  73.1112698  40.2868891
   0.6122770  65.9124039  28.9361675   0.6351366  66.1578153  28.0112465
   1.5318384  65.7997130  29.1768654  24.1175301  64.2701033  56.5165043
  24.1074164  65.2217427  56.4139795  23.4499580  64.0935126  57.1793747
   8.1676263  21.8114734  65.3483772   7.8163469  20.9808016  65.0277233
   8.3835196  21.6421747  66.2654161  81.3057917  46.5377651  22.5912007
  80.7561891  47.3210143  22.6174172  82.0027988  46.7129885  23.2234295
  73.9271627  79.8860890  58.9684963  74.8616121  80.0743958  59.0555382
  73.8634417  78.9366993  59.0725708   2.5776703  65.5981317  65.6959200
   2.6372821  66.1678496  64.9290419   2.7608997  66.1748591  66.4375734
  12.0010948  16.3630259  43.3591986  11.2121546  16.4589441  43.8926792
  12.2577369  15.4479849  43.4735107  10.4851055  22.1806884  45.0708151
  11.0338390  21.3971543  45.1054239  11.0047340  22.8154087  44.5775080
  46.4221030  40.9701145   7.1280153  46.9814556  40.5875717   7.8040465
  46.0774677  40.2171235   6.6479500  13.4616077  45.7012177  52.0663404
  12.5491869  45.9856510  52.1194363  13.5639811  45.3915834  51.1664057
  42.4626541   1.5394579  64.5754433  43.1325436   1.8731423  63.9786768
  41.6360998   1.8484695  64.2045641  70.7935875  62.1178316   2.1929987
  71.1065548  61.2315332   2.3739870  70.8209436  62.5594877   3.0417784
  78.9348095  34.8421793  19.7981747  78.9527481  35.7582103  20.0753029
  79.3123644  34.3616312  20.5348976  40.1343363  53.3121477   2.2863396
  40.5548292  53.1878983   3.1372078  40.6885486  52.8300487   1.6726072
  82.5273684  20.2842808  43.6472559  82.5868324  19.5561063  44.2656851
  82.6100370  19.8745418  42.7861452  38.3198862  73.7181281   5.9398373
  37.8462236  72.9047607   6.1139258  38.6205821  74.0091466   6.8007191
  34.2002749  19.9415982  59.6345949  34.2110276  19.6161592  58.7344790
  33.7830043  20.8009005  59.5736265   4.0840915  48.3167982  69.5225048
   3.8678870  48.9089489  70.2428150   4.5689172  47.6028872  69.9366379
  85.6804626  77.4488186   7.2044714  85.8702343  77.6934003   6.2987145
  84.7308748  77.3303961   7.2266586  77.4981938  46.0203794  51.5739632
  77.3201833  46.1649683  50.6446409  78.3932183  46.3361171  51.6983461
  45.9204865  14.5606208  70.6235552  46.6569042  14.7530794  70.0431442
  45.4578495  13.8416266  70.1931524  40.4616976  10.0624633  64.4601107
  40.9524679   9.3098652  64.1300058  39.8710632   9.6938163  65.1169872
  17.4529552  14.8753858  24.0102935  17.0296443  14.0922856  24.3621349
  18.1769633  14.5393932  23.4819436  72.0546547  16.3112354  60.2529907
  71.7052272  16.1846197  61.1350918  71.4073709  15.9029233  59.6780682
   1.2267876  18.6232579  57.9683352   0.5156952  17.9846966  57.9152298
   0.7990374  19.4362628  58.2371902  79.9667566  72.2901582   1.3995798
  79.4894045  72.8328275   2.0271738  80.8894842  72.4554848   1.5931519
  71.3340459  82.9566688  71.3532305  70.8398710  82.1573400  71.5351534
  70.6743429  83.5840459  71.0575581  58.5069268  27.9341446   5.1787336
  59.0918653  28.5230039   5.6555184  59.0939539  27.3336159   4.7193916
   4.0505559  82.0799217  54.9437094   3.5281140  82.8547080  54.7363663
   3.4048421  81.3937488  55.1123810  18.5121567  50.3813055  67.4136686
  18.4330923  50.0164416  68.2950640  19.3106396  49.9874762  67.0621586
  29.8322113   8.6483761  35.1287563  30.1343448   7.7409740  35.0890835
  30.1472623   9.0415235  34.3148716  54.9398702  55.2466379   4.7116717
  55.0953024  55.3804945   5.6466349  53.9878409  55.1852809   4.6335133
  60.5279827   5.9866750  47.9677916  61.0869455   5.7774609  47.2194481
  60.8475542   6.8347728  48.2757473  31.0189676  79.0350439   0.3463896
  30.1419687  79.3976356   0.2213534  30.8769989  78.2324840   0.8483561
  79.1329608  79.0109175  47.1591568  79.8964176  78.8506761  46.6044617
  78.3926008  78.6844146  46.6477919  80.1081977  73.6120352  59.6553898
  81.0144434  73.8776490  59.4991827  79.9900685  72.8326324  59.1124249
  63.1452744  54.4397031  23.4518822  62.7246611  55.2084504  23.8370331
  63.1965869  54.6380161  22.5168617  14.1787226  73.2666567  68.7425613
  14.4564468  72.8547397  69.5607471  14.9900038  73.3927867  68.2504749
  46.9540644  81.2147428  19.2826279  47.8851986  81.4283325  19.2226036
  46.5129662  81.9399931  18.8402756  43.2883220  49.9529200  17.4206932
  44.2057925  49.8803316  17.1576126  42.8416019  50.2858942  16.6423615
  87.0421933   4.2080122  51.2908888  87.9242983   4.4006443  50.9730577
  87.1805813   3.6680394  52.0690346  86.9763003  62.2805622  61.8362045
  86.0999976  61.9118336  61.9473886  87.0684657  62.9012421  62.5590420
  48.6546516   4.4261965  72.0127630  48.5206795   5.3657007  71.8878078
  49.4524479   4.2305827  71.5213442  63.2249658  35.1363771   6.8942650
  63.6692779  34.4091605   7.3301275  63.6598509  35.2080761   6.0445793
   6.9399208   0.8306073  37.1101880   6.6589826   0.6254818  38.0019450
   7.6667160   1.4432067  37.2229815  33.0482847  76.7677459  69.2487621
  33.9357597  77.0024636  69.5199108  33.0907185  75.8266786  69.0789843
  75.3500193  77.2016882   6.2361487  74.5936220  77.5786113   5.7866772
  75.1431339  77.2879695   7.1667345  66.3242691   7.0560788  14.8468979
  65.5261128   7.4322270  15.2179630  66.0246580   6.5664719  14.0809067
  21.5411239  80.4092072   5.1462372  21.3174837  80.4647540   4.2171915
  21.9029211  81.2698792   5.3573759   5.0323069  41.8073845  27.2140265
   5.0219923  42.7621269  27.1462536   5.7561433  41.6174412  27.8108644
  40.2048492  37.8940678  69.6619320  40.3090382  36.9641757  69.8636150
  39.6821880  37.9081511  68.8601446  31.5845037   3.3682433  43.1986856
  32.0047402   3.9502251  43.8318729  31.7738390   3.7634644  42.3476934
  75.4595487  78.3270835  11.3232239  75.5030125  78.2657098  10.3689774
  75.5727213  79.2593025  11.5086754  27.0065052  64.1835299  51.4580774
  26.9161827  64.5727006  52.3279142  26.3440687  63.4929791  51.4346790
  66.6618984  51.5456497  13.8329800  67.2230595  52.3192846  13.8860710
  66.4097970  51.4954453  12.9109486  85.3648727  64.3985556   7.6898201
  85.6955021  65.1922058   8.1105717  84.4269054  64.3992137   7.8807552
  28.6705279   4.5316783  51.0907412  28.1242108   3.7934673  51.3605833
  29.0583253   4.2521209  50.2614689  44.0680998  48.0570202   1.2022932
  43.2230990  48.3733087   1.5219267  44.2123108  47.2381716   1.6765507
  35.0541639  10.2084422  53.0128956  34.2037678   9.9810421  52.6369333
  35.6891561   9.7453249  52.4665070  44.5295291  28.3604084  19.2826470
  44.2110889  28.5928880  18.4104164  44.8421638  29.1864919  19.6515282
  24.4733317  51.9095996  55.7026196  24.5270426  50.9702852  55.5264568
  24.5467217  52.3195055  54.8407459  46.6500599  78.3799091  18.7950706
  47.2265751  77.8345689  19.3302989  46.8627483  79.2771631  19.0518415
  31.5598563  46.4001282  19.2458351  31.4001637  46.6345923  20.1600273
  31.0893670  45.5754339  19.1243847  12.8805423   1.8109204  58.2744217
  12.8175652   2.0542136  59.1980410  13.7463665   1.4115100  58.1904459
  76.1742704  42.3209107  50.3448017  75.5450790  41.6340155  50.1245220
  76.5577429  42.5728207  49.5047291  14.7566140  53.3631754  41.6200161
  14.7707260  53.0248594  42.5153255  14.6243560  52.5886440  41.0733557
  37.0436083  11.6930388  16.1062153  37.8997009  11.7569159  16.5295990
  36.4158111  11.7376565  16.8274029   0.3276767  55.0517463   9.2448719
   0.3658571  55.6563686   9.9859532   1.2222995  55.0326489   8.9050015
  14.0093286   4.6345373   4.5094355  14.2163141   3.7095590   4.6428545
  14.7862966   5.1007601   4.8179539  52.1681445  54.7766756   4.1799410
  52.3027819  55.0689577   3.2784565  51.3290732  54.3164765   4.1597326
  50.5392027  51.0947704  70.9222174  49.6416426  51.3685751  71.1110210
  51.0410166  51.3745356  71.6878223  16.3159449  73.0915227  54.2125797
  16.1041720  72.2101155  53.9051580  15.6676514  73.2697645  54.8938847
  54.3128102  49.8027514  17.1733482  53.7309497  49.9323272  17.9222687
  54.9100535  50.5502241  17.2019203  81.6748415  15.8227297   6.4805086
  82.4959908  15.9649988   6.0096558  81.0370813  16.3680597   6.0199555
  61.4824486  25.9376001  64.3816853  61.8044853  25.1111746  64.7416115
  60.5497885  25.9453106  64.5969057  76.9328594  26.7720032  69.5244408
  76.3016939  27.3454475  69.0896702  77.0619011  27.1677494  70.3863955
  76.5657680  31.9070714  20.5840977  76.0410946  31.3243388  21.1330708
  77.4488895  31.8488448  20.9487064  20.5536778  81.0570313  50.2587938
  21.3016398  80.6235231  50.6697130  20.5374367  80.7117519  49.3661833
  42.7891581  56.4689742   4.2845114  43.1341617  57.1742021   3.7369164
  42.4984997  56.9071423   5.0843580  14.2211540   7.0431514  25.7657440
  14.7073801   7.2735210  24.9740704  13.3991773   6.6737838  25.4430111
  38.5189390  22.3877215  35.7682061  38.7387657  22.5782394  36.6801333
  39.2946291  22.6534271  35.2743077  30.6624372  23.1905981   3.5360058
  29.7812135  23.1112715   3.1707819  30.8987863  22.2977443   3.7873800
  58.3464306  28.9831840  13.6919602  58.0063312  29.3857716  12.8929051
  57.5913780  28.5370241  14.0754612  55.4375856  50.0616972  20.7760246
  56.2372606  50.4658859  20.4392918  55.5591123  50.0449036  21.7253216
  66.0084336   6.6505669   1.8486364  66.1148279   6.5598654   0.9017046
  65.1788919   6.2127589   2.0394762  86.5430818  59.5011380  68.4172726
  86.7231713  60.3859690  68.7348795  86.8919120  58.9264563  69.0986586
  44.0007877   7.5902689  25.0201869  43.5685730   8.1250679  24.3542957
  44.1968679   6.7658484  24.5750880  51.5230792  56.7366360  19.4191940
  52.3636144  56.4236461  19.0848740  51.2805121  56.0997556  20.0913342
  43.1587505  18.6389661  35.6605887  43.6028147  18.3140099  34.8773623
  43.2978964  19.5857596  35.6393743  37.0789777  61.8929027   2.6550682
  36.7999130  61.0622059   3.0401619  36.5396111  61.9860481   1.8698033
  49.0246725  22.6570177  66.7972469  48.2333660  22.9554582  66.3489199
  49.3987036  21.9994879  66.2107372  20.9883387  39.3889192  69.3962193
  20.0396902  39.3826535  69.5237494  21.3334734  39.8047450  70.1862860
  74.8280048  24.0517735  46.6993952  75.3870869  24.7935605  46.9305038
  75.1966906  23.7198710  45.8807755  44.7324085   4.2978555  69.0613604
  44.3610907   3.5157076  69.4695282  43.9715290   4.7991621  68.7681198
  44.3670516  46.3299843  26.3373860  45.2966338  46.2650852  26.1185272
  44.2330199  47.2555893  26.5411480  28.2918477  34.8045802  39.1714311
  28.5260463  34.0408349  39.6987581  27.9424286  35.4335141  39.8027635
  51.6214912  58.1764149   1.2705858  50.9059208  58.7661957   1.0332068
  52.3283546  58.7579809   1.5505036  77.6036024  19.8838305  68.0734301
  78.0126047  19.0190792  68.1074381  77.1215057  19.9533343  68.8974333
  70.4183214  64.6670197  13.2689198  70.4423111  65.6193994  13.3617981
  71.3346784  64.4141482  13.1567677  56.4280748  45.5628157  52.7793884
  55.7181025  45.0244427  52.4296427  56.9322729  44.9651146  53.3314466
  44.5210409   6.2626743  42.6928043  44.2640781   5.9045571  43.5424805
  43.6933899   6.4130652  42.2360659  42.3852854  63.3356618  28.9685829
  43.2782882  63.0516051  29.1637524  42.4882870  64.2125677  28.5989006
  73.8264751  37.5745249  68.4028339  74.3348980  38.0535769  69.0572405
  72.9172564  37.6766968  68.6840916   6.8931999  41.1065865  23.3752068
   6.9211330  42.0136364  23.6796959   7.1346273  40.5886239  24.1431053
  28.2809687   4.5920882  37.3519516  28.6071467   4.1842785  36.5497470
  28.7449956   4.1396880  38.0563974  35.4604125  27.3173499  64.6604061
  36.0422969  27.6961756  64.0015173  35.0640869  28.0735874  65.0931406
  15.7117111  57.7678206  66.5988541  15.5154307  57.4904349  67.4937057
  16.3915045  57.1618965  66.3039398  11.6669297  35.3581023  45.6477356
  12.6036799  35.2838182  45.8299828  11.5532005  36.2576580  45.3409863
  43.6579847  13.6798012  44.6977425  43.5964441  13.2138717  45.5316210
  43.0798769  14.4354963  44.8023939   2.7895250  55.0286208   8.3455570
   3.1219759  55.6181525   7.6686867   3.5465994  54.8551225   8.9049919
  48.2888317  39.7647166  70.2474070  48.4333801  40.6593275  70.5556393
  47.8214407  39.3367934  70.9648037  77.7767341  81.4706444   9.8758515
  78.7061708  81.6035603  10.0621613  77.4216144  82.3549794   9.7859867
  37.2492821  70.5987850  59.7611761  36.7207033  70.8058944  58.9904976
  37.7455361  69.8200777  59.5090294   9.0791406  21.8290399   7.7658852
   8.6272230  22.6484965   7.9671105   9.9852600  21.9833862   8.0329998
  79.3199842  52.7725552   9.7605904  78.6806791  52.9275142   9.0652378
  80.1588266  53.0262266   9.3755921  76.0763071  59.8266271  55.5064774
  76.0907386  58.9627007  55.9183693  75.4853080  60.3432730  56.0542250
  47.9932022  27.4587369  62.0020485  47.8159761  27.3883390  61.0640335
  48.2716846  26.5799642  62.2597933   5.5165090  17.6221942  14.8161038
   5.7154407  16.6869735  14.8610314   6.2895002  18.0494808  15.1850804
  34.1011548   3.3704567  51.8074799  33.8416696   4.1949770  52.2186565
  33.7544441   3.4273115  50.9170914  62.3792355  48.6345218   6.2123688
  63.1119292  49.1369175   5.8560141  62.6546853  47.7211361   6.1343630
  38.4582459  69.0543388  13.8682087  38.8666164  68.7242292  13.0679043
  39.1088032  68.8954972  14.5521553  20.1913578  73.1990156  70.5972147
  21.0795433  73.1553891  70.2430248  19.8483307  74.0349510  70.2813387
  12.2202522  67.1147028  68.2318306  11.9463236  68.0300215  68.2900238
  13.1765873  67.1490469  68.2536650  62.2411125  59.3741761  12.2249706
  61.6904467  59.5332454  12.9915913  63.1330912  59.5334410  12.5335892
  61.4066499  43.8245367  17.5197418  60.6145351  43.9247859  18.0476959
  61.3833397  44.5623814  16.9104202  40.6312847   9.9684930  70.5171204
  40.0093842  10.4762673  69.9959326  41.2964392   9.6869373  69.8890018
   4.1904869  50.0541090  20.5760582   3.2923450  50.3664182  20.6857784
   4.5155801  50.5246173  19.8084839  37.6603763  63.4662174  37.2156342
  38.3436774  63.7980913  36.6332348  36.8736147  63.9482354  36.9608887
  63.5344952  45.8188065   6.8635996  63.0663936  45.0023447   7.0382555
  64.4589846  45.5901759   6.9599350  60.9156816  24.9801325  16.3720139
  61.3513248  25.3906571  17.1189507  61.5213292  24.2953955  16.0881813
  31.0689354  19.9371338  60.9777403  31.5645671  20.0616288  60.1683712
  31.5031004  19.2041194  61.4141178  72.6586788  51.4594369   2.6485451
  72.1961372  50.7771729   2.1619232  73.5837572  51.3044761   2.4576290
   1.8083579  57.1604589  55.5551672   1.5611894  57.4273375  56.4405584
   1.8453152  56.2047866  55.5946112   9.0748781  30.8534002  38.8369870
   9.5230722  31.6691685  38.6136556   8.1959015  30.9553552  38.4719706
  45.1441288  14.0932989  65.8305025  44.8060417  14.8174107  65.3036356
  44.5322657  14.0242374  66.5633631  16.6176736  62.9744148  56.2989330
  17.4587345  63.0352640  55.8459997  16.8402314  63.0419493  57.2274446
   9.7164764  65.0390314  20.8995350  10.2047147  64.7545027  20.1269444
   9.3216934  64.2371439  21.2421044  57.5866652  47.5793314  55.4317236
  57.8610325  46.6710138  55.5578804  56.9506407  47.5404072  54.7174454
  38.9966393   2.0822127  70.4993296  38.9376259   2.9622412  70.8712149
  39.7358155   1.6789088  70.9545183  36.9907641  25.5865383  69.9465942
  36.8365955  26.3792849  70.4604149  37.3016310  25.9066677  69.0997696
  38.3965450  59.7603666  12.1152504  39.3097048  59.8079418  11.8322189
  38.4215199  59.2402302  12.9184158  41.5465117  16.7546988  39.4268966
  41.5855932  17.5064445  38.8356400  42.2674370  16.1912107  39.1458607
  75.9472006  51.6570650  18.7802036  76.1966293  51.7760013  17.8637608
  75.6477707  50.7493274  18.8310726  47.4696606  69.7898697  16.4459808
  47.3251443  69.6181201  17.3764904  48.0920678  70.5169176  16.4304646
  81.3761053  79.3501067  59.5899868  82.0666919  79.3091527  60.2515316
  81.1104403  78.4391329  59.4643641   5.2209789  81.8738364  57.5293827
   6.0531718  81.4478454  57.3239183   4.7517140  81.8975178  56.6954422
  14.9453725  56.1523341  33.2535751  15.7293882  56.6607534  33.0460652
  15.0955238  55.3016030  32.8413399  11.8139029  18.2571208  70.9112358
  12.1444571  17.7653301  70.1595020  10.9719789  17.8488827  71.1130714
  19.8357763  40.1898104  17.7705868  19.4519176  40.8650906  18.3299454
  19.2651691  39.4300513  17.8863533  85.3568237  56.4098297  15.2495487
  85.2499454  55.6794976  14.6401032  86.2445324  56.3075124  15.5926712
  59.6004343  11.0221851  61.3294458  60.5095768  10.7568145  61.4682388
  59.2010021  10.2802062  60.8754015  34.7754755  66.1943029   6.9520624
  34.8275270  65.7435797   6.1092289  35.1363363  67.0642422   6.7811449
  59.6951628  32.4021268  71.2863302  60.0967073  32.6874423  70.4656076
  59.6139669  31.4526749  71.1958790  26.0935378  31.4855409  40.5660295
  26.2005401  30.8184052  41.2440491  26.9178057  31.9720650  40.5765247
  85.8106726  54.1872941  13.1660565  85.7406633  53.2852243  13.4784706
  86.1841600  54.1084563  12.2882660  76.1605280  60.3888773   0.5553206
  76.8672865  59.7501587   0.6489332  75.6883257  60.1103114  -0.2293197
  58.8199902  26.1949730  65.5910826  58.5873652  25.3392196  65.2308035
  58.0859900  26.4220619  66.1619616  46.3587904  28.2311535  51.9218969
  45.5185461  28.3557343  51.4806414  46.4414835  28.9907384  52.4984550
  76.6997974   0.0655078  17.1830185  75.9321945   0.3241586  16.6730126
  76.8426817   0.7941912  17.7870377  58.8380401  64.4944738  30.6689270
  58.7168472  64.5615243  31.6160591  59.0127724  65.3919576  30.3856953
  65.5398624  70.3466510  14.3406971  65.3755587  69.4498967  14.6323593
  64.7717779  70.5723785  13.8159855  55.1757234  77.1951603  16.6325386
  55.5986374  76.5658854  17.2168263  54.2888277  76.8546747  16.5154083
  74.8586427   3.9015098  28.1561192  75.7931028   3.7227627  28.2612999
  74.5971869   3.3733936  27.4018200  24.6639681   2.1734037  70.5836678
  24.0900946   2.8778261  70.8848190  24.1847444   1.3703141  70.7876873
  65.4074144  29.2583418  71.1204624  65.6184006  29.8284411  70.3810644
  65.7209349  28.3941841  70.8536911  24.8711716  53.5550104   0.1217135
  25.3558328  53.0831097   0.7989462  24.4839572  54.3008457   0.5799969
  86.7984980  55.0642775   6.7827280  86.1405914  54.4668387   7.1383389
  87.5594204  54.9488305   7.3518522  64.2331856  14.6601008   0.2532919
  65.1111763  14.8017930   0.6072481  64.3815606  14.3751763  -0.6483929
   4.2870697  25.7550025  43.8587046   4.3763742  26.5818310  43.3847761
   5.0749701  25.7027388  44.3997335  22.2772312  42.3137856  20.9747124
  21.5607142  42.5541639  21.5621257  22.1661425  41.3735723  20.8336663
  49.1619682  31.6294456  66.2035084  49.6637630  31.0568094  65.6234026
  49.3383312  32.5126719  65.8794117  25.1221919  23.6651134  41.4331579
  24.4788718  24.2317843  41.8589020  25.6010056  24.2473221  40.8432436
  50.4887342   6.5778524  42.4058962  50.8074856   6.7430502  43.2932186
  49.6224070   6.9842815  42.3830652  82.7536457   4.6315383  10.3813179
  83.6365002   4.5263146  10.7358940  82.2516077   5.0172876  11.0992249
  85.3259199  57.6529728   0.7292708  85.7884519  58.3680378   0.2922590
  84.4899719  58.0357884   0.9954985  83.9246815  56.7631446   7.6892717
  83.6587637  57.0098113   8.5750874  84.5382469  57.4482273   7.4238833
  55.8268850  49.5459514   8.3232983  56.0520332  50.0487827   9.1060455
  56.6058581  49.6026425   7.7699288  62.2935343  19.4225776  55.4026556
  62.1148109  19.3445873  56.3397837  61.4615536  19.2067683  54.9813843
  50.0047016  30.3108454  49.7674990  49.5834589  29.5315003  50.1300049
  50.9400988  30.1653886  49.9093056  26.0486245  24.6742797  52.7289820
  26.2824440  25.6012964  52.6820660  25.4525828  24.6150970  53.4756184
  48.6546183  19.7722733  45.3623438  49.0838528  20.2900410  46.0434484
  48.4028912  20.4130268  44.6972895  55.9644549  38.2130264   2.4195917
  56.5468853  38.7917917   2.9115685  55.1346653  38.6882688   2.3768671
  10.0029888  51.3800811   3.4912975   9.7626629  50.4602646   3.3798893
  10.6141319  51.3804214   4.2280014  48.7589455  24.5819259  62.5074863
  49.3959188  24.8581123  63.1664371  49.0475225  23.7071490  62.2472572
  39.9157458  75.6926941  26.0360439  39.0609180  75.9294413  26.3958367
  40.4936259  75.6527923  26.7980774  69.4950693  68.3096503   9.9236019
  68.6825817  68.1602405  10.4070957  69.3009847  68.0174755   9.0329846
  44.5710891  22.7126728  24.5891579  43.9023321  22.8155183  23.9120968
  45.3142803  22.3172115  24.1336258  68.2848644  33.5601497  65.2799988
  68.3881760  33.4084606  64.3405581  67.6651621  34.2873216  65.3384781
  19.0447104  42.4331808  59.5859861  19.2946839  42.6503658  60.4840803
  18.2296395  41.9396019  59.6769381  75.5563419  82.0015954   4.0111502
  75.3852194  82.9021691   4.2866810  74.7362440  81.5387176   4.1826590
  53.5534286   5.2003598  60.3855944  53.0561781   5.4776138  59.6161127
  54.1520214   5.9270024  60.5585337  71.1960695  73.1996223  59.0722036
  71.3649319  72.3066738  58.7716055  72.0523832  73.6266407  59.0474367
  24.3428540  28.0957079  57.0545673  24.1838527  28.9993215  57.3273849
  23.5060382  27.8039598  56.6928291  56.6014188  82.2827576  63.5765560
  56.6585224  81.6725587  62.8412827  57.4004429  82.1266459  64.0799721
  75.4320066  20.6385301  -0.2236359  75.5260771  20.9985827   0.6582602
  74.6530598  20.0844191  -0.1742880  28.7701971  65.0164249  49.5623827
  28.0892975  64.8401084  50.2116299  28.3011562  65.0596705  48.7291002
  84.8065672  78.7956226  55.3854561  84.8589502  78.6541197  54.4402266
  83.9750753  79.2521742  55.5135775  52.2287033  75.9132919  62.3927116
  51.8699936  75.9143355  61.5052652  52.4433247  74.9961790  62.5632191
  36.1965763  52.2563373  15.5500706  36.5699112  51.4004295  15.3396614
  35.3241067  52.0597659  15.8912285  25.1263404  18.5758138  57.2687769
  24.9325371  18.6844468  58.1998348  25.1851583  19.4693255  56.9305325
  18.2367730  38.9271379  69.5018864  18.2118952  39.3898916  70.3394222
  17.7198994  38.1352782  69.6503162  77.4780338  38.1995581   5.6451758
  77.4273937  38.3151304   6.5940245  78.4158152  38.2016836   5.4533489
  34.7529268   7.4492317  47.4557304  34.2939878   8.2510215  47.7062082
  34.0619087   6.8656164  47.1424913   4.1665816  31.6087580  31.9397950
   4.6376455  32.4334741  32.0588517   4.6577251  30.9747982  32.4623871
  68.2354253  27.8340708  12.4170693  67.2849553  27.7593874  12.5022991
  68.5334843  28.1023358  13.2862290  57.2005241  42.3528646   1.8747433
  57.0588224  43.2606560   1.6062935  57.5709646  42.4184268   2.7549179
  63.7155574  48.6016600   2.7035530  63.5839098  47.9380851   3.3807333
  64.5304053  48.3449553   2.2718628  35.2710278  69.8881832  57.3562527
  35.5013830  69.1606823  56.7783976  34.4643623  69.6056274  57.7871609
  85.9784143  38.1152802   3.2091864  86.4840191  38.1060447   4.0219029
  85.5440157  38.9682304   3.2070311  26.4265418  18.3656240  70.4256535
  26.6946507  19.2162240  70.7732582  27.1021533  18.1451917  69.7844124
  33.6864591  13.6063242  69.3355560  33.2876420  13.7923694  68.4855175
  34.5417953  14.0343344  69.2976379  75.7013152  80.2613830  54.9339294
  76.1930058  79.5058790  54.6119308  74.9483416  80.3252032  54.3464041
   1.2452259  61.7265915   9.9842365   1.9548168  61.9436191   9.3795784
   0.4605140  62.0882272   9.5723065  58.1828850  25.2921735  18.2563503
  58.8847440  25.8191906  17.8744038  57.9799168  25.7275032  19.0843113
  72.0875471  46.4500808  12.8447922  72.1853273  47.4020730  12.8643330
  72.2540205  46.2108712  11.9330414  29.9624014  18.3602285  35.5201888
  30.3353190  18.3939660  34.6392655  29.0777135  18.7115061  35.4193830
  87.6806085  70.1583957  19.7325619  87.7912300  69.9857544  20.6675442
  87.8532761  69.3163275  19.3114479  67.5785780  34.6170402  71.6527176
  67.4725533  34.2782283  70.7637882  66.9472313  35.3340077  71.7126560
  57.7045059  17.2832549  68.4856367  58.5000515  17.5667536  68.0351210
  57.4793625  16.4497113  68.0724192  45.1881981  22.8472781  41.4991951
  45.1330614  21.9690323  41.1225271  44.3096876  23.2109046  41.3886023
  52.5112207   1.4825960  33.0460652  52.6952035   0.7074638  33.5766705
  53.1437166   1.4376446  32.3290165  42.1073084  57.9403828  31.5736683
  41.6847282  58.1429564  32.4083050  42.4972456  57.0763015  31.7061337
  37.6102948  16.3796830  56.7414808  36.9122171  17.0232749  56.8627548
  38.3675694  16.8966317  56.4666462  41.7629041  53.7898933   4.6366461
  41.9027319  53.5845672   5.5610474  42.2068395  54.6280538   4.5076569
  15.7977380  49.0391623   0.5382736  16.2365808  48.6629175   1.3012179
  15.0594988  48.4526645   0.3731831  58.4995270  47.6491594  60.0911951
  57.7187967  47.2432995  59.7144079  59.1775036  47.5267839  59.4266605
  39.9574828   2.5346178  50.6093597  39.0621424   2.4858510  50.9443474
  39.9522257   3.2894832  50.0208187  74.6341198  77.2135233  16.2088783
  74.4666880  77.9418372  16.8070133  75.5590408  77.3007058  15.9783276
  35.6831103  65.3442739  16.9802197  35.8394062  66.2450026  17.2639282
  36.1733394  64.8083137  17.6036366  33.7185318  73.3046910  48.5924196
  33.7026293  73.3440533  49.5486784  32.8210623  73.0798665  48.3470011
  84.3025177  49.3888782  19.3394764  83.7792890  49.6484666  18.5811432
  85.0564020  48.9327626  18.9655121  61.2586403  34.8011112  66.1948490
  60.6602430  34.7308207  65.4510641  60.7512760  34.4825053  66.9413805
  68.7540381  41.4154996  15.1363762  69.5959776  41.0774869  14.8312195
  68.4867924  42.0383276  14.4604309  38.1601191  29.3029356  31.5350246
  37.9292822  28.4039545  31.3009810  38.7316799  29.2126846  32.2975230
   9.8825986  78.9080489  63.5126543  10.8078224  78.7952852  63.7305450
   9.6752221  78.1592932  62.9535532  73.7145710   5.6297576  66.9947386
  73.6736059   6.5449816  67.2720861  72.8299618   5.2950525  67.1419811
  38.2777429   8.1298482  65.2916527  38.6030436   7.5447309  64.6075106
  37.6795244   7.5877523  65.8059454  17.0125951  45.0934081  19.8503025
  16.0840215  44.9817376  20.0540646  17.4612941  44.9284564  20.6795796
  12.5392253  12.8390165   5.0510080  13.0379112  13.6533542   5.1173504
  13.1439025  12.1623846   5.3555782  51.6186428  51.2403584  68.3393097
  51.6978025  50.3120995  68.1195354  51.3689613  51.2472725  69.2633438
   8.5374870  63.5258769   9.6414383   8.2856836  62.6580046   9.9570759
   9.4222583  63.4076451   9.2958458  62.3832243  65.3070663   4.1146763
  63.2765406  64.9848317   4.2346008  62.2378581  65.8922290   4.8580988
  63.6780078  73.7847283  33.3178020  63.4421186  74.1075960  34.1874838
  64.3839768  73.1585267  33.4781480  26.7447741  76.0329416  69.0678549
  26.2763483  76.6570041  68.5134602  27.4625475  76.5406224  69.4463921
  84.6609037  68.1490492  17.9188736  84.1995542  68.0514263  17.0858868
  85.0283163  67.2823285  18.0921753  57.9710293  28.2109284  52.1042156
  58.8227701  28.1149316  52.5303030  58.1553507  28.7140799  51.3110590
  71.1807251  25.7413030  32.1201468  71.5409327  25.0802422  32.7113152
  70.2592611  25.8095455  32.3701119  61.8769264  10.6322289  59.0609789
  61.0418510  10.8286345  58.6363506  62.2766781   9.9631822  58.5052729
  75.3523445  29.6232462  65.8269787  74.4977999  29.6297884  65.3957701
  75.5230904  28.6986160  66.0062456  64.8407071  60.7834636  12.3520287
  64.5950120  61.7040585  12.4435051  65.6442826  60.8005475  11.8322189
  74.6978872  66.3941191  10.4180153  73.7663095  66.5152906  10.2343948
  75.0191563  65.8653115   9.6876820  80.7164955  36.7395449  60.8563185
  81.6345882  36.9850016  60.9706497  80.4264736  36.4826107  61.7315912
  13.2079448  52.0144211  35.6707676  12.5943174  52.7480005  35.7101639
  13.4481516  51.9524835  34.7462662  26.0607655  72.1084312  67.2297144
  26.2661535  72.3197332  68.1404305  26.5508635  71.3052526  67.0538044
  24.0029771  11.5369316  24.6352490  23.6639364  10.7653232  24.1814812
  23.9211757  12.2454305  23.9968403  50.7770689  19.6893783   8.4216412
  51.1894662  20.4332062   7.9824551  51.5096624  19.1425653   8.7054356
  80.9300344  81.2937521  23.9330776  80.7987135  80.7086443  24.6791561
  81.8445747  81.1617469  23.6832340   8.0272903  57.2390531   6.1794527
   8.1133976  56.2857412   6.1832245   7.4077453  57.4263715   6.8846520
  29.4417596  14.1132355  60.9074354  29.9599957  13.3086610  60.8894682
  28.8422036  13.9955473  61.6442633  55.4674482  47.2357512  43.9537382
  56.2015581  46.6616631  43.7352467  55.6824255  47.5800848  44.8205996
  37.2312458  18.6013551  33.5669430  36.6833026  18.5796972  32.7823837
  36.8649490  17.9225250  34.1337307  39.4500995  19.3026090  35.1305246
  39.8047972  20.0116301  34.5941353  38.7107038  18.9661443  34.6242476
  63.5397959  67.6242876  48.3695555  64.3039465  67.0769024  48.1887817
  63.5851145  67.7957344  49.3101835  87.8126131  19.4700714  46.7407425
  87.3526679  20.1631399  47.2143849  88.5144673  19.9238964  46.2741860
  45.4498005  23.0507374  69.0427732  45.4763603  23.2687140  68.1111002
  46.3366985  23.2287264  69.3557739   8.6053362  57.6016306  26.3840016
   8.1949701  56.9044458  25.8723648   7.9398861  57.8517984  27.0249470
  51.8149567  54.7171688  67.6162052  51.4300919  54.3750381  68.4230900
  51.0948467  54.7101736  66.9856310  71.9736624  19.3017006  39.1060662
  72.3682213  19.5870340  39.9301648  71.7113733  18.3953583  39.2672563
  47.6605415  19.5825791  59.2167711  46.9704485  20.2310753  59.3562412
  47.2017670  18.7425208  59.2089939  67.4799538  31.9416046  53.6169243
  67.0473576  31.6678500  52.8081322  66.8054104  31.8549442  54.2905092
  21.8033685  40.3204811   3.4465702  20.8681001  40.4266002   3.6204823
  21.8503942  39.5950611   2.8238447   2.7144548  27.6342607  52.3743248
   2.3337385  28.0837798  51.6198540   2.0037004  27.5965214  53.0143595
   9.3271883   5.8444114   6.8728932   9.1087945   5.7116647   7.7953394
   8.4878786   6.0319563   6.4526375  67.6467228  13.8683271  30.7542992
  68.3724451  14.3318415  30.3363085  67.0203686  14.5565534  30.9784818
  53.3267260  21.5482426  61.0493803  52.9238653  20.8186865  60.5785465
  54.2599535  21.4765191  60.8489418  70.4571598  26.7434644   0.2010735
  69.9302738  26.5218853   0.9688814  70.4299896  25.9565686  -0.3432505
  12.8298702  76.0873126  24.6238430  13.6428394  76.3503598  25.0552567
  12.1779337  76.7131256  24.9393757   5.6822099  67.8065561  10.0173576
   6.3326254  68.4964966   9.8862942   4.9178257  68.1007575   9.5219811
  65.3650086  81.6584300  23.9206513  66.2516086  81.6572760  24.2814453
  65.1774376  80.7367157  23.7431915  47.0583766  57.5555824   0.8014019
  47.4007850  56.9204782   0.1724108  47.8373115  57.9215514   1.2204035
  83.1401461  59.6635424   3.8274391  83.2130497  59.1512059   3.0221851
  83.9164894  60.2234708   3.8261803  48.4610319  13.5958004  50.9365416
  47.8880644  13.5850489  51.7032433  48.6975527  12.6781797  50.8014107
  25.6826391  74.9353718  18.3540543  24.9206342  74.3722366  18.2182129
  25.5084982  75.3777241  19.1848572  64.4869184  39.4539547  71.2873268
  64.7748280  40.3664494  71.3136864  63.9844894  39.3379378  72.0937634
  70.4415512  34.9407172  55.6572962  70.1742363  34.1615653  55.1697588
  71.2114096  34.6609402  56.1525488  57.0342439  71.2890457  41.8961247
  57.1846407  70.3529762  42.0279797  57.8177684  71.7097234  42.2501763
  80.2037018  63.9963793  23.3497341  80.5400484  64.5652150  24.0422161
  79.6895140  64.5784687  22.7902611  17.4220123  64.1892003   6.3890513
  16.4732876  64.1409062   6.2714775  17.5496044  64.1254686   7.3355635
  29.9418831  42.7990961  64.8658657  29.3592000  42.0423937  64.8016882
  30.1079631  43.0512190  63.9575243  65.6171530  79.9411510  12.8434189
  64.9686115  80.6303119  12.9872330  65.2878397  79.1942595  13.3433636
  20.6815376  68.7273334   9.1920002  21.5885725  68.9559220   8.9888485
  20.2955045  69.5420336   9.5136841  24.5274551   6.5716787  34.8735626
  24.7470577   7.5030227  34.8490246  25.0459344   6.2223669  35.5984028
  15.1196327  66.1855768   4.1980131  16.0521164  66.0177587   4.0618332
  14.7285547  65.3153991   4.2759855  62.8390932  19.5013845  62.4532747
  63.6446953  19.3164647  61.9705296  62.1458673  19.1114652  61.9207001
  62.7533579  17.5521564  52.1364117  63.4168100  16.8730521  52.0144129
  63.0800676  18.0777383  52.8666544  65.9502125   3.1816870  53.0453920
  65.9466362   2.5009656  53.7183237  66.7656422   3.6606106  53.1935024
  77.5890541  24.6487355  51.2837648  76.6529942  24.7530079  51.4545202
  77.9887533  24.6149993  52.1528673  82.4640369   9.0799111  56.4396048
  81.5199661   9.0442556  56.5935183  82.5828362   8.6686110  55.5834818
  17.6904256   9.8429342   7.5316532  18.0522020   9.0018650   7.8108557
  18.4578378  10.3895994   7.3629292   6.0784133   6.4177700  21.1533077
   6.4588149   6.0458990  20.3575428   6.7848117   6.9382234  21.5358742
  37.2113617   2.8769346   5.4548128  37.3995693   1.9384666   5.4639013
  37.3338134   3.1545778   6.3626392  80.1015203  76.2185596   8.7276848
  79.4631641  75.9040903   9.3678768  79.8064344  77.1026396   8.5096081
  85.7164257  60.4604601   5.7539423  85.5118959  60.5516063   4.8233040
  86.2845199  59.6914564   5.8001240   4.0462389  52.5316297   6.7200144
   4.2134132  53.1336318   5.9948404   4.1070118  53.0779134   7.5036677
  32.3005414  17.5475276  69.6525812  32.9900050  18.0805409  70.0485229
  32.0230675  16.9564247  70.3524637  15.6229734  10.1729536  55.2460146
  15.7747054  10.2449012  56.1883688  15.7789230   9.2495090  55.0481224
  10.4996147  76.1489033   5.2629431   9.7781791  76.3588618   4.6699246
  10.7660665  75.2643799   5.0122316  15.2356899  22.5735021  56.9239712
  15.8284819  23.0863595  57.4733400  15.8120036  22.1166039  56.3113213
   2.1029796  62.3722338  29.2833717   1.6670599  62.7431845  28.5161694
   2.6882162  61.7040657  28.9266022  72.8432512  13.5915935  66.0495281
  73.1985378  12.8503239  65.5590963  72.9181385  13.3296633  66.9671392
  60.3811789  42.7728510  62.2987270  61.2974024  42.9688883  62.4945354
  60.3804207  41.8460846  62.0592785  13.1974401  73.9501857  13.3220394
  13.2338133  74.5158147  14.0933808  13.6389913  73.1456279  13.5939701
  81.5452021  80.8532881  38.2108410  81.9542234  81.6961240  38.0144508
  82.2775429  80.2765368  38.4282501  48.3199961  77.7087417  60.5606937
  48.5599215  78.3982554  59.9416304  48.2179291  76.9258550  60.0194883
  56.8387883  70.6854938   1.4410313  56.2790292  70.1428126   1.9963654
  57.3564308  70.0578879   0.9366615   8.0685742  68.8350299  50.7051802
   8.4566147  69.1643444  49.8944950   8.8006003  68.4378973  51.1770439
  40.5178738  11.9597816  44.0846586  39.5946074  12.1434951  44.2580509
  40.9102058  12.8207064  43.9393568   5.5141163  28.5595226  52.2711897
   5.1022536  29.0536284  52.9800367   4.8525482  27.9190111  52.0098400
  82.5307291  35.4127382   1.4788683  82.6325863  35.1201134   0.5732067
  81.8658750  34.8298692   1.8455656  84.5189779  38.5041146  24.2673691
  83.7013929  38.6910068  23.8060005  84.6910828  39.2943263  24.7793968
  59.9491119  16.1433613  71.4862204  60.0323486  16.1423492  72.4397945
  60.7900667  16.4761627  71.1727381   4.9220784  13.8042732  15.0802048
   5.3613479  14.3662973  15.7184799   4.5976026  13.0653711  15.5949505
  67.0844126  35.3610182  55.8522797  67.7009249  36.0878611  55.9408569
  66.9645786  35.0383949  56.7454720  86.5569036  67.4812793   3.8049753
  86.9433706  66.7507194   3.3221157  85.8342998  67.7783488   3.2519587
  57.0289772  72.6728891  17.8642758  56.5158217  71.9475411  17.5082214
  57.9197758  72.5113200  17.5534638  55.2774239  46.3890696  69.2885256
  55.0784445  47.3206902  69.3818808  56.1960506  46.3660383  69.0205240
  52.5304413  59.5947790  60.7561731  53.4366512  59.6101999  60.4483080
  52.5973749  59.3830729  61.6872644  59.6725767  72.5604628  17.2192772
  59.6946400  71.8975352  16.5291603  60.0095551  72.1108054  17.9941948
  28.0102052  81.6121005  11.4298161  28.2087602  80.9051322  12.0438297
  28.0717840  81.2037133  10.5663021  47.8701401  35.5103588  64.7033262
  48.4662914  36.2027383  64.4179392  47.5556326  35.8026552  65.5588245
  73.3307855  81.7779635  41.3771637  73.9123361  81.0559295  41.6152676
  73.5467785  81.9684171  40.4643067  77.7594566  14.8700452  56.4351559
  77.1904850  14.3826032  55.8394194  77.1623802  15.4275239  56.9341040
   2.0825250  34.5679947  14.1293057   1.1559970  34.5680423  13.8889321
   2.4002082  33.7066503  13.8583859   7.9480209  73.0740188   5.5416115
   7.4876251  73.5245465   4.8335941   7.3578062  72.3655366   5.7983883
  16.3252456   0.8679767  27.5495251  16.6561039   0.0837227  27.9873665
  15.9012706   1.3700195  28.2455261  50.6175852  39.0176249  52.1081638
  50.9099007  38.1821036  52.4724245  49.9757051  39.3426847  52.7394772
  59.7136402  21.1472082  65.3339100  59.3073988  20.3747535  64.9408245
  60.4618979  21.3382792  64.7683716  18.0307205  10.8811088  27.9071434
  17.8254087  11.8144317  27.8524693  18.5008056  10.7874103  28.7356766
  57.0619106  70.0513697  65.6944466  56.8002653  70.6405544  64.9868917
  57.9436493  70.3386307  65.9316111  42.8300386  65.4883670   5.9124334
  42.0083671  65.0750874   5.6473120  43.5091286  64.9695133   5.4813154
  18.1780059   3.4678455   5.4350098  18.0280359   3.2771917   6.3609656
  19.1030080   3.2650228   5.2954729  57.5159168   6.5429211  48.7010479
  58.3143377   6.9084060  48.3200216  56.9979143   6.2611747  47.9470444
  75.5072021  12.3055089  58.1963444  76.1244869  11.5798903  58.1032228
  75.9049511  12.8753495  58.8546085  12.3550224  21.0663199  63.1874561
  11.7719054  21.7250419  62.8102398  11.9059062  20.7751441  63.9810181
   0.2029695  66.0147880  26.3285168   0.7049503  65.4349660  25.7557495
  -0.6270180  65.5576657  26.4641197  60.1874363  18.0203481  28.7987812
  59.3025561  17.6590486  28.8505657  60.3243230  18.4412857  29.6474846
  73.5499334  30.9542727  51.7856169  72.7738667  30.8970022  52.3429966
  73.6802149  31.8931270  51.6521597  10.6904258  65.3129958  18.1608112
   9.8562660  65.7572984  18.0091580  10.6745186  64.5638298  17.5652226
  78.0627251  34.5641828  65.7952785  78.1314373  34.0814400  66.6189718
  77.1479464  34.4612718  65.5329418  82.1032589  74.7375010   4.5766123
  82.4062603  74.6003197   5.4741676  82.4684160  75.5865740   4.3276795
  61.8978977  26.9104981  61.6376495  61.7277861  26.5065002  62.4885750
  61.5605688  26.2799191  61.0014009  21.2340727  46.1699348  12.7687176
  20.4695739  46.5423723  13.2081135  20.9014120  45.8692156  11.9230660
  18.6382396   9.4593187  16.7296322  18.9202602   8.7437578  17.2994240
  19.3138607  10.1292654  16.8342121   7.3961773  56.4340304  10.4915341
   8.1450071  56.0768591  10.9689434   7.1123876  57.1824919  11.0164173
  61.9146729  50.5783272  46.7392349  62.2194958  50.8622837  47.6010227
  60.9607697  50.5602360  46.8165731  46.3578129   1.2099145  65.5934238
  46.1676931   2.1477541  65.6167412  46.6494703   1.0468845  64.6964359
  10.5263843  61.7848419  14.4712074  10.5675115  62.3101758  13.6721047
  10.8114137  60.9124647  14.1992672  22.6390417   9.3255850  27.2115524
  22.6523216   8.4000011  26.9679363  21.7602928   9.6227880  26.9755276
   7.3817434  79.1009926  35.8745964   8.0001630  79.3543624  35.1893337
   7.1120491  78.2136534  35.6376846  61.3756752  51.1568737  68.9878321
  61.3199949  50.5245399  68.2713938  61.8833590  50.7084608  69.6641541
   9.0383680  11.0072704   7.4145659   9.0742619  10.5334373   6.5836437
   9.4874270  11.8340393   7.2384079  53.9471388  39.4639778  63.6575794
  53.5827208  40.3039694  63.9365864  54.2481041  39.6190047  62.7622461
  74.7554705  82.3637167  46.0912991  73.9853273  82.1340138  45.5713511
  74.6090482  83.2745094  46.3467360   0.4224689  24.0941044   1.0771330
   0.4208858  24.2879291   0.1397665  -0.4886644  23.8815113   1.2792929
  79.2802971  75.4699420   1.0343559  78.9433544  74.8103236   0.4280527
  78.7308853  75.3822182   1.8132504   1.5972604  28.3293461   7.0128353
   0.8754625  27.7360271   7.2207125   1.1918153  29.0300452   6.5020855
  56.0239952  56.9936739  21.4355190  55.1545971  57.3917936  21.3921269
  56.5152185  57.4135731  20.7293900  55.1871484  71.0995244  24.7898682
  55.9282868  71.3161944  25.3555592  55.2632969  71.7054056  24.0527542
  14.8042574  47.9624288   6.1486633  15.3926792  47.8234868   6.8907459
  14.8435058  48.9047210   5.9850271  14.9400742  39.6761182  69.2566872
  15.7192309  40.0996116  68.8964128  14.2523558  39.8543218  68.6151886
  44.0024652  81.3599561   7.6503285  44.8682012  81.6677951   7.3820599
  43.4094228  82.0707225   7.4067171   1.2490995  34.3159576  17.6832779
   0.5959089  34.6284624  17.0572479   1.7541893  33.6641975  17.1971424
  55.7831853  79.1862415   6.4830216  55.3442686  78.3446788   6.6069420
  56.7150753  78.9853524   6.5693815  65.2989388  22.4297833  59.7751093
  64.6436548  23.1076193  59.9405718  65.5126619  22.0863986  60.6426573
  57.9109621  49.7928238  66.7290163  57.9809237  49.3333721  65.8922052
  58.0603504  50.7126760  66.5104294  39.2923903  32.9177451  61.3261080
  40.1676559  32.7633619  60.9707069  38.7727594  32.1773148  61.0130930
  44.0098810  33.7667990  62.9642153  44.5977545  33.1572104  63.4103489
  43.2840300  33.8905144  63.5758257  36.9378543   3.0098253  56.5812254
  36.0479546   2.6688364  56.6708708  37.3688531   2.7732748  57.4025154
   3.1111488  44.3144894  63.8532352   3.2297513  45.2451277  63.6632967
   3.9049155  43.8983679  63.5170603  15.3495397   1.5539548  69.5942783
  15.3740587   2.3905751  70.0587034  16.0153379   1.6392228  68.9118767
  56.1665392  30.1688719  59.7984123  55.5598831  30.6616163  59.2457819
  56.7540073  30.8324528  60.1600409  26.5237600  72.6167670  63.2003164
  27.4464543  72.8038254  63.3731508  26.4145739  72.7931312  62.2658634
  49.5258474  36.2657857  70.0811195  49.8138332  36.8526816  70.7802963
  48.6869001  35.9216404  70.3876495   2.2824039  81.9166325   3.7106712
   2.6205911  81.2160085   3.1530054   1.5805568  81.5042566   4.2142494
  43.1166220  80.4191210  10.3654583  43.3885336  81.0300018  11.0503872
  43.2999468  80.8800651   9.5468338  54.5253468  12.8596210  61.8575191
  53.7051392  12.8716826  61.3642216  54.9159288  12.0102251  61.6520786
  28.3829331  20.3643274  61.3820267  29.3281960  20.2346873  61.3051701
  28.1248617  20.7479501  60.5438995   1.3906786  40.0590420  21.9422936
   0.4495355  40.0944424  22.1133041   1.5681097  39.1344190  21.7696047
  71.8974113  13.4807372  38.0300188  71.0691118  13.6190033  37.5706434
  72.4626160  13.0587351  37.3829556  49.2758274  25.0554180  58.3114147
  50.0268316  25.3344965  57.7876472  48.9389229  24.2843175  57.8552008
  47.9018497  15.9980428  69.2595768  48.0118942  16.7524290  68.6807632
  47.7539921  16.3796270  70.1248837  79.0269838   4.7343298  17.5070770
  79.4192658   5.6068702  17.5390823  78.1729041   4.8401924  17.9260834
  31.3115120  17.7124298  28.5757756  31.8393159  18.1079805  27.8820944
  30.4188466  18.0068493  28.3949542  50.4351568  37.1555471  67.0300913
  51.1879301  37.7413607  67.1100140  50.2199125  36.9177413  67.9319525
  13.8529921  33.5731196  66.5051365  13.4906173  34.3097138  66.9974232
  14.7635293  33.8190079  66.3417625   1.4487686  77.6650142  35.6563481
   2.3386898  77.8639196  35.3653057   1.5471496  77.4175094  36.5757473
  21.2135305  72.6229690  18.0678280  20.8923378  73.1476806  18.8011368
  21.3250723  71.7449354  18.4323128  81.8561554   3.0373034  61.1769819
  80.9875679   2.6975697  61.3923120  82.2767925   3.1746703  62.0257616
  53.6686707  33.0181098  60.2450943  53.3958721  32.2800827  59.6999979
  52.9860735  33.6765695  60.1157808  27.7855682  23.0305243  69.4313097
  27.0245838  23.5336018  69.1413975  28.3645558  23.0114961  68.6693096
  82.5057333  79.4582390   5.1668986  82.7154844  79.6388363   6.0832079
  82.6177137  78.5118150   5.0775965  58.2029104  32.0513654  52.3778439
  58.2637978  31.3726926  51.7055845  57.4795961  31.7695522  52.9378653
  28.1490888  59.1911041  21.6939648  27.8124418  60.0860642  21.6498097
  27.9627218  58.9090191  22.5894745  49.3751383  34.6084404  58.3747959
  48.8080788  34.2558002  57.6889992  48.8140249  34.6555066  59.1488552
  36.1373956   2.3892875  22.4819477  36.4434822   1.5402790  22.1630009
  35.3877838   2.1797605  23.0391033  24.5738649  40.0586843  51.7603588
  24.4971371  40.9995365  51.9189119  25.0240517  39.7212267  52.5347519
  22.6494016  68.0131959   1.7747315  23.5599126  68.2769893   1.6420038
  22.5906744  67.1455644   1.3747318  51.8558884  39.5897937  59.6983814
  51.5461874  38.8137317  60.1653337  52.5489426  39.2633343  59.1245079
  54.5543098  11.8417752  47.2110367  53.8323450  11.6418540  47.8068829
  54.3055391  11.4262033  46.3854170  62.2697609  61.9555997  20.1692207
  62.8919785  62.2601270  19.5086582  62.1090787  61.0395883  19.9426373
   9.8071613  81.0020851   0.8928354   9.2427864  80.8275198   1.6459902
   9.3345775  80.6302069   0.1481159  20.5340815  14.8338366  50.8074522
  20.3363371  15.6457436  51.2742901  20.6701660  14.1866934  51.4994907
  58.9796782  18.1354225  54.0000868  58.4341097  17.5955236  54.5720100
  59.3645096  17.5152063  53.3808374  69.0550321  58.6003493   5.2915390
  69.2411631  57.8906761   5.9063156  69.8319309  59.1583477   5.3275355
  52.9604667  73.3912181   1.4221533  53.7796491  73.1176304   1.8348511
  52.8248399  72.7587580   0.7165774  59.7345209  66.8244410  68.9892817
  58.7914419  66.7432785  69.1315842  59.8247957  67.5783730  68.4064722
  87.9009247   0.4058053  58.7050629  88.7538147   0.2000323  59.0877914
  87.2882843   0.3436955  59.4378901  25.6801493  82.3947994  47.6234531
  25.8045227  82.5309612  48.5627222  25.4274399  83.2549905  47.2881317
  12.6906862  60.1429640  21.3752468  13.2046833  59.3911420  21.6698750
  13.3423032  60.8149337  21.1750420   5.3932578  82.1067008  50.0583172
   5.5426104  82.6321815  49.2723179   5.0679333  82.7318163  50.7061052
  51.9738548  59.0377842  15.7868012  52.8205626  58.8903569  16.2082012
  52.0439642  58.5882734  14.9446209  32.1799994  23.6797404  56.5158844
  32.2375393  23.6650586  55.5605268  31.8485403  22.8126097  56.7492199
  50.6452179  21.2312222  65.1802063  51.4972496  21.3941741  65.5848265
  50.8504486  21.0016513  64.2738867   0.7518966  21.7432638  38.0825813
  -0.0210755  21.7389484  37.5180252   0.4317362  21.4323946  38.9293965
  25.2370334  34.2424679  62.4972391  24.6000457  33.5280943  62.4850559
  25.8643222  33.9924836  63.1756544  52.5087493  82.9012679  16.2693604
  53.3920758  82.7051162  16.5815933  52.4370258  82.4277924  15.4405697
  27.9188085  11.2911892  56.1398220  28.3635783  10.5428815  56.5378714
  28.0486441  12.0061564  56.7628765  45.0744360  77.5985669  14.0426548
  44.2352503  77.5602554  14.5014866  45.7216590  77.7218150  14.7370155
  82.8752232  24.7716570  54.3822622  82.0023823  25.1454425  54.5033598
  83.2078552  24.6470785  55.2711201  43.7993288  24.9920249  51.3125849
  43.1863070  25.3693080  50.6816387  44.0914631  25.7371354  51.8376541
  20.5942096  54.2259668  12.4768456  20.7357301  54.5710980  13.3583744
  20.6001081  54.9994456  11.9130047  71.3261097  56.3291107  27.6218327
  70.3927629  56.4822029  27.4746712  71.6185825  57.0928298  28.1192501
  73.9591466  23.6746832   9.1836365  74.0128003  22.7296158   9.3257721
  73.9614557  24.0498443  10.0642498  47.2265118  70.3759574  22.5474747
  47.0879882  69.6858929  23.1962021  46.4045029  70.4134821  22.0584686
  64.4090414  20.0412726  42.3273373  64.5898294  19.3777740  42.9931545
  64.6562815  20.8686328  42.7403498  62.7514935   8.2730210  35.8222723
  63.0878496   8.2859379  36.7183352  62.0218372   8.8925016  35.8313799
  85.6326788  82.3849295   9.1848763  86.1026972  82.9115533   9.8313912
  84.9270933  82.9548501   8.8789948  49.3588924  20.0413346  61.9460440
  50.3044891  19.9629116  62.0722389  49.2356968  19.9577343  61.0004950
  86.9548665  11.0584684  10.0728233  86.5599094  10.6973549  10.8664425
  86.2619744  11.5900846   9.6810158  52.0588732  56.0734224  46.6745567
  52.6425552  56.7970181  46.4466143  52.0450783  56.0692072  47.6316452
  31.0302114  18.8757813  33.1469345  31.5278983  18.1676590  32.7381539
  30.5351400  19.2670751  32.4271941  54.3151586  59.1285931  17.1183880
  54.7645181  59.7480308  16.5434082  54.0423196  59.6543525  17.8703030
  64.1068428  40.0834759   1.9578608  63.4369319  40.4788851   2.5156267
  63.6187213  39.5096286   1.3673790  19.2025096  13.7036892  18.5431965
  20.0954206  13.3588596  18.5375126  19.3012531  14.6199795  18.8018330
  21.1511411  74.7621917  20.0499638  21.2161102  75.4222249  20.7401570
  20.5037107  75.1161622  19.4402321  43.6476707  21.9699788  62.8289700
  44.4867468  22.4226809  62.7438545  43.0747318  22.4070239  62.1989155
  54.4142836  61.8935465  40.4576405  54.3476575  61.4650165  39.6043213
  53.5074346  62.0678304  40.7095917  47.5381511  69.3303179  31.9591816
  47.7821939  69.8539804  31.1959942  47.9703122  69.7637080  32.6951416
  72.4879169  38.1108451  39.5064545  72.9183578  38.2983494  40.3406000
  73.0802774  38.4691119  38.8454032  34.8229575  22.5242233  55.9167814
  33.9715147  22.9610419  55.8952618  35.4560661  23.2374620  55.9986115
  49.7055340  24.5793653  47.1708965  49.7255945  23.7000918  46.7931271
  50.3482485  25.0734353  46.6619301  56.8809891  35.4540610  68.9629793
  56.3295364  35.2268291  68.2143164  56.2716913  35.8090186  69.6102715
  13.8911874  10.0411125  11.7459877  14.4954641  10.3068014  11.0528191
  13.0249269  10.2703520  11.4094265  75.3629971  44.4172716  70.4351139
  74.9566889  45.1560783  70.8882332  75.3917789  43.7205935  71.0908890
  70.4250526  63.9123487  53.8812447  70.5516291  63.7448502  54.8151398
  70.2544451  63.0492878  53.5040855  84.0860367  44.2177486  62.6282501
  84.4422340  44.8552370  63.2470942  84.4793892  43.3850336  62.8891802
  67.8660410  54.3742691  15.7824810  68.6038010  54.8220025  16.1965759
  68.1497066  54.2296921  14.8797806  72.8459883  66.3047409  66.8801928
  72.0612097  66.2754774  67.4274540  72.5119638  66.3790655  65.9862471
  34.8521223  51.0368638   5.0523766  35.6164922  51.6111456   5.0988920
  34.7233858  50.8848314   4.1161354   0.5055769  22.3876568  19.9786194
   0.3075082  23.0408426  20.6497009  -0.0377099  22.6392313  19.2317780
  86.8139362  19.5238936  55.8056593  87.4931908  18.9698946  55.4210424
  86.3248062  18.9373827  56.3827181  27.9697616  35.5515762  42.5022514
  27.1880777  36.0524603  42.7353008  28.3716304  35.3301521  43.3423145
  79.1545391  42.4711323  62.3679733  79.0837049  43.3968782  62.1351337
  78.5045147  42.0351553  61.8169498  33.3447082  14.9209114  35.6974991
  32.4851615  15.3246065  35.5773361  33.4593160  14.8796364  36.6469200
   2.9394038   3.4298607  18.2575997   2.4812777   3.8497062  18.9856632
   3.3235390   2.6406761  18.6395176  57.0878315  26.5786695  62.2329950
  57.9570723  26.7813516  61.8871975  56.9239283  27.2610521  62.8839350
  57.1967595  10.7369229  71.4557028  57.1456068  10.6496808  72.4075460
  56.6158121  11.4695451  71.2507725  56.3155890  58.4293318  54.2384100
  55.6708670  57.7245140  54.1767788  56.1347198  58.8464022  55.0807667
  82.2176266  48.0144119  29.4037962  82.0036030  47.1136045  29.1609550
  83.1664562  48.0094624  29.5299816  42.6549060  35.2413364  15.9016140
  43.2264383  34.4788261  15.9919747  41.9448431  34.9424501  15.3335293
  35.5202951  76.4055299  17.9519184  34.9344148  76.1520814  18.6651810
  35.3359975  77.3338794  17.8089817  37.0277650   6.2941404  34.0557106
  36.9840152   6.5825983  34.9673660  37.4445541   5.4334160  34.0965756
  76.9074392  35.1085782  47.7614307  77.7847672  35.0165057  47.3898792
  76.7553329  34.2842507  48.2235765  60.3635311  17.8631842  32.5079751
  60.3806925  16.9069862  32.5482559  59.7685099  18.1219125  33.2117081
  15.3731782  38.6679884   6.9284590  15.4193790  38.3525415   7.8310116
  14.4766529  38.4762235   6.6533239  63.8873189  66.1484669  15.9718044
  64.4930213  65.4092215  16.0254200  64.2458265  66.7963361  16.5784081
   0.2422078  30.1191469   5.3759964  -0.6411688  30.2548214   5.0332554
   0.7739551  29.9353071   4.6016081  55.9103441  60.1587486  65.2956152
  56.1379576  60.0901747  64.3684006  56.5563345  60.7659197  65.6565428
  29.5941455   7.9095789   5.2616175  30.0610740   7.3857637   4.6105965
  30.1516302   7.8779407   6.0390719  67.2303486  55.3935385  64.7218943
  68.0207300  55.1020527  64.2673922  66.8618822  54.5942354  65.0981617
  82.1606350  70.1188707  51.9887447  82.1194077  69.4142151  51.3422203
  82.2707748  69.6691370  52.8264999  67.2379582  82.3685263  14.1839893
  66.7012613  81.7591380  13.6771973  68.0468839  81.8873833  14.3582543
   7.7736559  35.4656457   6.6243799   6.9946851  35.9393017   6.3326843
   8.3352079  35.4283111   5.8501061  23.6917009  67.2117399  24.9575909
  23.9084711  67.2408937  24.0257176  22.9367723  67.7935194  25.0462063
   8.3454981  80.4681371  13.0017765   8.0377569  79.5750951  13.1567104
   8.9386120  80.3908252  12.2544678  -0.0657728  78.9856148  40.5628395
   0.4409334  78.2750463  40.9559822   0.5567953  79.7083569  40.4835653
  32.1254642   1.5306278   3.3255346  31.9020612   0.6024261   3.3945568
  31.9845541   1.7429252   2.4028690  76.1990373  73.4618400  10.4422672
  75.4335754  73.2876467   9.8945816  75.9473722  73.1503509  11.3116749
  63.5497665  36.9063830  43.8463974  63.0768013  37.7357864  43.7783766
  63.7686729  36.8309665  44.7751713  20.6517465  16.1986490   0.9900911
  20.5664594  16.3888164   0.0558527  20.5695398  15.2468248   1.0492476
   7.0206220   7.2267099  15.9942444   6.6742976   7.9019352  16.5776451
   6.2458594   6.7582985  15.6834896  22.8023138  77.6819705  13.8239964
  22.5080766  77.1105956  13.1146343  21.9964494  77.9500197  14.2655380
  65.4895323  76.6570185  19.3911179  65.1006549  76.8634795  18.5411938
  64.9590676  77.1438836  20.0218399  56.4593840  48.8605642  46.2426949
  55.8451271  49.3159533  46.8184900  56.6324425  49.4832850  45.5366468
  47.3938234  27.3839136  11.6923912  46.8335302  26.6964765  11.3321980
  47.4697597  28.0255600  10.9861668  50.0963157  59.8826789  25.5296524
  49.2590683  59.4265651  25.6145676  50.7376235  59.1839980  25.4000385
  33.9849575  11.1695286  23.6527260  34.3297107  10.5679794  24.3126591
  34.6685417  11.2085911  22.9838284  77.7817987  14.8481460   9.8605354
  78.0912660  14.5995517  10.7315453  77.2097085  15.5998417  10.0151261
  58.1684749  77.6950430  15.8144673  57.9519098  76.7981766  16.0693463
  57.5935190  77.8783487  15.0714596  24.3999202   6.4849897   0.0247677
  25.3493459   6.5697475   0.1121433  24.0542800   6.7852207   0.8653792
  65.6163502  48.6844254  54.3407679  65.9048796  47.7750158  54.4179487
  66.1865711  49.0605307  53.6702251   5.2935066  69.7623037  12.5709828
   4.7699537  69.7174596  11.7709168   5.2321329  70.6769584  12.8464325
  67.4161577  24.6674943  52.3692036  66.4825678  24.7738338  52.5517797
  67.4455833  24.1377091  51.5725279  74.1851304  32.2324796  14.5385082
  73.9308737  31.7527195  13.7502106  74.6425019  31.5854927  15.0755795
  52.8146172  23.4004784  52.2483921  52.0444107  23.2619786  52.7996063
  52.7775669  22.6943135  51.6032648  73.9630182  34.5517679  35.3731735
  73.9103754  34.6394392  36.3249024  74.3835599  33.7032791  35.2337082
  26.0570884  41.2667847  57.4865961  25.2174497  41.2040758  57.9419088
  26.7075658  41.3044834  58.1878042  43.3979195  73.9364504  12.3589619
  43.5821610  74.4232630  13.1622704  43.8030451  74.4569014  11.6652496
  48.9097500  27.5049853  52.0992041  49.2347956  26.8090343  51.5280390
  48.0452347  27.7186751  51.7482281  30.0031478  16.4497562   6.7308195
  29.6793754  17.2407623   6.2998732  30.0852020  16.6955276   7.6522835
  12.0244129  30.8904644   9.9125298  11.4461429  30.1468178   9.7427281
  11.7368419  31.2287517  10.7605179  55.3847027  53.0486536  36.9523287
  54.9558258  53.7309980  37.4687624  55.9569645  53.5266352  36.3520956
  25.4340669  52.7145147  59.0671825  24.6383879  52.3654795  58.6655664
  25.9671232  53.0068731  58.3278513  80.9904099  37.1944547  44.1643047
  81.2071896  37.2109151  45.0964880  81.0470390  38.1094718  43.8890362
  51.6544676  44.8577166  68.7801695  51.8230629  43.9196873  68.6912155
  51.9616747  45.0738478  69.6605921  48.8731527  63.8139057  49.3808603
  48.1501627  63.3020544  49.0181875  48.8079119  63.6836433  50.3269053
  76.1051321  43.9669991  65.8232450  76.3181448  43.6152601  64.9588728
  75.1771069  44.1947031  65.7671165  32.2021665  80.9874557   2.0340355
  31.4314356  80.7783364   2.5617369  32.1645345  80.3729461   1.3010986
  26.8193157   0.6395241  62.8204926  26.9871576   0.8868643  63.7298210
  26.8090971   1.4698644  62.3444088  29.7194488   6.6665788  30.9580238
  28.9827020   6.1328693  31.2556656  30.4912813   6.2350603  31.3244827
  26.7748356  27.2521329  16.4202178  26.6850400  27.9377174  15.7582927
  26.1525798  27.4973583  17.1049762  55.4806757  35.4896235  64.4572783
  56.1961603  34.9280620  64.7555494  55.6116533  35.5626225  63.5118961
  40.8085520  79.2943323  37.8619051  40.5931027  79.7663757  38.6662602
  41.4810307  79.8308250  37.4421620  64.5403624  34.6957874  55.6332827
  65.4564953  34.9090505  55.4559517  64.1046095  35.5456638  55.6970263
   4.0814867  76.3468837  22.8050335   4.5575657  76.7531370  23.5292824
   4.1921463  76.9553422  22.0744427  73.7328386  67.0159483  35.8325696
  73.2928514  66.1952734  35.6109047  74.4180918  66.7610502  36.4503765
  77.0357752   9.3021262  45.4600906  76.7251968   9.6891898  44.6415806
  76.2960005   8.7829268  45.7753658  38.4335191  19.8818918   8.8402661
  37.9854305  20.7276626   8.8293751  37.8677614  19.3044849   8.3276756
   2.5656547  54.8007010  28.2950028   2.1138992  54.1080664  27.8129204
   3.4487285  54.4586943  28.4344299  12.6379759  52.7613810  24.3719435
  12.3855526  51.8782261  24.1025901  12.2911389  53.3298209  23.6843300
  60.7047136   7.5720592  18.8346871  60.1174505   8.0719658  19.4016560
  61.4040048   7.2747560  19.4167812  68.0507755  52.0471525  54.5297527
  67.3533726  51.8679953  55.1604366  68.8262510  52.2043753  55.0684118
  12.4483337  41.2123548   0.1161154  12.1052303  42.0110330  -0.2846662
  11.6846933  40.7997541   0.5196579  44.1131265  13.7598654  26.8357762
  44.9387271  13.6238333  26.3708981  43.7355812  12.8838249  26.9147785
  33.2398708  18.8884683   4.9200447  32.8063734  18.0999943   4.5935162
  32.8471954  19.6028705   4.4183834   2.4693796  20.3690004  50.3151846
   2.6128694  20.8446860  49.4970369   1.9049951  20.9447265  50.8311605
  47.9563808  31.9234419  71.4746523  48.3285570  31.8628120  70.5948544
  48.1415224  31.0726070  71.8721914  76.8383694  35.9918427  70.1750612
  77.5174332  35.3173351  70.1867723  77.2060108  36.6925097  69.6364164
  57.4012280  45.2702951  71.3843060  56.8770838  44.7802353  72.0178223
  56.9794273  46.1282539  71.3371181  46.2486696  20.9774590  51.6621256
  45.5533218  21.2714791  51.0736704  47.0478773  21.0412669  51.1392260
  57.8841114  28.8185048  71.3228273  57.4739027  29.3377280  70.6311846
  57.1960926  28.2194471  71.6126442  67.1432781  21.3897491  58.3470821
  66.4110470  21.8152094  58.7932301  67.0758581  21.6865253  57.4395514
  21.8858790  40.7913876  53.4683943  22.3313284  40.6555080  54.3046618
  22.2166920  40.0922871  52.9044390  37.8145303  56.5463077  12.9836853
  37.1813574  56.4160143  12.2777374  38.6348047  56.1947273  12.6376160
  57.3931980  22.0925474  63.0333757  58.0494976  22.1237016  63.7294579
  56.8629742  21.3224459  63.2384062  44.2625475  16.2733054  64.4750214
  44.5404387  17.1619558  64.2529631  43.3126736  16.2829149  64.3572092
  32.5321538   1.7926927  18.6254318  32.2255523   1.1948534  19.3072041
  33.2312686   2.2949644  19.0439995  62.4492741  35.9603858  57.6930618
  63.2256222  35.4038763  57.7547693  61.8432474  35.5986166  58.3396626
  49.8815060  58.9534569  63.2977724  49.7772408  59.8884392  63.1212425
  49.1356850  58.5425377  62.8605843  32.0174177  14.9169965  25.8654984
  31.6925819  15.6960483  26.3169296  32.7748067  14.6397968  26.3810070
  45.1961811  13.1554647   7.1510227  45.2665908  13.0212017   8.0961426
  44.8685463  12.3214622   6.8143757  48.4523344  58.7854242  67.8037262
  47.6457167  58.2706404  67.7792168  49.0349436  58.3474255  67.1832800
  59.0998697  70.6047297  70.2207136  59.5810270  70.1978540  69.5001745
  59.6179390  70.4016018  70.9995413  51.4149952  55.4971790  52.8665447
  51.6249514  56.4281082  52.7922535  51.9147873  55.1988316  53.6264277
  58.6702442  46.7735767  51.2711620  59.4923830  46.7330599  51.7597103
  58.0783653  46.1931992  51.7497778  76.5134811  59.7882032  65.9165955
  77.1606779  60.0266123  65.2528715  76.7943621  60.2550745  66.7035961
  83.2846260  47.1683741  57.8207207  83.5015392  46.2361431  57.8094625
  83.5992813  47.4976826  56.9788265  37.3369606  24.1773935   9.3088062
  36.7499025  24.7251125   9.8299606  36.8171270  23.4016081   9.0986546
  65.9491301  39.4109058  61.4491081  65.8666277  39.5132518  60.5009794
  65.0762892  39.6092677  61.7882729  10.0561769   1.5400310  19.1918858
   9.1620810   1.7799278  18.9484223  10.0859196   0.5890318  19.0872582
  18.9060743  27.5874134  30.3773316  19.3147905  26.8694397  30.8607491
  19.0055616  27.3437210  29.4570358  78.5134363  69.6987677  43.3102179
  78.1178665  69.2611170  42.5564146  78.0335569  70.5233812  43.3874178
  61.3734865  24.1225886  49.3416309  60.5629778  24.6297455  49.3874741
  61.1699295  23.3987713  48.7492752  38.2317724  75.5939077  30.0827988
  38.9204111  74.9540399  30.2632816  37.4157705  75.1126121  30.2196606
  67.4317026  74.3885994  61.5031528  66.8374348  73.7669134  61.0829449
  67.1358919  75.2463198  61.1981106  35.4409654  18.3755680   3.5428246
  34.7636087  18.7564178   4.1017302  36.0789211  19.0795656   3.4260758
  12.8816816  51.9869280  70.1034307  13.2230875  51.9617701  70.9973240
  13.6042425  51.6690683  69.5620394  64.9687862  33.7122035  46.1960459
  65.7810783  33.3047843  45.8953524  65.2324772  34.5845222  46.4888906
  13.7870176   9.4869323  18.2312019  13.2534082   8.7295671  18.4717949
  14.6884210   9.2025514  18.3823116  63.1362247  68.5715008  61.3498974
  63.1452751  69.2748499  60.7007027  62.5864315  67.8921843  60.9594011
  62.8461552  70.4230070  59.3115616  63.7755680  70.6041479  59.1715145
  62.3946905  70.9912586  58.6874628  31.9332781  48.5964977  32.1288021
  32.3558607  47.7385627  32.1688660  31.7796793  48.8307987  33.0440910
  71.1076355  27.9421544  66.2385798  70.4302216  27.7654791  65.5857944
  70.7110262  28.5839844  66.8276358  26.1070242  61.6381382  22.5052841
  26.8542661  62.0988439  22.8868778  26.2214842  61.7376827  21.5601833
  12.9189529  81.2081360  12.3130806  12.8735342  80.2661012  12.1495636
  13.6840477  81.3165616  12.8779801  46.2967300  11.5007520  55.4344797
  47.1539688  11.6605449  55.8292532  45.7049179  12.0921910  55.8994436
  44.4185781  75.3526258  53.5849428  43.8871717  75.7888794  52.9189682
  44.2849874  74.4185734  53.4239244   2.1369655   8.3269497  18.8866337
   2.1285851   9.2748543  19.0194424   1.4532430   8.1702991  18.2353123
  45.7556152  35.6102800  61.9479227  44.8606014  35.2712536  61.9324160
  45.8663797  35.9535408  62.8345680  37.6780786  63.0454873  19.8511036
  38.3628454  63.5596346  19.4233425  36.8779649  63.5534095  19.7167118
  43.3553553  12.5304341  62.8098345  43.2307911  12.4060929  61.8689585
  42.4779701  12.7144742  63.1453371  25.1229593  21.9482088  45.7343626
  25.2692053  21.0221863  45.9275579  25.2802488  22.0242810  44.7932434
  13.5968246  80.1597618  16.2074478  12.9528274  80.2505683  16.9097622
  13.1000795  79.8015164  15.4718311  75.8724325  82.1883820  30.1978119
  75.2701824  82.4366998  30.8991440  76.6623800  82.7016162  30.3675564
  35.7976635   8.0597158  20.9124287  36.5211399   7.5805374  20.5084522
  36.0120447   8.0754610  21.8451794  21.2472238   1.8916223  44.6946669
  21.2719907   2.6984593  45.2090931  22.0956983   1.8633363  44.2525005
   7.5321395  74.1351607  23.1200314   7.7227027  74.0403309  24.0532660
   6.5889222  74.2939410  23.0831051  59.3032074  55.9501600  71.0966206
  60.1259995  56.3674593  71.3517761  59.5086384  55.0158453  71.0636950
  77.8943317  64.4036077   5.3501089  77.1013992  64.0832948   4.9201210
  78.5706442  63.7713193   5.1071222  72.4064779  12.8973925  53.7602377
  72.4260855  12.4155593  54.5870924  72.1155882  13.7766290  54.0022230
  74.3975830  55.5047369  66.8373728  74.6507978  56.2098598  67.4331236
  74.1938257  55.9484005  66.0140371  66.2473583  27.3665023  69.4604683
  65.8115625  26.7328191  68.8905907  66.8826818  27.8022528  68.8923883
  66.9662207  67.4590420  27.0041474  66.5774005  66.5845321  26.9873150
  66.9084351  67.7643274  26.0987766  76.3779163  48.3481836  58.4494495
  77.0643234  48.8081312  57.9662037  76.4266491  48.7076759  59.3352413
  73.4388256  75.5854940  65.5424976  73.0570745  75.7025242  66.4124393
  73.7596941  76.4548779  65.3028107  73.0211258  50.2760220  55.2040243
  72.6526880  49.5585489  54.6885490  73.6598778  49.8544884  55.7789469
  29.7368104   8.6043211   9.7672661  29.9489553   8.5119291   8.8384541
  30.5557067   8.4048601  10.2209767  28.5180862  15.5216976  14.3496330
  28.1784494  16.3288542  14.7361286  28.1731803  15.5200763  13.4567364
  47.8908062  52.1938896  44.5268011  47.3164606  52.0108938  45.2703524
  48.5074425  52.8479433  44.8557520  30.3878403  22.6417518  60.6083250
  30.3711677  21.6890001  60.6989670  29.9581075  22.9652286  61.4001131
   6.9008388  72.1842526   1.5448769   6.8057956  71.5149211   0.8672436
   7.7386179  72.6045035   1.3505991  60.7437086   8.6813486  52.1944904
  61.1496925   7.9133755  51.7924643  60.2951860   8.3381855  52.9673433
  42.1089990  13.6578699   1.2908323  41.4845903  14.3809267   1.2314518
  42.7175195  13.9229389   1.9805248  42.2895439  18.4496876   8.5275181
  43.0973442  18.1089254   8.1433590  42.2138937  17.9964872   9.3672379
   2.7771320  55.9872102  15.0575550   2.0784750  56.5231227  14.6821697
   2.8189506  55.2169596  14.4908150  22.2707946  17.8714081  22.2083290
  22.9205663  17.2326275  22.5015743  22.7145345  18.3651014  21.5186985
  57.6422215  17.5981343  71.1986637  58.3308077  16.9638693  71.3981485
  57.6424885  17.6594532  70.2434301  75.4483032  53.3363295  47.0406485
  76.3116932  52.9244661  47.0747328  75.5226898  54.0966368  47.6173878
  26.1747599  51.9826937  66.5469694  26.5872765  51.4475346  67.2249556
  26.3870096  51.5362597  65.7272863  36.8814046  30.0747295  22.3318298
  36.9272955  30.3652664  21.4209469  35.9442813  30.0241466  22.5201710
   1.9536390  83.2134484   8.6779888   1.7142381  82.4915026   8.0968578
   2.7001800  82.8818272   9.1769226  36.1194475  15.8251377  23.1165512
  36.3923795  16.7093082  22.8716190  36.1874158  15.8093115  24.0711983
  25.8992662  79.7333072  46.7105778  26.7340460  79.6676086  47.1743115
  25.7057943  80.6706570  46.6972645  28.9896019   5.3347488   9.4959362
  29.2327507   5.4713245  10.4116066  28.9973314   4.3839927   9.3853195
  51.7703390  43.1296778  66.1407995  50.9149170  42.7100849  66.2326288
  52.1952677  42.9951525  66.9878912   5.5859396  69.2265463  48.9361143
   6.1747858  69.2879105  48.1839657   5.5811903  68.2962227  49.1613007
  57.6617432  24.5365906  55.1063061  58.5422802  24.2083859  54.9241638
  57.1007872  24.0767622  54.4817162  32.5815399   0.5995365  32.1498306
  33.4916503   0.6566282  32.4408062  32.0760210   0.9790369  32.8686245
  80.6630104  71.4829158  37.2442921  81.0592811  71.4189409  38.1132610
  81.3920944  71.7021726  36.6641243  22.5746622  77.0230244  17.0835026
  21.6419305  77.2215222  17.1662911  22.7714433  77.1780061  16.1596592
  24.2543800  12.8552433  15.2448280  24.4618709  13.7833114  15.3537758
  24.7444255  12.5900169  14.4665344   6.7319956  79.1452502   5.3794392
   7.2600641  79.7288965   5.9241732   6.8218698  78.2861637   5.7919033
  73.9610147  34.3516231   7.5494331  74.2348814  34.9562144   8.2391435
  73.0420351  34.1672087   7.7435881  59.6591520  30.4817343  18.1292164
  59.7144747  30.5302191  17.1748483  59.5912552  29.5457864  18.3179545
  10.2669532   6.8841549  10.7400616   9.9087961   6.9646927  11.6240700
  10.4069741   7.7871891  10.4551800  75.7785962  17.6685568  35.6811245
  76.4975868  17.5207945  36.2954910  75.8748446  18.5830446  35.4152592
  69.3696554  40.3267904   8.5804089  68.4550245  40.0664373   8.4713848
  69.7203977  40.3480287   7.6900347  46.8976116  65.0005960  60.7514620
  47.2779417  64.1612768  61.0105324  46.3701344  65.2671432  61.5044260
  70.2809103   4.6308132   6.9229468  69.6735342   3.9030166   6.7901762
  69.7212656   5.4066082   6.9572600  44.9755867  15.0269504  22.5623425
  44.3755348  15.7655473  22.4591644  44.4771488  14.2689558  22.2569950
  74.9107885  24.7695899  52.0814896  74.9266624  25.7079768  52.2696638
  74.1380835  24.6490288  51.5295649  76.3150709  80.1625966   0.2224310
  76.6187065  79.2554759   0.1882418  75.3619259  80.0985645   0.1620300
  50.9269857  30.2132630  56.6111231  50.8235264  30.8585572  55.9117508
  50.4203749  30.5683637  57.3415232   4.5694437  77.0554446  14.0784081
   4.2323770  77.9457425  13.9784630   3.7870683  76.5045403  14.1034420
  13.5382166  41.2693091   2.7427300  14.2854013  41.8270633   2.5262554
  12.9086580  41.4287165   2.0395430  47.5544794  18.9369341   2.5646027
  46.9940574  18.9552160   1.7888268  46.9587715  18.7334295   3.2856758
  64.0920639  42.4547148  60.1644421  64.0027475  41.9872856  59.3339205
  63.8087225  41.8237114  60.8260965  46.6573954  20.1648545  56.1472178
  46.3223457  20.8427119  56.7341471  47.3589802  19.7435355  56.6437054
  17.0636041  19.9605366   4.2105921  16.6566904  19.1941400   3.8064964
  16.4216001  20.2614923   4.8536261  11.4923389  33.1040807   4.5840223
  11.9930704  32.9640432   5.3876932  10.6674392  32.6416631   4.7321375
  51.8591785  34.3436122  64.0893126  52.2276163  35.2246213  64.1549492
  52.0349216  33.9463449  64.9422646   5.1249303  75.4643534  33.4045895
   4.3411340  74.9183844  33.3428391   5.7638540  75.0310324  32.8386887
  54.0972757  32.6870418  62.9395008  53.5515833  33.3839512  63.3038712
  54.2920828  32.9766226  62.0481920  43.4541225  58.2038260  68.3790255
  42.8850269  57.5198746  68.0260849  43.0271053  58.4749985  69.1916513
  13.6186685  53.6840748  15.5496891  12.7157392  53.9562618  15.7135780
  13.5566511  53.0830799  14.8072727  74.3762112  32.6288104  67.5058603
  73.7244463  33.0756450  66.9656992  74.2511034  31.6996956  67.3126602
  24.3596990  28.6648031   8.0264290  24.8585374  28.6193176   7.2107561
  24.1817672  27.7511545   8.2496365  55.0164468  17.3099418  20.3981407
  54.2462308  16.8544002  20.7379730  55.7566698  16.7737957  20.6824787
  82.5876175  40.7791944  15.8529385  82.7588902  39.8604151  15.6461723
  82.1852384  40.7583090  16.7212017  62.8245926  55.6074810  54.8422050
  62.5478935  56.5189552  54.7479343  62.1112919  55.0994444  54.4557667
   9.7717037  73.1257986  17.9838093  10.2317705  72.4089645  17.5470932
   9.8430719  73.8617586  17.3759468   4.3036577  47.2918844  54.9861288
   3.6642286  48.0006695  54.9154282   4.9490473  47.6134539  55.6156540
  37.1268644  56.8155741  17.8327950  36.9530954  55.8974682  17.6251419
  37.1662130  56.8416106  18.7888344  25.7599504  39.1266294   4.4522246
  25.2604158  39.4615789   5.1968725  25.4342372  39.6240659   3.7020929
  59.1856003  58.8241434  66.7439318  59.1460419  59.7138214  67.0948458
  58.8824034  58.2694674  67.4627066  59.0040970  31.3379335  58.7214184
  59.7651863  30.7749510  58.5798931  58.6277533  31.0292006  59.5456076
  67.9650266  18.8491483   3.5342987  67.8361852  18.7350603   2.5926932
  68.8756235  18.5949083   3.6839827  83.5878849   6.2629342  64.4802475
  83.3444786   6.5066224  63.5871601  84.0361977   7.0350021  64.8254347
  67.6359980  16.3859841  70.2019787  67.2210687  15.8847424  69.4999647
  67.7578609  15.7523057  70.9089708  29.3759271  34.3264365  67.5705290
  29.5421716  34.3351388  68.5131407  29.5828268  35.2155542  67.2826147
  30.2988321  80.2855101  51.3524485  29.5462973  79.7190335  51.5228367
  30.3765232  80.3000805  50.3985167  12.3419370  70.0087427   1.5403088
  13.2054367  70.2671980   1.8624981  12.3357572  69.0541791   1.6110333
  84.0726393  79.8583792  25.0790985  83.8425892  78.9439200  25.2436264
  84.8796957  79.8138021  24.5663555  69.1313999  77.6446198   9.8917397
  68.2525080  77.7314113   9.5226200  69.1346281  78.2361769  10.6442555
  67.4414730  57.5862837  62.8394604  66.6154671  57.9091263  62.4792957
  67.1808529  57.0176315  63.5639906  61.1613131  55.7236767  65.0696945
  62.0784521  55.8450842  65.3153515  60.9028149  54.9104786  65.5034208
  56.7663145  33.1496978  55.5281925  57.6570225  32.8208160  55.6494474
  56.3667154  32.5369525  54.9108648   5.0634899  44.7220381  16.3974007
   4.7677984  44.9516945  17.2783383   5.6027879  43.9410641  16.5217693
  36.9012125  31.3559910   0.0358828  37.5040300  31.1744304   0.7569082
  36.0798843  31.5958305   0.4649838  27.3011453  24.9667497  33.3166989
  27.4873264  24.1189714  33.7202271  27.6244218  25.6089445  33.9486035
  38.9452322  42.4323793  19.6453102  38.9826114  43.3882852  19.6125229
  39.1845996  42.1528764  18.7616738  67.2368431  72.2287655  51.6783333
  68.0534077  71.7307234  51.6408634  67.4252701  73.0342531  51.1967468
  22.8222868  41.4886379  48.8664913  22.8419229  41.5333319  49.8224449
  22.0366880  41.9768047  48.6199808  11.0079374  80.8283185   7.7722271
  11.8348970  81.0906051   8.1766804  11.2317552  80.6600331   6.8569048
  44.4523430  66.0500145  59.2413521  44.3734217  66.5233755  60.0695610
  45.3815842  66.1089563  59.0193987  56.4918661  39.0578771  62.0107651
  57.0614624  38.5979795  61.3940907  56.4517832  39.9541426  61.6771030
  67.0318556  39.9740767  57.1126509  67.4550581  39.8568082  57.9631662
  67.7521849  39.9582338  56.4824867  63.2052279  43.0468607  63.2884789
  63.1215715  43.8872719  62.8379869  63.7795877  43.2298040  64.0320349
  31.3872535   8.6319776  12.3791321  31.3156469   9.5765587  12.5165184
  32.2944410   8.4253402  12.6039417  67.4311979   7.9428383  23.5438069
  66.6628892   8.4851833  23.7220963  67.0968206   7.2217460  23.0104645
  85.3638649  58.6904907  65.9146595  85.6221008  58.9574718  66.7968559
  85.9677792  57.9818583  65.6924677  57.9604816  57.2755861  68.7343311
  58.5550833  56.7104959  69.2276430  57.4728394  57.7536964  69.4050360
  31.9776399  14.7599169   7.8854902  32.7596576  14.6094461   7.3544176
  31.4777954  15.4132410   7.3960455  82.9510021  56.8747759  68.6217928
  83.5531998  56.7419291  69.3538713  83.0912495  57.7842379  68.3582926
  15.3923757  26.6131874   8.7815579  15.1487453  27.4675413   8.4252556
  15.9080036  26.2024494   8.0875500  75.0913239  48.5199976  64.6423960
  75.8023405  47.8801489  64.6782494  75.4451561  49.2958498  65.0772381
   1.7776258  46.4086481  29.3347557   2.0493252  45.7705541  29.9944885
   2.5682838  46.5734335  28.8210114  72.7096994  25.0696226  18.3234985
  72.6824815  24.4057413  17.6344689  73.6221941  25.3581520  18.3421810
  50.8188820  54.6381903  70.1501799  50.6378031  54.7168827  71.0867929
  50.2263641  53.9495134  69.8487139  49.9113512  53.5865545  55.8798075
  49.1033125  53.7873554  56.3520241  50.4428339  54.3778276  55.9672928
  54.6191883  58.0750418  71.9619274  55.5244350  57.7658844  71.9962931
  54.3557167  57.9438925  71.0510921  10.5660923  45.4514452  27.1429451
  11.4453943  45.3072305  27.4926098  10.5801804  45.0362535  26.2805946
  56.0438497  16.8791481  15.9399231  55.4538972  16.1325260  15.8362778
  55.5764158  17.6113744  15.5379589  70.9914072  30.5290361  13.5462673
  70.8903272  30.4446502  14.4943722  71.9351919  30.6168695  13.4128960
  14.3360670  19.1804214   0.3725727  15.2123363  18.8062187   0.2811726
  13.7771137  18.6141630  -0.1595489  26.9883831  10.9648653  17.9914673
  26.8873127  10.5969425  17.1136006  27.9265125  10.9020897  18.1709202
  25.3652372   1.4845559  59.2213249  24.7682466   0.8072278  59.5392227
  24.9695673   1.7883584  58.4043884  63.7753160   4.6407123  10.9340675
  63.5732229   4.9123712  11.8293865  64.5947321   4.1520067  11.0112484
  12.2116014  34.0218592  70.3198051  12.0054838  33.5175347  71.1068296
  11.7174455  33.5905194  69.6226788  57.5673158   1.8601127  14.4421871
  58.2165201   1.2007995  14.6872814  57.2529466   1.5788790  13.5829361
  53.2609834  80.5374883  15.2459629  53.4965124  79.8564290  14.6159466
  54.0913095  80.9625100  15.4608067  87.6696985  77.9570054  12.6207550
  88.2033317  78.6675047  12.2648628  87.1622818  77.6409696  11.8731697
   8.9732177  44.9342581   5.8225449   9.0393097  44.6347090   4.9158295
   9.7604950  44.5918985   6.2458809  24.7828729  26.2075229   9.1733654
  24.6456106  26.5005537  10.0742157  25.7322748  26.1154266   9.0934857
  60.4840429  14.7574707  30.4277619  59.6561964  15.1070591  30.0980862
  60.3333051  13.8151737  30.5024918  54.3361187  22.7426982  67.2214174
  54.1231441  23.3971834  66.5561914  53.8883829  21.9489932  66.9285059
   7.1611997  29.7702003  63.2443857   7.8208658  29.5177031  62.5983810
   7.6515123  29.8721290  64.0601254  80.4229610  81.1854910   4.6922644
  80.9876364  80.4236435   4.5620211  79.9613159  81.0042857   5.5109699
  13.9597805  15.3021951   5.2156981  14.3576582  15.7424160   5.9667833
  14.6853597  15.1646229   4.6067293  39.3002946  19.0813919   1.6217621
  38.6422784  19.6799656   1.9752558  39.2185504  18.2922455   2.1572931
  30.7344873  16.3244816  11.6013535  31.6742284  16.4596935  11.4795406
  30.6407697  15.3780933  11.7099388  56.6512775  61.0807514  47.5512505
  57.0437002  61.7453146  48.1174612  56.7240286  61.4445925  46.6688919
  20.1138122  20.0207659  16.9257267  19.3381698  20.5685325  17.0463665
  19.7745140  19.2008205  16.5668305  31.6610296  55.8699365  15.8254727
  32.5836475  56.0399481  16.0154541  31.4471967  56.4752622  15.1154812
  56.6772652  64.0535069  66.5544367  55.8357763  64.0088367  67.0084572
  56.4648533  64.4067812  65.6905413  54.7454453  43.5623074  69.5623732
  54.8610830  44.5112801  69.5143318  55.4107904  43.2712078  70.1859140
  66.7171042  80.4101156  19.7060211  67.2523158  79.8817610  19.1138847
  66.1547344  79.7759413  20.1507576  86.3171291  69.2182255  69.6285820
  85.4601765  68.9993000  69.9945593  86.1437607  69.3999147  68.7049103
  35.5161848  74.2688726  16.3014897  35.5277242  74.8596023  17.0545777
  35.2783003  74.8281573  15.5620011  52.5221872  47.6586390  69.6007299
  52.7682114  47.6993561  70.5248785  53.0403376  46.9359255  69.2465544
   3.8536188  30.5909204  38.8776016   3.5408613  30.4122424  39.7644472
   3.5281011  29.8569894  38.3564281  32.9464140  65.1942109   8.6625393
  33.5644998  65.5875944   8.0465420  32.0847692  65.4510568   8.3341797
  70.2094936  66.2875843  67.8169060  69.7421551  65.4694223  67.9855394
  69.5971966  66.8109608  67.2997999  81.8883801  28.0814314  48.6831379
  82.6495075  28.3319592  48.1595421  81.7934513  27.1408606  48.5329723
  71.6531618   9.7082134   6.4535769  72.4421842   9.9910589   5.9913309
  71.6809042  10.1803394   7.2857817  50.9153700  54.8192453  62.7464628
  50.7611609  54.1778135  63.4400177  51.8324089  55.0718737  62.8534460
  68.5148907  61.0030270  59.0191221  69.2598200  60.5934906  59.4591141
  68.8076258  61.8951178  58.8327932  65.2350481  15.6089779  11.7638786
  64.8773916  14.7892805  11.4227017  65.3966386  15.4324098  12.6906784
   3.7939484  15.7133528  30.5077179   3.9365299  15.1965757  31.3007172
   4.6219165  15.6540247  30.0310906   8.8994047  61.1107254  51.2599087
   9.6634981  60.9009743  51.7969370   8.4625742  60.2696037  51.1260223
  28.1808717  22.5955768   2.7727850  28.1831319  21.7270370   2.3704584
  27.8991230  23.1834646   2.0719011  47.3769474  73.1073666  61.7956829
  46.6189623  72.6056051  61.4958000  47.7088594  72.6144075  62.5460529
  60.4177053   9.1973968  10.4051979  59.9348600   9.9043651   9.9770744
  60.9969766   8.8561388   9.7238644  59.6661472  50.8195353  59.5029354
  59.2543888  50.4831934  58.7069702  60.6030846  50.8177710  59.3070221
  44.0217073  45.2086969  22.9960259  43.1051738  45.4795500  23.0492409
  44.5101936  46.0289236  22.9263790  48.5354567  61.3777494  63.0608654
  48.4638929  61.8645668  62.2398186  49.1014767  61.9187164  63.6115074
   5.7629892  60.3072262  57.5545692   5.2687189  61.0813189  57.8242159
   5.8870146  59.8088694  58.3623409  73.4007502  76.5429878  43.0343151
  73.1533670  76.9374228  42.1979809  72.7726698  76.8996572  43.6624384
  30.7673761  17.5389981  55.9126329  31.2213823  16.7296886  56.1474276
  30.1404115  17.2751820  55.2391720  36.2683589   7.8034731  11.1080559
  36.9454486   7.7397390  11.7816456  36.4789922   7.1037622  10.4897793
  80.0158405   5.9138483  62.0880842  79.3441820   6.5879911  61.9849110
  79.9206305   5.6174475  62.9932451  19.0217390   6.6394422  33.1398487
  19.7198047   6.0416696  33.4074306  18.9805927   6.5487668  32.1878409
  33.2417860   6.0201642  58.2559872  33.7482633   5.8698461  57.4577904
  33.5653200   5.3630635  58.8722467  11.5851614  52.3872852  56.4933777
  12.2500345  52.2612667  55.8164120  11.3978121  53.3257580  56.4733410
  83.1362074  77.1733235  25.8350857  82.3944967  77.0875262  26.4340313
  83.8990896  77.2503470  26.4080628  54.3635607  77.3747969  59.3517399
  54.1683006  78.2564163  59.6693087  54.9816322  77.5103521  58.6335135
  46.3025897  53.1974195  19.0676602  45.7014208  52.4548446  19.0092571
  47.1609538  52.7997659  19.2136582  71.3983305  21.7155834   9.7075279
  72.2882898  21.3972278   9.5563515  71.4131029  22.6223989   9.4014271
  47.2988701  18.9380705  53.6382151  47.0600796  19.2960393  54.4932413
  46.9486523  19.5681584  53.0084753  72.4417496  38.5519409  47.4771500
  71.9177055  38.0732298  48.1193686  73.3466864  38.4185266  47.7591419
  71.1764765  38.1595922  45.0126600  71.5771055  38.3439565  45.8622122
  70.7183599  37.3287129  45.1391459  53.0876541  54.7164536  54.8312712
  53.3189964  55.2201653  55.6116486  53.5166264  53.8699961  54.9566889
  53.2461500  42.2789812  58.0614185  53.5066700  41.3838053  57.8445673
  52.4111414  42.4014854  57.6097679  17.5511095  45.3560543  68.2579136
  17.8272363  44.8493004  69.0215778  17.0398351  46.0786867  68.6220980
  61.1743259  44.2195368  55.4340410  60.9368801  43.5475111  54.7951126
  62.1231794  44.1357803  55.5283308  14.2030832  67.2692585  53.6636591
  13.7087366  66.7787266  54.3203449  13.5387632  67.5885630  53.0529642
  63.6564112  54.9811983  66.8893528  63.3062315  55.2720785  67.7313709
  63.0063820  54.3597841  66.5614176  48.4538372  24.6861883   8.6118992
  48.7596090  23.8285490   8.9071568  47.9889972  25.0475927   9.3665798
  57.9721260  61.5486383  66.9980812  58.8263416  61.7759943  67.3653126
  57.5268984  62.3889637  66.8891764  47.0084484  28.3451553   7.5894936
  47.5229223  28.2337089   6.7900332  47.6272638  28.7064834   8.2241161
  31.6311080  22.1516748  18.2919033  30.7810791  21.8922373  18.6473950
  31.4595707  22.3305269  17.3673447  85.8330345  41.6663647  43.3317089
  84.9408722  42.0115614  43.3651972  85.7584667  40.7761621  43.6755276
  55.1490362  28.9763304   6.9912537  55.4517705  28.4452911   6.2546499
  55.6468923  28.6513181   7.7414139  31.0646112   9.6558471   7.3273237
  31.7442091  10.1338430   7.8026064  30.5821760  10.3332992   6.8534525
  66.0472829  26.9598766   1.8621309  65.3968389  26.4444109   1.3852080
  65.7673795  26.9120641   2.7762468  51.7697771  22.1858354   7.3728235
  52.2262247  21.9409891   6.5678795  51.1141450  22.8240820   7.0917137
  77.9035330  50.8087492  70.1595354  77.8884411  51.6680050  70.5810547
  78.2527685  50.9773731  69.2844152  56.1968756  72.1731472  36.4527345
  56.5237856  71.4031649  35.9874415  56.8886757  72.3861170  37.0790672
  73.7780666  45.9158707  43.4791613  73.7305164  44.9728966  43.3217859
  74.7134256  46.1168957  43.4487772  65.2366543  60.8134127  59.0273237
  64.3202162  61.0196543  58.8433695  65.6439734  61.6628838  59.1968012
  67.6860673   8.8043733   5.5634506  68.4918172   9.0207906   5.0942238
  67.5899751   7.8586908   5.4508694  71.2649305  30.5489679  16.5294655
  71.3538511  29.6073194  16.3824089  71.3101633  30.6481977  17.4804314
  27.5298650  44.0731664   0.1019629  26.8214996  43.4526106  -0.0694124
  27.4964721  44.2196604   1.0472973  34.5402963   1.1463447  16.9348820
  33.9485748   1.0026975  17.6734360  35.1777608   0.4349848  16.9968327
  14.1384622  61.0687256  54.4502687  14.1126367  61.8969011  54.9295235
  14.4943258  60.4397583  55.0779581  74.4649982  63.3297443  70.3350592
  74.5265198  63.8960981  69.5658445  73.6009836  63.5171032  70.7019472
   4.3485185  62.8413773  63.6452198   3.8750479  63.3253288  62.9685688
   4.6770975  62.0621538  63.1968069  61.6672475  15.8076139   0.2533777
  61.7876966  15.6870790  -0.6885330  62.5539167  15.9212681   0.5956181
  77.2052946  77.6509022   0.7336720  77.1480550  76.8543505   0.2059801
  76.3301840  77.7538871   1.1075934  67.2677946  50.1227283  52.8585386
  67.7377892  50.7294655  53.4305668  67.7632904  50.1330996  52.0396328
  81.9977338   3.3685394   1.7798765  81.9843538   4.2007299   1.3071068
  82.8035123   2.9411073   1.4896210  14.7044935  21.3365743  51.2159586
  15.4765453  21.8224999  51.5058613  14.8753633  21.1432168  50.2941942
  55.8440549  39.5344778   5.4050930  55.5285604  40.0659891   6.1359842
  55.2217062  38.8092943   5.3501423  12.0487173   8.1816526  35.1631554
  11.6920002   7.7716871  35.9511288  12.9227359   7.8024956  35.0706108
  23.1040580  12.4908729   7.3853501  23.6491306  11.8927189   7.8965624
  23.7237651  12.9650636   6.8309649  50.2387960   6.2017723   2.7810772
  49.9825103   5.9804292   1.8857821  49.6932037   6.9550796   3.0070885
  71.5002966  61.7061043  28.8949513  71.6428185  62.0517206  29.7761273
  72.1166277  62.1900654  28.3452702  32.4734409  16.4676376  14.3303402
  32.7092321  16.6312357  13.4171780  32.9835994  15.6954904  14.5748051
   5.1985295  23.0056997   2.2334345   4.2640193  22.9191681   2.4216707
   5.2449520  23.6805387   1.5561827  21.1902483  16.5285059  18.9430531
  20.6435211  17.2360178  19.2847450  22.0871551  16.8117805  19.1206654
  19.5905134  15.8339703  64.8268557  18.8267347  15.8098209  64.2504072
  19.9408647  16.7187095  64.7233009   2.4524154  78.9899682  14.2884262
   1.5927639  78.7637304  14.6434601   2.4171581  79.9380564  14.1614636
  85.5515099  78.2249832  47.1901751  85.0582409  78.9196157  47.6265383
  86.2332726  78.6860657  46.7014694  69.9948423  66.9400715   3.3417090
  69.1046207  67.2881674   3.2910450  70.0796621  66.3854979   2.5661572
   1.5999624  60.0082970  66.5837669   1.6151926  60.9236670  66.8632269
   1.2068006  60.0307322  65.7113314  15.0632865  24.8340364  25.7619198
  14.9382789  25.4933019  26.4445408  14.5985611  25.1848312  25.0021752
  79.1078901  31.0054898  46.0290146  78.3445501  30.4280448  46.0191298
  78.9475679  31.6266108  45.3185654  23.4614236   6.9803091  30.0195320
  23.2661684   6.7695661  30.9325989  24.1527088   6.3653084  29.7743233
  16.1782953  51.1112595  53.4807873  16.8965933  51.1145306  52.8481197
  16.2200662  50.2451229  53.8861132  77.7306039   8.2917925   7.2710140
  78.6140497   7.9249950   7.2361668  77.7883871   8.9944788   7.9184158
  79.9044466  25.6834197  54.3373775  79.6910477  26.0768366  53.4912586
  79.8233747  26.4030051  54.9633646  58.0988176  23.8401790  10.9725102
  57.5172288  23.1745048  11.3397415  57.7001150  24.6726938  11.2258537
  38.0339231  10.6356999  51.3323450  37.4743452  11.3548943  51.0393238
  38.3478632  10.9119889  52.1933508  54.0131617  74.1699553  59.1178799
  53.2115555  73.8252735  58.7243605  53.8855410  75.1185369  59.1295815
  39.3237264  13.2548090   8.8842972  39.2401083  13.6268135   9.7622784
  38.4871347  12.8162618   8.7293060  10.6438371  73.2393646  59.6191549
  11.0648271  74.0819645  59.4487810   9.7226068  73.4564495  59.7621012
  42.7113302   8.9563986  13.6474045  42.5281150   8.2171961  14.2272671
  43.5122592   9.3444439  13.9997776  75.8008289  67.0864677  45.6760836
  75.1767921  66.5795135  45.1566553  75.9802246  66.5364981  46.4386988
  66.9168442  72.8939341  13.3405598  66.3134497  72.3701452  13.8676174
  67.2471111  73.5589837  13.9445980  81.0825348  52.6201773   3.3626676
  81.2954044  53.5317707   3.1628767  80.6952000  52.6508522   4.2374599
  12.6103040  70.4525280  40.3573465  11.6723940  70.5104351  40.1751137
  12.7692339  71.1313963  41.0131788  62.4427946   2.3629471  22.9385193
  62.7474268   3.0423828  22.3370178  62.4096544   2.7956720  23.7916763
  66.3461035  19.5468900  55.6695175  65.6637710  19.6844003  56.3265896
  66.3393157  20.3481290  55.1458740  43.9921379  58.6008167  29.3704915
  43.7626982  57.6715422  29.3645763  43.6319160  58.9416790  28.5517812
  37.8649879  27.8540707  67.8406048  38.0707455  28.3202457  68.6508989
  38.7138772  27.5567436  67.5131702  74.0301371  76.6459513  52.0292807
  73.5757113  76.9991541  52.7941179  74.6830797  77.3107910  51.8104506
  58.7447794   8.4832092  20.3920563  58.6459787   9.3720384  20.7333096
  58.3445509   7.9248710  21.0586174  14.2498800   3.0475670  53.2505703
  13.9040109   2.8007427  54.1082954  14.9994299   3.6094704  53.4472227
  86.7165576   6.9707866  28.6446674  85.9916554   7.5813719  28.7785824
  87.4179230   7.3054167  29.2035397  51.2311888  28.0029321  60.4682779
  51.6513920  28.7177777  59.9900961  50.3602362  27.9327512  60.0774479
  59.5850468  34.1045785  63.6291170  59.1591597  33.6453390  62.9052687
  60.4530239  34.3282628  63.2932377  71.1326092  72.6952146  10.0550945
  70.6199043  73.3843063   9.6325787  70.8858698  72.7451800  10.9785946
  25.4481370   5.2784391  29.2590340  26.3125188   4.9772163  29.5389279
  25.2013452   4.6778675  28.5557278  84.5010090  47.4854279  38.3281302
  84.4055843  47.5724316  37.3796821  84.5011044  46.5408707  38.4831953
  37.1448888  64.8538302   4.0397843  37.2727194  64.3528961   3.2342060
  37.3658075  64.2405914   4.7407635  21.1501398  78.5435199   7.3046978
  20.3224506  78.0734419   7.2037657  21.1505117  79.1834186   6.5928229
  49.4959831  63.1661797  45.0228357  50.3343010  63.6281633  45.0276899
  49.6492958  62.3861217  45.5559731  55.2548494  78.8287376  10.5057533
  55.2100649  79.7756289  10.6385143  55.9526624  78.7099623   9.8614033
  51.9743021  16.2076851   2.2489460  51.4068182  16.6480728   2.8816040
  51.6928155  16.5457054   1.3988026  67.3140104  73.5512586   2.8731783
  67.1416147  73.1998583   3.7466963  66.4900739  73.9638563   2.6140936
  13.7741222  79.1901397   3.2019241  13.6185064  78.3991121   3.7179621
  14.7228136  79.2114400   3.0763872  61.3134851  74.8340343  17.0388992
  60.5841722  74.2181920  17.1100624  61.3975134  74.9982666  16.0996445
  57.6187475  10.3596254  26.2169655  57.4545057  11.0977932  25.6301411
  58.2343252   9.8050113  25.7376965  51.7081251  79.2785476  30.5402001
  51.7447366  79.0720986  29.6062477  50.8873453  79.7592710  30.6472405
  14.9604341  34.7802114  70.6149197  14.0600130  34.4949198  70.4597378
  15.4123232  33.9927149  70.9180307  33.4184670  75.4579306  62.6145458
  33.2197571  76.3050270  63.0135202  34.3746877  75.4154253  62.6064205
   2.4101469  41.3883305  63.2083082   2.7075502  40.8969975  63.9740562
   1.7505953  41.9910240  63.5517836  16.6345999  67.4675703  40.1931667
  15.7983324  67.6101398  39.7498083  16.7609903  66.5191174  40.1668835
  14.9858673  70.6193205   2.8530367  14.8389156  70.4409452   3.7819203
  14.6594865  71.5101000   2.7256449  67.0973825  40.4782820  38.2146788
  67.0041847  41.1036777  37.4960494  67.6738167  40.9167576  38.8405371
  23.0940492  32.0393034  37.4532135  23.2965381  31.1114784  37.3333367
  22.1441753  32.0641704  37.5687512  25.2043936  62.0825338  51.9746685
  25.0686476  62.1052313  52.9219198  25.2817556  61.1515522  51.7660379
  21.9654741  67.4451803  21.1611469  21.1485853  67.0356892  21.4461716
  21.7153635  67.9791306  20.4071053   4.7001417   0.5223604  15.9066780
   4.2654188  -0.3303007  15.9213837   4.5812757   0.8363767  15.0103005
  48.8036497  32.6957699  16.0103233  49.5969684  32.5989290  16.5371044
  48.8398225  33.5956522  15.6860741  50.3054531  14.1178318  12.1199043
  49.6296461  14.6859165  11.7500504  50.6300027  13.6142965  11.3733395
   6.5396616  34.6553302  39.7096968   6.5276357  34.5888686  38.7548828
   5.9080240  33.9988494  40.0034571  62.8689337  47.4564457  59.1770697
  62.9977655  47.8883362  60.0215244  61.9226170  47.3257494  59.1167974
  61.7492445   6.6036745  28.4867771  62.5405366   6.8155380  28.9819630
  61.0921724   7.2200962  28.8100441  82.2060299  44.4329548  37.9506969
  83.1499863  44.4265366  38.1092191  81.8787193  43.6671162  38.4224939
  10.7694664  72.9339694   5.2623661  10.9289159  72.3721002   4.5040043
   9.8415746  73.1609725   5.2013977  27.9667940  74.8910807  16.8631943
  27.7668752  75.6634997  16.3343914  27.2529306  74.8449205  17.4991997
   4.7764036  74.3742895  60.3152466   5.2357504  73.6986208  60.8139420
   4.8608419  75.1646471  60.8485746  52.9027612   2.4668833  10.6694325
  53.7495191   2.1824833  10.3254135  52.7353246   3.3022543  10.2331360
  77.2067506  26.6199394  22.8363808  77.4596365  26.9328924  23.7049111
  76.2646062  26.4644285  22.9027661  13.2211485  81.9850444   9.6659191
  13.1355657  82.9383515   9.6767719  13.1540479  81.7280673  10.5855377
  59.5452203  67.4805807  30.7971867  60.1016893  68.1811975  30.4570206
  59.8980035  67.2957610  31.6675957  72.3693751  11.1365600  15.2208717
  73.0058335  11.3532110  15.9022053  71.5221403  11.1704918  15.6650265
  46.3998318  47.4329948  42.7022028  46.1602545  47.0386076  43.5408258
  46.7618179  46.7087555  42.1916389  65.3329332   8.0465217   7.1980007
  65.0682027   8.8140627   6.6910132  65.6303365   8.4032579   8.0349739
   7.7441427  53.9753771  71.2389517   8.4685537  53.3647203  71.1026859
   7.2350809  53.9274979  70.4297543  14.3547065   9.6978899  32.4922093
  13.8378389  10.3376814  32.9818447  15.2416141  10.0579115  32.4897869
  80.3178280   3.7878701  26.3008761  80.6208914   3.8992879  25.3997803
  81.1192053   3.7839982  26.8243432  16.6949136  51.0688825  31.8966301
  17.1679313  50.9157511  32.7145775  15.8869798  51.5061613  32.1654423
  17.0591917  19.0219209  58.4945631  17.1894779  18.1094262  58.7526608
  17.0862522  19.0064332  57.5378704  43.3399095   1.2387559  67.3403835
  42.7195158   1.8664929  67.7109098  43.6204805   1.6371343  66.5164900
  49.5514679  49.0001678  63.3376598  49.8049831  49.9107504  63.1866550
  49.3519831  48.9590359  64.2729378  17.1086046  42.8010941  43.0566216
  17.2463915  42.0954132  43.6884928  17.7824041  43.4471512  43.2683897
  22.3206636  43.2080364  38.0562806  22.5202104  44.0898752  37.7420115
  21.5531847  42.9413748  37.5502110   3.3661100  72.2879028  22.4671125
   3.2417032  72.7551413  21.6410136   4.0077516  71.6075039  22.2631717
  26.0190685  14.4268366  37.1137818  26.8439300  13.9702221  36.9484528
  26.1087854  14.7689577  38.0032356   9.5812931   8.4290597  42.9435205
   8.7369146   8.0378339  42.7194643  10.2070846   7.7089402  42.8657818
   9.3295118  56.5350819  47.0545959   9.4375059  56.0312891  46.2478971
   8.7451574  57.2533464  46.8119907  41.9327280  72.1526814  49.0046930
  42.8280374  72.4900818  49.0331268  42.0363733  71.2072849  48.8964701
  31.8704881  15.9452435  57.9956055  32.7028169  15.8480260  58.4582090
  31.3321867  16.4784047  58.5805893  20.8878443  59.7300243  43.4331179
  20.8565923  58.8809967  43.8740301  21.6859743  60.1423120  43.7636328
   9.9610748   5.6394956  71.6323662  10.1617613   5.0032613  70.9459543
  10.6162443   6.3281629  71.5195847  75.6710005  57.4364662  53.2468033
  76.0234308  58.2193708  52.8236103  74.7224712  57.5644922  53.2354641
  63.3474882  31.7714210   3.1784065  63.0850847  31.4729591   2.3076065
  64.2395361  31.4414068   3.2859858  24.6898004  45.7479763  24.3922353
  24.0297815  45.5947924  23.7161064  24.8030874  46.6983557  24.4054103
  62.9180002  54.9537849  69.5520973  63.5689592  54.3149757  69.8426247
  62.3114300  55.0295639  70.2886868  68.0458117  61.3559675  61.8872070
  67.1181726  61.5401745  62.0347929  68.1170702  61.2281179  60.9412622
  49.5434809  49.0449286  66.3193750  49.1995096  49.8819923  66.6312075
  50.4500341  49.0292692  66.6262007  56.4245565  57.2346922   0.4477938
  56.0248430  57.0502420   1.2977608  56.3800485  56.4026972  -0.0234119
   5.4443922   6.9674489  61.5298700   4.9797144   6.1905953  61.2187386
   4.8074045   7.6770303  61.4463377  19.4805183  17.7379224  62.4619150
  18.6415090  18.0664441  62.1388435  20.1365461  18.2390687  61.9774342
  39.8017223  25.0350471   2.4167927  39.6649702  24.2737241   2.9806336
  39.1743143  24.9202772   1.7030533  25.0822074  45.2801367  15.3186997
  24.2969186  45.1396509  14.7897156  24.7947509  45.8583971  16.0252579
  84.3142605  39.9889421  58.3916807  83.8349056  40.2320480  59.1837358
  83.8570976  39.2147899  58.0631638  32.3005588  27.0889135  16.8535813
  32.4861486  27.7579637  17.5124939  31.3548286  26.9525572  16.9104679
  28.5451229  21.3793798  10.8708389  27.8156669  20.9787651  10.3979405
  28.1609495  21.6782518  11.6950424  27.1856489   1.6043946  65.2302790
  28.1402960   1.5400693  65.2029991  26.9660654   1.5162656  66.1577749
  73.0720575  48.8113256  15.6062706  73.8010080  48.9742513  15.0076779
  72.3268087  49.2564340  15.2028855  79.0106630  67.1733522  53.9110613
  78.3557606  66.5665960  54.2562819  79.2961836  66.7751694  53.0887699
  80.4851532  49.9946451  52.8469276  79.8259497  50.1342106  52.1670723
  80.0221539  50.1629019  53.6676264   9.2580435  45.5039167  69.8332644
   9.2099687  44.8074532  70.4881382   9.7453710  46.2055206  70.2651262
  77.3182011  72.0145702  68.9788532  76.6698122  71.3671732  68.7019062
  77.3533821  72.6422501  68.2570410  87.4280643  39.9037814  26.9144416
  86.9998932  39.1724825  27.3595285  86.7274857  40.3237200  26.4153695
  30.0701418   0.5914971  17.0613527  30.8938017   0.8977887  17.4408317
  30.3361978   0.0159356  16.3442934  11.1521646  65.4208279  66.4201689
  11.6482660  65.8299637  67.1291971  11.1403391  64.4898367  66.6423130
  23.2485410  62.6814175  71.6054916  23.9390966  62.0699120  71.3497162
  22.4374601  62.1837950  71.5017557  68.8599157  56.4544010  32.1507025
  68.4275818  57.0065641  31.4992189  68.2940960  56.5051317  32.9210949
  11.1129686  67.9010105  48.4445620  10.5337545  68.6468267  48.6011124
  11.7046949  68.1982422  47.7533722  21.0951097  54.4136186  17.5504120
  20.9217269  54.6081777  16.6293724  21.1669548  53.4597250  17.5843056
   4.0786382  64.8480463  45.0895596   3.6658022  65.2999067  44.3536139
   4.6871874  65.4906273  45.4542398  14.0884897  76.9253826  56.2078571
  13.3519956  77.3131084  56.6805887  14.8532507  77.1313953  56.7453861
  37.1150501  10.1774450   5.1028641  36.7939670   9.6018835   5.7970293
  37.7664239   9.6520181   4.6382340   9.9772856  80.9856129  45.0929403
  10.1380560  81.1068058  46.0287285  10.7947752  80.6200695  44.7548389
  12.8280470  62.9398775  69.3068457  12.2894117  63.5832882  68.8462734
  13.0262110  62.2763824  68.6459827  77.5704115   1.2397763  56.5753174
  78.5147159   1.3034818  56.4322519  77.4084442   0.3036115  56.6918802
  44.4744158  54.9356413  50.9589767  43.7263441  54.4107151  50.6742382
  44.6534157  55.5178308  50.2205706  10.5499384  73.8287163  53.7116718
  10.3217050  73.0012608  54.1352892  11.5052912  73.8660383  53.7580967
  27.3684406  11.3696587  46.9423485  26.7369032  11.5826213  47.6293993
  27.6401806  10.4726100  47.1364975  31.7059493   6.0862905  50.4211950
  32.1351457   5.4181916  49.8867178  30.9497142   6.3592088  49.9017191
  12.6552469  79.1228703  41.5252686  12.6631052  79.5625266  40.6750488
  13.5076410  79.3285289  41.9091463   2.0014412  61.2300542  44.2172670
   2.5596220  60.5568364  43.8281107   1.2931878  60.7411507  44.6362925
  37.7831650  13.6961174  57.2877693  38.6777902  13.4341967  57.0703363
  37.6837754  14.5614517  56.8908453  16.1201429   8.0271077  24.1541386
  16.9575357   7.7393878  23.7905145  16.1185563   8.9762205  24.0299797
  71.3556884  73.7340668  43.8257933  72.0281742  73.0699280  43.9771652
  71.8039856  74.5668277  43.9733362  30.8194375   8.5289049  61.0296774
  31.4972711   7.8537780  60.9984207  31.1358523   9.2134607  60.4401875
  25.8257134  57.9275659  68.6224127  25.3471071  57.0986321  68.6163950
  25.3514130  58.4824851  68.0032730  10.2823820  22.9806970   5.0002630
   9.4987955  23.4240722   5.3252991  10.0044431  22.0756220   4.8594769
  10.7261879  51.6172364  59.0091085  10.0187380  50.9902313  58.8587379
  10.9615404  51.9270685  58.1345510  29.2540216  20.3302550  56.5708971
  29.2363739  19.6433425  57.2372866  29.3655562  19.8597491  55.7448149
  87.1404896  60.9393480  64.7829962  87.5405464  60.1671365  64.3831491
  86.9346414  60.6666163  65.6771278  60.5505007  26.0071348   1.9326313
  59.8843401  25.3565620   2.1544798  60.7857697  26.4045333   2.7710541
  32.9538662  74.4888684  59.9568844  33.0625994  74.9665591  60.7792139
  33.2402928  75.1047590  59.2824459  26.2591839   5.4685950  66.4131689
  25.7960367   5.5053651  67.2500563  25.5651426   5.4882127  65.7542658
  18.6876142  27.3626041  46.3630867  18.7200010  28.2479429  46.0006523
  19.0333009  27.4544716  47.2509432   8.4651787  82.7880148  63.9607763
   8.9518101  82.1505825  64.4833660   7.5635225  82.7160779  64.2739391
  34.7766113  10.7555151  60.2689362  34.2721319  11.5530705  60.4290533
  35.2457857  10.9286833  59.4527721  15.6395084  72.7828112  50.6757402
  15.7686979  72.1719697  51.4012861  15.0461180  73.4476629  51.0251570
  88.0094784  38.9180933   0.9613093  87.6370066  39.7857862   0.8044537
  87.2500294  38.3547448   1.1099966  68.5348027   9.8892521   0.5845078
  69.4848554   9.8801087   0.7009085  68.2038134  10.3541826   1.3529547
   5.2443606  76.0292736  62.5567198   5.2685959  76.9327119  62.2413731
   4.9413807  76.0996178  63.4619761  59.0790146  14.7665881  11.2589844
  59.5952862  15.0370215  10.4996689  58.3906572  15.4280757  11.3284786
  18.2523441  54.4749117  53.5480070  18.6339521  53.6457062  53.2598591
  17.3490429  54.2561293  53.7769461  36.4986450  68.5480919  61.7032003
  35.8960039  68.8908747  62.3631668  36.6221029  69.2739502  61.0915470
  87.6332951   4.6204239  65.6031179  86.7942905   4.2287022  65.8456993
  88.1878567   4.4947511  66.3731241  36.1730671  19.7864056  50.3538895
  36.9209027  20.3650761  50.5025911  35.4143667  20.2990294  50.6328583
  31.0347247  17.7482545  45.3704643  30.7776189  17.0605183  45.9845877
  30.4739594  17.6096821  44.6072006  72.7921639  53.7278607  47.5170660
  72.1105800  53.9922360  46.8991852  73.5129259  53.4263685  46.9640398
  69.8646545  14.0030718  35.8040738  69.6791458  13.1553733  35.4000616
  69.6103954  14.6450889  35.1412010  80.0968075   2.7554801  57.0602798
  80.5665302   3.5641986  57.2641659  79.5394373   2.6033238  57.8234386
  62.5049282  71.9545343  36.8493438  63.1957988  72.2606733  36.2617993
  62.8063373  72.2027424  37.7232885  28.9409620  82.2237502  67.7123833
  28.9183361  81.3229628  67.3894262  29.1819985  82.1413979  68.6350727
  74.3259304  64.7680520   8.2425316  73.3907097  64.6901821   8.4310349
  74.6049803  63.8747214   8.0417259   5.1761808  38.9365687   0.6865700
   5.1248731  38.4440048  -0.1325647   5.4045095  39.8262434   0.4171665
  78.8331304  54.0487197  41.8251657  79.3884788  53.5936239  41.1921501
  78.6120866  53.3804563  42.4738503  63.2621758  38.0031951   5.5055769
  62.4239843  37.7474957   5.1205023  63.8510459  37.2766589   5.3015907
   8.8113386  47.6081684  63.9214563   8.6828286  47.2981647  63.0250120
   8.4900672  48.5097888  63.9114618  41.6416359   0.0036631  44.4842339
  42.3063135   0.6924456  44.4876671  41.0330343   0.2546533  45.1791048
  42.5730228   8.8457996  48.3899784  41.9162226   8.3837312  48.9108801
  42.1847153   8.9103079  47.5174618  72.1199386  17.6514386   6.4805182
  72.1990698  16.9264435   7.1004828  73.0124872  17.9839968   6.3856991
  14.0606434  71.5697864  62.1824837  13.1211455  71.6697660  62.0289135
  14.3611319  71.0057655  61.4698696  25.8132488  45.2394393  58.4173441
  26.4825232  44.8127296  57.8823471  26.3076622  45.7171681  59.0833473
  18.2768376  62.5453785  68.4733963  18.4051878  62.7207211  69.4056034
  17.9037459  61.6643551  68.4445477  65.5431769  70.9631911  28.6207843
  64.6768645  71.1875823  28.9604664  65.5804221  71.3848737  27.7622819
  87.0881241  27.2165810  15.6552323  86.8059271  27.4149560  14.7623547
  86.2813251  27.2306560  16.1701210  44.7632790   2.8400174  56.8568087
  45.1437569   3.6784443  57.1185541  43.8886309   3.0629569  56.5381908
  57.9161203  68.2563165  62.2080278  58.4750000  68.3718935  61.4395714
  57.2704663  68.9599398  62.1426249  32.3859096  10.0058162  51.3488007
  31.5913010  10.0477254  51.8808460  32.4238372  10.8544731  50.9076929
  68.4933441  62.4476169  16.6278656  68.5713094  61.7639445  15.9624775
  69.1742151  63.0811094  16.4013012  69.3605709  17.7919924  43.7110710
  69.7911358  18.4438109  44.2642260  70.0101137  17.0960557  43.6110878
  66.5140121  38.7829478  18.4866818  66.1353343  39.2416981  17.7367600
  67.1286886  39.4109503  18.8661774  24.1019613  82.5591152  54.1595030
  23.9567740  81.7354497  53.6939621  25.0250990  82.7610030  54.0068769
  42.9062128  27.7033114  69.5596695  43.7670898  27.9135013  69.1978073
  42.3523855  28.4410286  69.3041706  32.7790880  31.1380363  28.8243008
  32.6127172  30.2328658  29.0873957  33.5866928  31.0940814  28.3123708
   1.8240625  54.0026501  67.7802086   2.6365287  53.9669874  68.2850456
   1.5418250  53.0902746  67.7158499  24.0967202  11.5664506  45.6279421
  23.7086153  12.0723140  46.3418770  24.5968723  10.8781159  46.0664320
  81.8553560  55.2020286  17.1191605  81.6945856  55.7244920  17.9049214
  82.1107548  54.3415796  17.4517735  33.1758976  16.0064673  60.7276106
  32.9649305  16.7218041  61.3276196  34.1159153  16.0951293  60.5703306
  23.6588597   8.8795072  44.5833015  23.2121134   9.4936752  45.1659250
  23.4290075   8.0152625  44.9245977   1.0916080  63.6824225  14.2824467
   1.9326534  64.0294265  13.9850147   1.0148658  62.8338527  13.8462456
  62.6013231  33.1154156  48.8773632  62.6438665  32.4080992  48.2338381
  63.5157347  33.2972717  49.0941906  62.5458050  34.0985727  60.9021282
  62.7354097  34.0655541  59.9644756  62.8537893  34.9617004  61.1785173
  17.4466116  63.8524142  52.2650480  17.0043356  64.6788731  52.0711708
  18.2093317  64.1052070  52.7852249  38.9613278  74.7617939  50.6799841
  38.0556423  74.6916827  50.3782511  39.3682654  75.3813675  50.0743771
  76.1296194  27.3624073   1.2968691  75.5867451  27.1893369   2.0660027
  76.9265478  27.7577113   1.6502340   2.6127264   0.6013355  64.4463301
   2.2957918   0.7413438  63.5540438   2.8522608   1.4750659  64.7552824
  50.8145666  19.0746820  52.9923773  51.6480494  18.8548779  52.5761795
  50.1773262  18.4971869  52.5720739  35.5424721  80.2785245  49.6733665
  35.8255751  80.3661334  50.5835390  34.7959120  79.6806616  49.7112417
  79.2268579  64.5885109   1.8758829  78.7436884  63.7738489   1.7376574
  78.5822933  65.1885675   2.2509869  49.1973925   7.9213870  51.3364935
  49.6751785   8.7142581  51.0929585  49.8360252   7.2158253  51.2337112
  66.9953442   4.1378382  25.0668240  67.9174709   4.3754119  24.9694848
  66.5169287   4.8717931  24.6812582  60.3567648  25.9583092  51.9307661
  59.9831009  25.6303930  52.7487373  59.8200369  25.5599403  51.2455940
  40.5098619  46.8413501   2.3925360  41.1513128  47.5514351   2.4160631
  40.0562563  46.9559102   1.5574606  19.1945488  63.7475541  70.9566784
  19.5151741  62.9030517  71.2732983  18.8920099  64.1994861  71.7443752
  26.5934657  30.1650201  19.0934666  27.0277307  30.8229111  19.6364506
  27.2813722  29.8434221  18.5107239   4.7265012  79.3974268  66.3557243
   5.5941016  79.3950418  65.9513807   4.8761685  79.0785116  67.2457409
  81.1756056  38.7434395   8.9949234  81.7491167  38.8671561   9.7512444
  81.5931290  39.2432508   8.2934292  10.1079645  48.0934559  20.1482494
   9.8992433  47.1793042  20.3405865  10.1194706  48.5217177  21.0042294
  42.4289465  15.7930267  48.2323980  41.5742970  16.1292052  47.9626083
  43.0430937  16.1638260  47.5987101  72.7624750  28.4918666  61.4349318
  73.4821939  28.3405447  62.0475769  72.3612642  27.6305342  61.3193035
  82.5953484  30.9542823  34.9642253  83.0314732  31.6374779  35.4734159
  82.3954678  30.2701235  35.6031370  65.6190644  51.4854410  44.9577188
  65.3952054  52.4027350  44.8005819  66.3535331  51.5197375  45.5705929
  74.0654152  44.0860258  27.8317936  74.9745577  43.7873538  27.8538426
  74.0548437  44.8627468  28.3910950   5.5353243  68.2735625  70.2835512
   6.1823351  67.5709191  70.2211094   4.8328907  67.9053953  70.8195305
  69.7892220  77.2388002  24.8171282  70.6644661  77.0043752  24.5085311
  69.4463474  76.4316395  25.2007437   7.3021621   1.3932714  53.2988834
   6.4606220   1.0692555  53.6199093   7.2254443   2.3462534  53.3454847
  57.6453154  48.2769381   0.3131159  58.2405441  48.7744187   0.8738716
  56.8531077  48.1704037   0.8396967  64.4772629  82.5516305  63.8998318
  64.9282686  81.8623988  63.4121990  65.1508043  82.9209203  64.4709682
  85.9372681  48.5440450   6.4444168  85.3942984  48.6935877   7.2183998
  86.6653269  48.0099921   6.7621430  80.3888522  74.5777950  51.2513733
  80.9151993  73.7922868  51.1024809  79.7414861  74.5695183  50.5463314
  42.2650385  24.4123697  61.0891294  42.5721169  24.6604180  61.9611406
  41.4804983  24.9431992  60.9514952  33.6099768  45.6672621  59.8708630
  32.9081917  46.1824131  60.2687979  34.3925929  45.9038830  60.3686142
  53.8731146  32.2704148  67.8855562  54.4941044  32.5614929  68.5532999
  54.3839407  32.2493768  67.0763350   5.3052129  20.2440213  30.5096443
   5.6229582  20.2953266  31.4111145   6.0768451  20.4252886  29.9730309
  26.6836149  66.9701627  45.4308748  26.9390852  66.4641288  44.6595812
  25.7922012  67.2626498  45.2409697  14.0685947   0.4532953  11.1997135
  14.4850977   0.6803699  12.0310982  13.5093315   1.2037845  10.9991558
  44.8138475   8.4273303  51.5403748  44.2921305   9.1987598  51.3191605
  45.3036022   8.6852986  52.3212910  54.0734291  26.8905520  69.9596214
  54.6872711  26.8589401  70.6933975  53.7867832  27.8032160  69.9262953
  31.7049146  12.8060520  24.1431975  31.8759322  13.3398938  24.9190831
  32.5664163  12.4813819  23.8812113  73.5017464  74.9407229  58.6604023
  73.8003145  75.2713975  57.8132057  73.9914940  75.4531977  59.3036366
  34.1409445  46.8144894  29.1715288  33.9886165  47.3257923  28.3768010
  33.6879992  45.9861040  29.0138650   5.2644529  47.1770995   5.6573733
   4.5392885  47.4276083   5.0849970   4.9082889  46.4750429   6.2018879
  21.1452944  79.1935730  32.9157233  21.4833862  79.8773137  32.3374271
  20.5679352  78.6721128  32.3580766  61.7709303   1.0374379  37.6294637
  62.0211887   0.3384472  38.2336283  60.8482313   1.2026185  37.8233051
  41.9590616   8.2886595  36.0964465  42.8917885   8.4034997  35.9145999
  41.6174555   9.1799682  36.1678886  34.8634219  11.4115989  38.6610150
  34.3318939  11.3859701  37.8653693  35.2736306  12.2763371  38.6472654
  79.1898792  16.5079759   1.3848932  79.1730755  17.4647402   1.4083441
  79.3858402  16.2941550   0.4726942  21.9751167  20.7466483  36.0878754
  21.6453552  21.5378809  36.5138316  21.6945434  20.0321293  36.6596889
   2.7073312   9.0068817  49.7073936   2.1961075   8.6012971  50.4076672
   3.1487623   9.7440583  50.1292276  29.4884849   8.3884066  24.6774173
  29.2083502   8.5571462  25.5770183  29.5582056   9.2570281  24.2813516
  27.1168900  14.3378842  62.7742529  27.2593260  13.6368442  63.4102440
  27.0801592  15.1358712  63.3016062  31.1099958  31.9111800  22.6680660
  30.3859401  32.4056768  23.0520606  30.7043934  31.1088610  22.3394299
  69.0828984  53.0758201   0.6961353  69.4654816  52.3719584   0.1722677
  68.1400173  52.9968082   0.5513390  18.2879049  79.4770107  45.8229637
  18.0617697  79.5221394  46.7519760  17.9101975  80.2714944  45.4456520
  63.9254522  23.1139779  35.8753443  63.3126354  22.9717064  35.1539254
  63.4318447  22.8743935  36.6596818  34.5060427  79.5666036  33.5632944
  35.1209147  79.7002485  32.8419733  34.2438919  78.6491123  33.4876752
  64.1168404  33.9647770  58.4132862  64.9071121  34.2853475  57.9786205
  64.4407320  33.3794761  59.0979385  74.5149324  34.8630002  38.0257845
  75.3533528  34.4801810  37.7674580  74.0998898  34.1893724  38.5644817
  19.3353450   8.2947665  56.5958023  20.2309370   8.6027288  56.4568615
  19.4105387   7.3407376  56.6159487  54.6667320  73.7786356  26.4648271
  55.2993424  73.7792322  25.7464719  54.0418751  73.0915454  26.2331271
  48.5014468  36.9055517   7.2599514  47.9271000  37.2819601   7.9267891
  49.3394559  36.7843227   7.7063521  86.2263298  34.7643661  67.1509504
  86.6371441  34.8975134  68.0051994  85.2914333  34.8914385  67.3123598
  61.8108988  17.4213290  42.2405815  60.9274054  17.0763338  42.3696280
  61.6804504  18.2426000  41.7665243  22.5434120   7.6828714  10.5570801
  23.1485851   7.0817991  10.9914787  22.9345853   8.5476633  10.6809624
  13.8468826  12.5948143  54.4171429  13.8479638  13.0456090  53.5727406
  14.6203160  12.0315766  54.3889475  72.2851532  58.1928371   1.7876537
  72.9710644  57.5645458   1.5617998  72.0929306  58.0167972   2.7086790
  34.6346450  11.0934222  55.5144072  35.0895357  10.8003259  54.7248507
  34.5122600  12.0339227  55.3851366  83.0887287  72.6570843  11.9916447
  82.2088783  73.0169963  12.1037300  83.6716812  73.4055470  12.1189411
  61.3999312  42.4189423   0.8525284  61.4275473  43.1634312   0.2515276
  62.1833794  42.5185471   1.3933809  78.9628332  48.4537076   0.1174029
  78.7245958  48.7017535   1.0106810  79.9041813  48.2851820   0.1586016
  17.3283655  80.5229407  60.5542564  16.6217787  80.5640763  59.9098396
  16.9476683  80.8923334  61.3510275  18.2945528  46.2397735  24.1464241
  18.1947364  46.3812559  25.0878342  18.7743749  47.0085512  23.8382347
  80.6451988   2.7136415  65.9283781  79.7708368   2.4451001  66.2105227
  80.9968662   3.2034367  66.6717958  67.1523564  21.9810330  -0.2528087
  68.1069558  22.0285212  -0.2007000  66.8483775  22.3576688   0.5730112
  79.7474497  52.2586130  12.3292454  80.2802484  52.9872965  12.6476486
  79.5935266  52.4598645  11.4061936  42.8603125  19.2002511  60.0126982
  43.4023142  19.9700332  59.8397779  42.6668119  19.2489636  60.9488678
  33.4325647  21.3872457  24.8353195  33.3706641  21.0732841  23.9331961
  34.0658474  20.8013320  25.2499127  41.8279982   3.7181729  56.3425970
  41.0336781   3.5331383  55.8415461  41.5755033   3.5723308  57.2543001
  85.0843463  74.6109059  60.4621458  85.1192413  75.0768754  61.2975407
  85.9885893  74.6140435  60.1481915  72.2727268  34.5473193  11.0342320
  71.9746845  35.4347013  10.8343418  72.2177189  34.0824192  10.1993187
  52.5977128  62.1580480  33.8898953  52.1826928  61.2962781  33.8532646
  52.1935575  62.6491212  33.1745346  23.7378526  13.3326113  40.2709961
  22.8051209  13.1206846  40.2344799  23.9476442  13.3301520  41.2049198
  12.7450115  80.1954043  44.9566650  13.5222561  79.8420507  44.5239210
  12.6133663  81.0520911  44.5504761  29.1552591  50.5374336  70.3502035
  29.1402102  51.4026976  70.7592583  30.0625634  50.2458858  70.4398203
  28.9902210  25.1149654  63.2171726  28.4898758  25.4744864  62.4846220
  29.7023439  25.7404828  63.3507299  51.3214207   5.1267350  67.7130032
  50.8732796   4.5143723  68.2964516  50.8488131   5.9518212  67.8230286
  31.9493771   1.5905203  59.2994881  32.3041534   0.8901381  59.8470545
  32.2862363   2.3957148  59.6924496  58.1189268  27.4498855  16.0765274
  57.4716847  26.9697045  15.5600651  57.6105731  28.1180166  16.5363224
   6.9501724  32.5198876   7.7935227   6.6949548  33.2854162   8.3083637
   6.2264051  32.3914390   7.1804245  56.3276577  13.9583206  46.5103769
  55.8705664  14.5068109  45.8728313  55.6609964  13.3455968  46.8208027
  43.5883427  13.0168033  21.1399364  42.6314545  13.0046415  21.1611271
  43.8086319  12.9207706  20.2133918  45.7221603   7.0447278  71.9692039
  45.3235245   6.1752766  71.9321012  45.2493429   7.5533068  71.3103962
   6.0131247  68.0613783  24.5999193   6.7823059  67.7281001  24.1378379
   5.6120760  67.2842076  24.9890184  28.5276634  77.7899036  50.8572626
  27.7605803  77.2492316  51.0456562  29.2649157  77.2901055  51.2078238
  58.1635714  23.5092854  65.7925081  58.7196493  22.7379131  65.6829834
  57.6201677  23.3066368  66.5540028  61.3745253  68.8226436  25.4022129
  61.4585059  69.7693585  25.5158337  61.2231391  68.7064861  24.4642170
  16.4513046  82.6936001  29.1615748  16.6764958  83.6127107  29.3056417
  15.5284769  82.6316228  29.4081187  48.4958601   4.5476061  59.6441650
  49.3244123   4.2679229  60.0334024  48.7159491   5.3418481  59.1573668
  55.9870625  54.1754246  69.5086861  56.0718107  53.4342766  70.1084757
  55.3236055  53.8977385  68.8770628  36.2124681  20.0729942  44.6640635
  35.2875519  19.9862587  44.8948002  36.5100503  20.8408618  45.1519728
  27.1342976  82.9206551  17.4697614  26.9156916  82.4886133  18.2954633
  26.3992054  83.5116607  17.3067272  48.3124733  17.4197900  64.8693419
  47.8098106  17.7773786  65.6012535  48.1397820  18.0202198  64.1441584
  45.4747868  29.5227885  49.1323137  44.9243259  28.8542676  49.5401192
  45.3873730  29.3643284  48.1923771  12.6500780  59.2988518  52.6536560
  13.3935959  59.0353587  53.1958628  12.3751528  60.1406839  53.0169296
  65.2938397  70.0826362  38.6647558  65.1442654  70.0128069  39.6076155
  64.7171051  70.7926038  38.3826900   9.1474492  75.6922510  67.2108841
  10.0491578  75.6211308  67.5240850   8.6397798  75.1541409  67.8182936
  26.4721360  46.2028633  19.2927559  26.1536365  45.9606986  20.1623161
  26.5920859  45.3678184  18.8404854  17.5060654  21.7890882  59.4645071
  17.2525167  20.9074306  59.1913271  18.2387936  21.6523314  60.0650358
  86.9626587  63.6704348   4.4440420  87.3734205  64.2082452   5.1209982
  86.0643976  63.5450457   4.7500427  47.9929018  14.5200288  65.4217005
  48.2176685  15.4380786  65.5730104  47.0453596  14.5246375  65.2861214
  16.0105402  79.7998345  52.4704123  16.1164839  79.7609135  53.4209347
  16.8346293  80.1686406  52.1524668  11.1965868   9.7104490  66.8055916
  11.7934534   9.8314857  67.5440550  10.8254167  10.5794108  66.6527081
   7.9979616  25.4023933  53.6689949   8.3290815  25.5979872  52.7924490
   8.7141424  25.6460643  54.2554569  85.2936950  30.7890773  65.2749491
  86.1418285  30.9842587  65.6734514  84.7396523  31.5317917  65.5150366
  27.5381357  72.9100302  53.6606216  27.4199946  72.0391384  53.2813835
  27.0761330  73.4967145  53.0618000  41.2086582   6.2148213  45.7951689
  40.8536863   7.1033591  45.7682180  40.5132961   5.6910717  46.1931515
  29.3270636  14.4930184  54.9225712  29.4614315  15.4350770  55.0260258
  29.4018793  14.1415548  55.8097601  45.9844404  25.3384768  10.8830364
  45.4589706  24.9494432  10.1839169  45.6342011  24.9554895  11.6873272
  15.9913571  69.8239997  30.5418944  15.6057388  68.9658692  30.7183623
  15.3181870  70.4490116  30.8110285  67.5836747  64.4711522  61.3652853
  67.0527999  64.7876410  62.0962004  68.4754841  64.4423823  61.7118160
  47.3587591  72.9088178  69.4679117  47.9099972  73.6212405  69.7916794
  47.7320749  72.6856723  68.6152267  58.9062912  74.3330398  28.9479876
  58.2642777  74.4404384  29.6497798  59.2528183  73.4496388  29.0735102
  56.2870073  10.4864311  43.0496645  55.8404303  11.0373461  42.4067879
  56.5876293   9.7286367  42.5480604  35.5211926   6.7556721  44.4331264
  35.9288049   6.6876680  43.5697269  36.2576079   6.8190968  45.0413227
  11.3806994  71.1131540  55.2873516  10.8093388  70.9964719  56.0464048
  12.1761782  71.5077534  55.6447554  60.7668591   7.8920907  42.4526596
  61.4596367   8.0977750  43.0803442  60.8714151   6.9566882  42.2785330
   5.2818590   8.6129814  41.1525154   4.3795136   8.3195555  41.2786341
   5.3548861   9.4011003  41.6908169  51.8805122  12.8032899  46.1442327
  51.0374737  12.4540854  46.4333248  52.0582438  12.3489571  45.3206873
  58.4600973  12.5268078  63.5923100  58.2052946  11.7881155  64.1451550
  58.6987066  12.1284306  62.7552986  41.0934813  82.7455901  40.8071804
  40.5575497  82.8665961  40.0233650  41.9115622  83.2021048  40.6107855
   7.6664884  66.8457976  71.3195705   7.8145153  66.3090411  72.0981693
   8.2514102  67.5953093  71.4306164  26.2287951   1.8458012  68.3075523
  25.8545518   2.1858221  69.1203022  25.4887795   1.4431088  67.8531885
  70.9279840  67.7086424  15.6866749  70.8108919  68.0105423  14.7859104
  71.8564575  67.8532981  15.8689888  62.4343443  29.3905663  49.9980879
  62.7647114  29.8003292  49.1985989  62.5207615  28.4506726  49.8388338
  56.4048862  53.6598396  48.1705284  56.2721634  52.9765224  48.8275623
  57.3288631  53.8956642  48.2535028  59.2134619   8.2235408  68.5903645
  58.5014486   8.8351882  68.4028578  59.5973396   8.5456008  69.4059277
   3.7914171  75.0021290  16.3371189   4.1177740  75.7887267  16.7741402
   3.9767446  74.2922281  16.9518765  70.6300068  37.2926641  53.9769983
  71.5212917  37.6379585  53.9259291  70.7209730  36.4632869  54.4461393
   1.9831361  39.4860556   9.5804890   1.6961994  38.9615013   8.8329991
   2.4610176  38.8701670  10.1359566  32.1954083   3.8762423  31.6402340
  31.6327357   3.5153213  32.3253345  32.5122142   4.7039545  32.0018387
   7.9315312  54.8923352  58.5689926   8.6720950  54.8815682  59.1753578
   7.2397430  55.3528312  59.0439701  82.2638607  19.3930852  69.7198391
  82.8932190  18.6748815  69.6540165  82.4626827  19.9551547  68.9709854
  60.8009195  35.2753425  48.7000799  60.5709553  35.6429291  47.8467178
  61.6075182  34.7853398  48.5403109  78.0905216  42.6352010  13.9171131
  77.9879635  42.7904405  14.8560627  77.8850000  43.4773825  13.5112579
   5.0136430  67.8971663  54.5582056   5.0066192  66.9702974  54.7971535
   5.2838189  67.9057458  53.6399651  86.6386566  56.4563110  57.5599432
  86.0914145  57.1852639  57.2677326  86.6781650  55.8689120  56.8052053
  39.0758228  15.7727456  38.5947371  40.0139570  15.6686890  38.7538075
  39.0216613  16.1370623  37.7112365  27.9757292  78.7514916  38.1901407
  27.8994829  79.2519399  39.0025258  28.9145214  78.5906258  38.0951405
   8.4789140  61.8831494  58.7693119   8.2000930  62.6451591  59.2770863
   9.1039402  61.4325455  59.3372297  47.5714619  76.6414621  26.0791302
  46.8720038  77.0025006  25.5344844  47.1436054  76.4287624  26.9085455
  50.4943228  14.9261093  68.9721584  50.9909630  14.7621894  69.7738552
  49.9378729  15.6755495  69.1841412  79.6299038  78.4274027  54.5976925
  79.8348174  77.9668012  53.7840033  78.7722645  78.0890474  54.8549986
  50.2087069   6.9450504  25.4717612  51.0454226   7.1630919  25.8823657
  49.8301554   6.2748110  26.0407186  26.7403252  58.8795593  70.9251451
  26.3726551  58.5237124  70.1161814  27.6481182  59.0878537  70.7043409
  36.7165232   7.9198343  57.1571398  37.3202586   7.8427690  56.4183617
  36.8982100   8.7843221  57.5257635   5.2977123  61.5699338  25.8121975
   4.5954027  61.6280698  25.1644142   4.8773851  61.2002348  26.5886505
  47.8181362   2.2404929  50.1666737  48.5688257   1.6850373  49.9565220
  48.1351566   2.8194091  50.8599138  23.4188867  14.8761058  38.1236672
  24.0778542  14.7785842  37.4362946  23.7534785  14.3530726  38.8521695
  72.8470192  81.9373864  65.0799704  73.5859487  82.4809295  65.3534222
  73.2418881  81.0985625  64.8418856  24.1173465   0.2681156  37.7537258
  23.9833028   1.1508747  37.4087532  25.0601060   0.2125498  37.9097756
  78.2922411   2.4470443  48.6921978  79.0510559   2.2647800  49.2464685
  77.5388384   2.3251003  49.2699051  15.3324425   7.7217549  12.9648399
  14.7644591   8.3895028  12.5804710  15.6065142   8.0940151  13.8030159
  65.3243286  15.3372434  66.5365839  65.9185536  15.8222487  65.9639597
  64.4850762  15.3495076  66.0764360  16.2936664   1.6278870  39.5193768
  16.4930141   2.5525051  39.6662569  16.6913748   1.4288345  38.6717701
  16.2349445  69.5479539  60.8802032  15.4450352  69.3923858  60.3624392
  16.2609560  68.8205650  61.5018606  30.8483399  71.7734622   9.4718559
  31.0409284  70.8507918   9.3050583  31.4924561  72.0376228  10.1287945
  78.3558433  58.3928739   0.4253157  79.2526262  58.7223398   0.3664978
  78.3601587  57.8224992   1.1940106  57.4467039   9.4063574  60.1780510
  57.3803616   8.7629461  59.4724655  57.3732519  10.2530992  59.7377491
   7.9375178  33.3517981  61.1146641   8.1554538  33.4679747  60.1898718
   7.2022361  32.7389455  61.1123037  54.3902016  11.2925768  68.1140423
  54.5446301  12.0283890  67.5216198  55.2654171  10.9685636  68.3267403
  17.1854949  31.7093801  45.6892204  16.5861022  31.0747027  46.0818291
  16.9110250  32.5526619  46.0494614  13.6655256  12.9827476  51.5000916
  13.4969351  13.1061661  50.5659723  14.5827028  12.7124441  51.5442753
  65.0704864   3.0213144  63.6299467  65.2147725   2.3144048  64.2589855
  65.9360030   3.4102288  63.5040140  47.8960514   0.9791604  63.2773638
  48.7504387   0.6319392  63.5336685  48.0352831   1.9227709  63.1970835
  10.0122094  27.1120119  42.6503134   9.6054578  26.4550090  43.2152367
   9.4976813  27.0858455  41.8435907  22.7062637  68.4251288  64.2137480
  23.0136711  69.2804626  63.9135218  22.9474861  68.3953670  65.1395798
  46.5987635  26.0021734  68.1059217  46.0955286  26.6305494  67.5881052
  46.8013811  26.4680934  68.9171553  44.2866802  31.3817596  59.6474695
  45.0775051  31.2487006  60.1700783  44.6105576  31.5699983  58.7666130
  57.2693157  13.1845129  34.9050498  57.6899576  13.9676595  35.2599812
  56.6259861  12.9364109  35.5689812  29.5115168  74.5473036  19.3974411
  29.1150887  74.6397600  18.5311091  29.2019350  73.6983445  19.7131324
  57.6455069   3.7901723  37.1630120  58.2635736   4.4566950  37.4629617
  56.8282795   4.2679000  37.0210719  71.8814915  46.7260503   7.4180039
  72.2877186  47.5077544   7.0436390  71.9435709  46.8538384   8.3646019
   7.0422067  45.8861922  19.6068771   6.2171306  45.5227016  19.2853935
   6.7905559  46.6968678  20.0492581  55.5903714  69.3103145  10.8527668
  54.7492307  68.8642000  10.9512337  55.3585618  70.2198290  10.6649311
  67.6346064   8.4341639  61.2430143  67.1115255   7.8129917  60.7362938
  67.7936935   9.1607523  60.6405258  75.1861112  60.8730887  15.1427277
  75.7668035  60.4315697  14.5229824  75.6337850  60.7982050  15.9854706
  72.1636248  23.1001234  51.0370827  71.9608402  23.9906621  50.7506418
  72.5994635  22.6999164  50.2846813  73.0583858  28.4021902  49.9360228
  73.6266994  28.7718248  50.6117582  73.5180092  28.5767031  49.1147280
  30.5353928  16.4370441  67.9863977  31.1326504  16.9904447  68.4896517
  29.6912956  16.8852448  68.0397463  60.6962299  23.9771676  40.6518793
  60.3698254  23.0941176  40.4789257  60.0264168  24.5557547  40.2874374
  78.1398313  61.0306977  10.6915863  77.7464598  61.8999814  10.7679756
  78.2796877  60.9128152   9.7520264  54.9659586  13.0750763  66.1688089
  54.8828983  13.9379752  65.7629299  54.7379541  12.4596870  65.4719973
  66.5533829  20.5983973  19.1029406  65.6733847  20.2219987  19.0903127
  66.4333010  21.4983964  18.7999296  49.9867535  42.7022552  71.0628700
  50.1840925  43.0599737  71.9285059  50.8356619  42.4231386  70.7198334
   5.7423153  57.3036062   4.5347078   6.6459598  57.2896432   4.8500879
   5.4799881  58.2218360   4.6000584  74.7945547  18.3566618  64.4401073
  75.3509188  17.6396012  64.1359377  75.3885651  19.1028535  64.5212460
  83.6331367  39.7415996  32.2666478  83.8202381  39.7273135  33.2052755
  82.7019787  39.9563241  32.2112727  71.5412491  57.7251970  20.9120854
  72.2052210  58.2942079  20.5227192  70.9800356  58.3186601  21.4111527
  27.6557088  14.7156727  25.3496289  27.7008820  15.6713581  25.3789043
  28.2187581  14.4716704  24.6150064   7.4326822  11.3190758  72.1801901
   7.3659059  10.5003357  71.6888285   6.9571802  11.9571412  71.6482067
  43.5307009  66.1223641  28.0850720  43.4950430  66.8682662  27.4862456
  43.8689024  66.4875629  28.9026785  20.9472108  22.3378634  71.1974764
  21.3433766  21.7138624  71.8056774  21.5948868  23.0380630  71.1170387
  48.7996252   8.3441635   5.7231720  48.6144168   9.1001507   5.1660259
  49.5794733   8.5963484   6.2176092  69.3482631  46.3895820  21.4977368
  68.6182325  46.9472121  21.2287815  70.1284759  46.8529855  21.1931809
  14.0772840   4.3049252  70.4829216  13.3295652   4.4420689  69.9012518
  13.7248155   3.7899536  71.2087345  30.0257856  73.0917194  54.7425413
  30.0233585  72.1803811  55.0352669  29.1071684  73.2859477  54.5564079
  50.4803753  17.3061872  57.0399332  50.2661133  17.5802219  56.1481762
  50.3455544  18.0912781  57.5706720  85.2238178  21.3769317  57.1430349
  85.6720638  20.7241416  56.6052866  84.9497890  20.8964396  57.9242325
   6.0751390   8.0427372  45.0448132   5.2935869   8.3472639  44.5836496
   5.7958478   7.9528797  45.9559393  44.3683767   2.8302112  37.4836087
  44.3180990   2.1487731  36.8132758  44.5401287   3.6349747  36.9946432
  73.5008192  28.4161639  42.5030565  72.8539801  27.7712154  42.2169161
  73.9359140  28.0041075  43.2494736  81.9214058  31.3350868  67.3626137
  82.7768803  30.9193039  67.4699163  81.2948227  30.6145692  67.4295712
  33.1420602  68.0883025   5.4802569  33.6768713  68.8820695   5.4682310
  33.6852445  67.4270009   5.0514658  40.6660700  14.0634680  21.3697100
  40.7099342  13.2580984  21.8851590  40.5347490  13.7650001  20.4697633
  63.1052446  47.8673935  51.9573927  62.9840326  48.7088490  52.3972702
  63.6822128  47.3734951  52.5399733  25.3495302  82.2200202  30.7700928
  25.4176607  83.1442975  30.5307015  25.4554739  82.2105502  31.7213638
  25.8452041   6.2238022   3.1192215  25.8645685   5.8038851   3.9791783
  26.3219507   7.0445963   3.2426794  27.5388899  68.6121868   8.8955601
  27.0439233  69.3561982   8.5525139  27.4934282  68.7122296   9.8464401
  13.7986261  65.5648079  48.2700443  13.0687744  65.1000562  48.6793756
  14.0475447  66.2312451  48.9104652  80.8353203  74.1814946   7.3135098
  80.6194656  74.8870610   7.9232748  80.1163118  74.1826605   6.6816481
  48.9849598  82.5438685  69.2106438  48.1721718  82.7324225  69.6797466
  48.7615330  81.8197563  68.6258554   7.6428070  57.4469076  32.0639523
   8.5974159  57.5044988  32.1044644   7.3556890  57.5910984  32.9656227
  44.3477018  10.5841013   7.0321043  43.8151844   9.8051544   7.1930321
  45.2375467  10.3178926   7.2634991  64.2316961  22.0125222  46.0245180
  64.8416901  22.0596480  45.2883720  63.3947802  22.3017097  45.6609678
  29.7074499  60.5716049  15.1408585  30.0226679  60.2877055  15.9989269
  29.4480028  59.7619544  14.7011097   3.7673494   1.9160293  53.8692570
   3.7276670   2.8182107  53.5518837   3.1224844   1.4472055  53.3395529
  46.1484814  30.6143093  53.3278894  45.3439474  31.0987687  53.5129881
  46.7789888  31.2867212  53.0699158   3.4403617   1.3978620   5.3526409
   3.8639791   1.2574192   6.1994322   2.5229604   1.5651174   5.5685814
  12.5747385  75.9238933  46.1042126  12.1784773  76.7952179  46.1038979
  12.8609600  75.7912730  47.0079430   5.7807293  79.2661809   8.7887581
   5.9968986  78.3848904   9.0934380   6.6264810  79.7083830   8.7153156
   7.5941600  70.1273392  16.8292816   7.9174843  69.3825482  16.3223465
   8.3521499  70.7054709  16.9155796  74.8184681  29.5296454  55.0822258
  75.4135513  28.7855268  55.1738501  75.2886677  30.2626801  55.4794693
  52.4296761  57.9887342  63.4990692  51.5972662  58.3527184  63.1976748
  52.5167894  58.3032131  64.3989277  17.0878734  56.8059574   4.5909126
  16.2278356  57.0917188   4.2828425  16.9614210  56.6277813   5.5228432
  49.5981104  82.4974678  46.4849424  50.4126579  82.9913375  46.3909245
  49.1887505  82.5439342  45.6209421  67.9955721   9.7763491  27.3544407
  67.8793955  10.2428401  28.1821609  68.1092978   8.8607734  27.6094294
  66.4880913  82.6923465   5.3287657  65.8041423  82.2531794   5.8343132
  66.2431162  83.6174773   5.3475102  85.4130857  75.0351142  25.6042774
  86.0970276  74.7618269  26.2156494  84.6408718  75.1701688  26.1535271
  27.2949703   8.3765932   4.0309151  27.1985824   9.2763468   3.7188490
  28.2270534   8.2911344   4.2312821  50.6739664   4.1872299  56.0161114
  51.1454010   4.2518216  55.1855659  49.8574829   3.7397823  55.7938957
  76.1119413  12.8730643  54.8677683  75.5353355  12.1175790  54.9817991
  75.5543041  13.5422301  54.4709206  60.7672310  71.8797684  52.7427244
  59.9277973  71.4831781  52.5097036  60.6022453  72.3159027  53.5786629
  41.2183530   6.3429495  12.7165993  41.1262662   5.3902479  12.7059086
  41.4030416   6.5554758  13.6314495  51.1821873  78.2329783  60.7063866
  50.5063183  78.7359527  60.2520180  50.8777077  77.3266539  60.6605959
  38.9943647  15.8403742  35.9522915  39.4472504  16.4136136  35.3338075
  39.5719409  15.0825381  36.0435081  23.9705553  49.7846459   6.1731823
  24.9111070  49.6307968   6.2622269  23.5646619  49.1045313   6.7107018
  84.9186795  46.3730238  71.5042553  84.2156117  46.7886374  72.0034453
  85.7194560  46.6211859  71.9662088  56.1619155  64.4180158  44.6146107
  55.6564117  64.8111609  43.9031792  56.0634379  65.0292638  45.3446198
  51.6097784  29.9098468  34.7921968  52.4783230  30.0331807  35.1751494
  51.4373064  30.7255626  34.3219900  55.5979967  35.1248431  52.5821686
  54.9489355  34.5903397  52.1247196  56.1893940  34.4898319  52.9861975
  20.4145898  68.5804938   6.1827906  21.0814562  68.0977939   5.6944092
  20.5593195  68.3317446   7.0957049  55.7559633  27.4261308  66.7743492
  55.1242876  27.1721363  66.1015177  55.5738020  26.8387389  67.5078487
  67.8885460  49.6240330  63.7532234  68.6847305  49.3781567  64.2242479
  67.3167324  48.8607264  63.8345957  34.0944195   4.6544984  67.8690434
  34.1583323   5.1387405  67.0458460  33.2447147   4.2161176  67.8236961
  43.8247108  18.8042223  51.1325884  43.3205748  19.2562854  51.8091393
  44.4373369  19.4646513  50.8089304  61.7575645  34.5475006  39.6546531
  62.1388817  34.0511227  40.3788376  61.5713596  33.8893652  38.9850140
  21.7632753  77.0648578  51.7917824  22.0136006  77.9861709  51.8607187
  22.1033508  76.7872617  50.9411812  83.7567656  54.2399160  67.4617921
  83.0812161  53.7369875  67.9166867  83.5436146  55.1536087  67.6514361
  73.4591072  63.5835718   2.1072348  72.7834099  63.2489013   1.5176066
  74.0360611  62.8351616   2.2596748  43.1534815   7.7836078  32.1652341
  43.6543369   8.5992211  32.1529222  42.6309204   7.8354949  32.9655266
  71.1927652  21.4364052  34.9513984  71.6391563  21.3268876  35.7910228
  71.2865067  22.3674607  34.7499514  44.3185623  18.6948820  11.6386421
  44.4633777  19.2116590  10.8460529  44.6388395  17.8206583  11.4164169
  22.6641931  35.0668465   4.0729197  23.5588445  35.2476727   4.3612393
  22.5425615  35.6251704   3.3049925  63.7314939  35.8158255  51.2277317
  64.3739176  36.5186357  51.3256311  64.1470623  35.1927996  50.6315994
  25.2422810  16.3067698  67.5344896  24.6127462  17.0277381  67.5455284
  24.8797488  15.6629086  68.1429672  51.5980482  27.6864243  63.2763577
  51.2853909  27.4941874  62.3923206  51.8627691  28.6056566  63.2421732
  85.6398964  16.0976183  60.0118351  85.2898502  15.4275572  59.4247103
  84.8952675  16.6717899  60.1909828  32.3058254  72.7792135  66.2146759
  32.3511107  73.6262384  66.6582155  32.9581005  72.8391698  65.5166960
  68.5384178  35.6908107  50.2287102  68.1445408  35.2591538  49.4705772
  67.8526545  35.6751132  50.8963299  58.3018732  18.9506841  64.4369602
  58.6781120  18.1297231  64.1196299  57.4744177  19.0339267  63.9630175
  34.5609178  32.1552669   1.1601599  33.7018003  32.5180202   0.9443911
  35.0538625  32.8980516   1.5087469  54.1537626   8.3509536   3.6423262
  53.9235551   8.7041803   2.7829846  54.9888380   8.7669512   3.8563927
  20.8000269  67.5637077  15.0406178  21.5463438  68.0281900  15.4194458
  20.2421703  68.2558821  14.6857746  85.9102440  43.7428856  29.9069786
  85.8377647  42.8046513  30.0821853  85.6494045  44.1606569  30.7277465
   8.6547872  24.1476655  31.9643021   8.9727804  23.2742167  31.7358351
   8.3908769  24.5326495  31.1286163  84.5198696  35.9866856   8.2539852
  85.1888388  35.3107278   8.1453808  85.0116270  36.8072512   8.2868012
  66.2930965  51.4384174  36.2874770  66.1067104  50.5492115  36.5888143
  66.0723209  51.4269114  35.3561568  48.6191988   5.7756621  66.0675049
  48.1541443   6.3489896  66.6768122  47.9295683   5.2579653  65.6520081
  14.7555120  45.3547617  15.7941254  14.3097360  45.5730291  14.9756630
  15.1659353  44.5068022  15.6245621  14.9212970  44.0245575  24.6257218
  14.1281261  44.1001852  24.0952595  15.4058494  43.3000459  24.2300995
  51.2085564  77.6567790  52.0047235  50.6221420  77.0320693  51.5780020
  52.0545227  77.5212201  51.5778875  76.3661449  63.4494756  35.0661286
  76.8098562  63.1011556  34.2928131  76.4328735  64.3997787  34.9728497
  24.3433714  12.1647263  53.1229210  25.2803707  12.0601332  53.2882214
  24.0019464  12.5631905  53.9234734  25.4719343  81.6718196  23.0664261
  26.1555090  81.1015843  23.4182461  25.5785646  82.4953889  23.5424526
  72.1905518  36.4328766  59.9379301  72.9412127  35.8478475  59.8355389
  72.1772623  36.9487953  59.1317797  45.0646496  12.1545029  69.0684223
  45.8991051  12.2166944  68.6036158  44.4034624  12.3238957  68.3973265
  65.9039514  50.9309857  11.3911636  65.0350206  50.6425475  11.1118897
  66.4713018  50.7397764  10.6443222  70.6927443  51.4234257  60.3748608
  70.0201035  51.4766502  59.6959209  71.5190601  51.5199757  59.9014568
  24.4505794  12.1987291   3.1968792  24.9935920  12.7895399   2.6750477
  23.7294157  12.7468153   3.5063227  18.0272569  62.3913382   0.4095038
  17.4750557  63.0194854  -0.0560514  17.5272789  62.1688985   1.1948498
  41.2204845   4.7983452   6.1793860  42.1719368   4.8325201   6.2783583
  40.9522827   4.0426965   6.7021568  64.2137664  54.5813524   1.5023287
  63.9121359  53.7128125   1.2360771  64.6036499  54.4451987   2.3658569
  83.0256844  28.3421397  40.9938669  83.5489368  28.3725762  40.1929235
  83.4619427  28.9525008  41.5883112  10.4226896  10.4979181  70.3223372
   9.7842142  10.2319777  69.6606302  10.3573725  11.4525378  70.3481627
   4.5837042  23.9389729  29.5050859   4.0349027  23.5345125  30.1769876
   4.1135237  23.7831283  28.6860180  57.0657396  47.1578932  65.6665182
  57.2486210  46.8246317  66.5449953  56.2521410  46.7236328  65.4101753
  71.5340900  12.8028154  63.2165098  71.9455433  13.5574627  62.7952719
  70.7461691  13.1581748  63.6277676  59.9580288   5.4445326  63.2635784
  60.8738756   5.3644180  63.5301161  59.9199247   5.0197113  62.4066591
  24.3135282  27.8326535  69.9171877  23.6428377  27.6808143  69.2513418
  25.1096460  27.4519157  69.5464134  60.5413580  45.9860897  58.6446619
  60.7017517  46.4260674  57.8098440  61.1598635  45.2556038  58.6531305
   8.6162319  54.6042751   6.3226994   8.2814064  53.7703227   5.9930809
   9.5678034  54.5011233   6.3126047  15.5168237  68.0522369   9.3924530
  15.3318205  68.9755629   9.5641430  16.4710798  68.0061411   9.3332775
  72.8602093  74.4487714  14.1997536  72.7211731  74.8896836  15.0379093
  73.3852880  75.0650405  13.6891373  85.9663742  65.6687902  18.4141930
  85.6806295  64.7900103  18.6638554  86.2965601  66.0530375  19.2263230
   7.8253021  54.7571634   0.2212771   7.4959507  55.0580870  -0.6256000
   7.0384779  54.6155952   0.7476814  80.6440943  74.0543841  11.9546803
  80.9010523  74.6580790  12.6516445  80.2660053  74.6163820  11.2783440
  75.4900377  38.0763118   0.5383261  76.1062782  38.7828072   0.7315739
  75.1464384  37.8176047   1.3934525  37.5716264   5.6402727   4.0757712
  37.1167333   6.1181732   3.3822878  38.1347282   5.0215765   3.6106260
  19.6037283  65.8744501  17.9167469  19.0957441  66.6273450  17.6145371
  19.0782680  65.4990076  18.6232670  58.4560585   5.0105053  66.6410828
  58.3239698   5.6959373  65.9861279  57.6891708   4.4444442  66.5533829
  13.8964929  82.5410985   5.3485592  14.8289909  82.3513078   5.2453049
  13.8662185  83.4648513   5.5975588  45.8259726  26.7440462  59.9609375
  45.3803539  26.0358739  59.4960213  45.8949471  27.4478674  59.3158722
  58.9268732  49.4291830  64.1499281  59.6516943  48.8287640  63.9756870
  58.8313675  49.9306965  63.3402395   9.9843237   4.0314978  68.9331102
   9.1799757   4.5503324  68.9417601  10.2902338   4.0789792  68.0273533
  80.0925827  11.2340581  70.4419231  79.2149019  11.5855026  70.2922773
  80.6765270  11.8539608  70.0049257   7.8880045  47.6355362  47.0832443
   8.2650587  48.2067728  47.7523851   6.9451544  47.6665735  47.2454309
  30.8122802  26.4125919  70.3317928  30.5478144  26.2306333  69.4300270
  30.6316209  25.5992961  70.8031178  83.7374496  18.3157408  59.7585964
  83.2296562  19.0148747  59.3467903  84.1433811  18.7308919  60.5195856
  34.4268448  72.6322749  38.8494658  34.4182045  72.8924480  39.7705889
  33.7588007  71.9495872  38.7871361   6.5116998  28.7499905  40.7034063
   7.1974870  29.2347980  41.1626244   6.9677755  28.3134460  39.9839258
  52.1164377   4.1610666  13.7343414  51.8987615   4.7123190  12.9826935
  53.0483682   3.9696260  13.6290653  39.4610262   5.7957792  24.5353985
  40.2274084   5.2351749  24.4145155  39.2604160   5.7291788  25.4689693
  11.2517238  29.7526193  64.0402269  12.0364153  29.2125130  63.9465427
  10.5633235  29.2531204  63.6010933  28.3159573  64.1683295  38.5543227
  27.8798945  63.5003391  39.0833473  27.8634245  64.9822429  38.7756610
  16.5321024   2.3070379   2.8586968  16.8799503   3.1670519   2.6228769
  16.0850341   2.0045324   2.0682200  80.0637150  27.8385162  71.2734509
  80.3757381  27.5402236  72.1277905  79.1100502  27.8442836  71.3554144
   9.7038491  -0.0130038  37.4141415  10.0931032   0.8086391  37.7134998
  10.2363141  -0.2700190  36.6613777  28.3207121  41.7391996  20.4533966
  28.4677686  41.6511250  19.5116718  29.1954698  41.8625234  20.8219154
   5.0810518  53.4788071   1.0028942   4.5877447  53.9287804   0.3170403
   4.4121399  53.0520366   1.5382965  82.2706604  32.1854401  23.4432817
  81.7200661  32.7962232  23.9332008  82.1065140  31.3351011  23.8509679
  83.8202286  40.5143929  61.7396164  83.2412052  41.0410309  62.2906303
  83.4469604  39.6336102  61.7731142   8.9259393  77.5968137  60.4837513
   9.7752959  77.6729169  60.0489712   8.3932573  77.0793179  59.8798656
  34.8860955  28.0344176  70.2597618  35.7739568  28.3383083  70.4483986
  34.3516159  28.4058976  70.9615898  71.9181412  63.7782024  26.5133865
  71.6151016  64.5180439  25.9870537  72.4824636  64.1725777  27.1784027
   1.1950132   9.2442936  37.3527741   1.1911985   8.3133155  37.1302962
   2.1093008   9.5102125  37.2548342  44.9338388  20.4017091  40.6816626
  44.5679951  20.0458193  39.8718882  45.2731991  19.6373928  41.1473751
   0.0557079  47.0572858   7.1267183   0.5919113  46.2969627   6.9017132
   0.6512251  47.6389717   7.5991924  47.1842718  35.9652829  67.4999571
  46.5579796  35.9641838  68.2238245  47.5492430  36.8501711  67.5003576
  18.0781879  25.2160035  18.5193546  18.0760660  25.3923606  19.4601639
  17.5280847  25.9043204  18.1453999   6.8850729  21.9385815  59.1709232
   6.2974378  22.5895143  59.5545959   7.4764749  22.4472451  58.6161804
  53.4365886  39.1355203  10.2842911  53.8297623  39.0343033   9.4174584
  54.1816275  39.2604465  10.8721169  26.5219855  14.7203588  59.7525549
  26.5834928  15.5490458  59.2774487  26.8047166  14.9326909  60.6420565
  47.7798462   8.4785092  56.6979551  48.3471060   7.7861547  57.0372057
  46.9890928   8.0214286  56.4115572  77.3869341  36.1043088  22.7123745
  77.5862043  35.1753138  22.8285225  78.0811041  36.5595757  23.1889065
  85.0159836  16.1385965  43.3769131  85.7243156  16.0877967  42.7351141
  85.4617023  16.1737406  44.2232752  69.9346828  13.0975902  68.9005852
  69.0117836  13.3506525  68.8792658  70.4100180  13.9108193  68.7304497
  29.0597334  60.3311394  41.2186058  29.3020906  60.7328044  42.0529659
  28.6735334  61.0456227  40.7120522  31.9765782  21.1843967  57.0572710
  31.0247564  21.1946774  56.9564724  32.2501755  20.3558588  56.6636992
  52.3946667  24.1865683  57.1574450  52.2389603  24.1045260  58.0983257
  53.3468771  24.2404032  57.0760536  78.9714718   8.7976933  69.9482441
  78.0394077   8.9302963  69.7753191  79.2922497   9.6614987  70.2074194
  21.4243681  75.9907749  27.1343923  21.7854340  75.1145753  27.2690678
  21.3366158  76.0702726  26.1845446  87.2790354  62.3121690   7.9367169
  86.5505045  62.9296421   8.0015476  86.8626325  61.4676558   7.7645691
  68.7131970   2.8342603  14.4748600  69.0201514   2.1867012  15.1094254
  68.9268415   2.4544262  13.6226185   7.7505609  57.5451374  67.5699282
   7.4996778  57.8394556  66.6943359   8.1138155  56.6701078  67.4335527
  47.0358753  22.1817803  47.8509426  47.0098352  22.6944351  48.6588669
  47.9612970  22.1662784  47.6068449  15.3601207  54.4064246   5.6633719
  16.1246099  54.1716586   5.1373776  14.6140661  54.2515992   5.0840099
  78.1796837  12.8243113  67.6806164  79.1135263  12.9576278  67.5181627
  78.1394291  12.4681115  68.5681581  74.9412298  18.9812922  26.1196136
  75.8290911  18.6245787  26.0934091  74.5737362  18.6491287  26.9386649
  31.1538782  81.3295888   6.0290011  30.7335272  81.1454915   6.8690308
  32.0794954  81.1355780   6.1767443  22.5447638  79.7655439  40.3340435
  23.4215243  80.1491514  40.3530312  22.6548273  78.8971594  40.7213783
  54.8000765  31.4347339  49.9166822  54.3352699  31.5699482  49.0909100
  54.1907215  30.9291077  50.4545116   3.7026968  60.7491075  28.0320938
   4.2805996  60.2072285  28.5693367   3.2943906  60.1333629  27.4235066
  42.5789268   8.6190124  22.6864632  41.7446144   8.8512750  23.0941494
  43.1704576   9.3314882  22.9287632  63.1367731  30.7596397  47.4510193
  63.9667892  30.4740405  47.0692682  62.5130939  30.7188773  46.7260361
  33.0896282   6.0867846  53.1322384  32.7255893   6.0115683  52.2501659
  32.8840232   6.9822830  53.4006405   5.6310851  77.7828798  53.3478689
   5.3152592  77.2083202  54.0452671   5.6400139  78.6551967  53.7418413
  49.4456703  66.3646868  67.9209566  49.3999893  67.0290354  68.6085510
  49.8632462  65.6130293  68.3415174   1.2181589  28.5851812  50.2547932
   1.2229654  29.5193315  50.4635286   0.4168531  28.4573293  49.7470665
  15.2396066  11.6410919  13.4420593  14.7568138  11.0887047  12.8272350
  14.8350055  11.4644476  14.2913731  60.9130049  21.5961123  47.9829788
  61.0235977  21.0022211  48.7254715  60.7711029  21.0182905  47.2331667
  54.7221184   9.4300777  18.9941728  54.6284723   8.4802270  19.0665925
  53.8420677   9.7704726  19.1550171   4.7605726  25.8449006  70.5400896
   5.2244207  25.1268125  70.9707022   5.4532263  26.3757753  70.1468563
  35.9470565  16.0298439  25.9916218  35.1439912  15.8398243  26.4766033
  36.1792047  16.9210716  26.2524994  25.9489965  32.6846170  70.7258654
  25.7533455  33.3841276  70.1024580  26.1345530  33.1404424  71.5468550
  23.2381239  62.3345588  26.5083035  23.8743105  61.6395973  26.3394077
  23.5992136  63.1025862  26.0656078  45.2981091  28.5466528  64.9430799
  46.2433815  28.3986044  64.9152803  44.9276733  27.8256106  64.4340515
  86.6091030  41.9339532  14.9868591  87.4631946  42.1954955  15.3308781
  85.9795730  42.2839117  15.6172951   0.2944681  57.1370220  62.0305109
  -0.4209021  57.2554207  61.4056540   0.8218977  56.4296103  61.6595411
  37.9458070  11.3525510  42.4919510  37.7149630  11.9508672  43.2025576
  38.6485815  11.8001330  42.0207739  58.8880777  25.6452250  49.2220545
  58.2854414  26.3754368  49.0811348  58.3771944  24.8667955  49.0000677
  68.1725025  41.8955708  44.4204092  68.7817430  42.2736645  43.7862921
  68.3190060  40.9515905  44.3598557  77.8529947  42.0428370   5.9058674
  77.5239008  42.9344477   6.0197027  77.7168339  41.8539898   4.9774130
  79.2003918  17.8946579  38.9126992  78.9502478  17.8121245  39.8329425
  79.7926140  17.1586311  38.7585378  42.2007751  27.9433346  63.1559706
  41.6975975  28.6722636  63.5188866  42.9714632  28.3552885  62.7653742
  32.1482944  21.4798045  71.1919928  33.0251312  21.5020108  70.8087254
  32.2053003  20.8191657  71.8823099  50.2749529  47.2224151   0.7508476
  49.5591917  47.6577716   0.2878388  50.4466905  46.4326822   0.2379521
  65.4897499   0.8599154  65.0627804  65.9830093   0.0679944  64.8488045
  64.6099854   0.5452547  65.2707195  30.5625136  72.4544015  40.0598574
  30.2849133  73.2416692  39.5914769  31.3583357  72.7184883  40.5215454
  86.9876967  77.6300272  59.6698093  86.1876736  78.1520301  59.7306967
  86.6794381  76.7264768  59.6005011  57.2789335  56.4673376  60.2458858
  56.9721460  56.0682678  61.0600471  57.3281050  55.7395601  59.6260881
  28.8172443   1.5472265   1.8445023  28.6622198   0.8887811   2.5217398
  28.3886678   2.3365970   2.1753367  50.5317528  64.4547918  38.9788389
  50.0688822  65.2574423  39.2191172  51.4577229  64.6692529  39.0920663
  18.1964523  82.5653838  58.4939671  17.5011904  82.0235926  58.8671970
  18.0505449  83.4339802  58.8687754  69.4045353   2.3266442  61.6784477
  69.0296745   1.7552184  62.3486567  69.2232180   1.8780896  60.8525181
  72.0209455  41.9787264  35.3048468  72.1951485  41.0377026  35.3238726
  71.1839962  42.0581627  34.8471975  23.7788684  22.5249334   4.6429022
  23.7522323  21.5889211   4.8413904  24.4340141  22.6041980   3.9495524
  55.4619122   7.7456659  67.0830870  54.9428415   7.8892785  67.8744030
  56.0739040   8.4813440  67.0612907  53.6575603  39.3191028  57.6570845
  53.8665104  38.3999419  57.8235626  53.4892225  39.3597531  56.7156792
  39.0524282  82.7932786  21.5287312  38.2343568  82.9955577  21.9826897
  38.9591493  81.8783568  21.2632950  81.4045620  42.0904160  54.3834066
  81.1427593  41.2156820  54.0961313  80.6178379  42.4547291  54.7890949
  81.3694859   8.4962487  63.6583948  81.2982464   7.6170981  64.0302134
  80.7199287   8.5123914  62.9555130  85.2619617  74.7251772   5.3710755
  85.4191273  75.4996990   4.8310335  84.8092573  75.0605892   6.1448916
  63.9542675   6.6793460  51.3317156  64.1653681   7.4966621  50.8804226
  63.0155754   6.5610856  51.1864567  75.1544619  39.4043899  71.3364172
  74.8044777  39.8464775  72.1099186  75.5031729  38.5778284  71.6702223
  80.5980396  68.7582254  45.3360653  80.4304123  69.0263081  44.4325924
  79.8710299  68.1739807  45.5513525  42.8001499  19.3519127  62.6038599
  43.2752943  20.1592779  62.8004217  42.2085047  19.2351651  63.3472013
  80.3774357  39.1505933  57.9784489  80.5504131  39.8545623  58.6035395
  79.4237900  39.0688848  57.9676056   0.4192152  75.5950354  16.6736324
   0.5962648  75.4631661  15.7422455   1.0395994  75.0182556  17.1193703
  26.4362315   5.7262083  40.2664097  25.8357505   5.6848093  41.0106762
  27.0530395   6.4216705  40.4947003  22.1723196  51.9512653  66.3084841
  22.8591463  52.1343994  66.9495440  22.2101614  51.0033321  66.1811161
  68.8260651  33.6039090  39.2437983  68.8197565  33.9439702  40.1385355
  69.4354916  34.1741538  38.7751269  52.8109884  45.2028894  71.3712454
  53.2601929  45.9668684  71.7328787  53.4899759  44.5306253  71.3140869
  43.3856542   1.8615385  48.5451801  43.9957054   1.7559715  49.2751988
  43.1078060   2.7761360  48.5955818   6.3717165  75.1457452  12.2049053
   6.2560262  74.9871587  13.1417568   5.5336799  74.8974561  11.8146713
   0.5608866  40.4999018  48.3142471   1.3934347  40.2264404  47.9291296
   0.7004473  40.4328632  49.2588425  44.0961225  30.0831648  11.0783585
  43.8671310  30.5907627  10.2998074  44.6348150  30.6768223  11.6014393
  32.7869692  59.0595363   0.9432371  32.3319902  59.5492743   0.2581223
  32.0901384  58.6016034   1.4132937  62.1962221  10.4333540  12.2263630
  61.6894777  11.2390371  12.3279007  61.6445501   9.8702331  11.6834362
  69.9845791  48.5963154  15.5232966  70.1914692  48.8631821  16.4189589
  69.2349911  48.0082607  15.6156933  68.4951687  30.7444191  49.7756767
  67.8595209  30.6021261  50.4770565  69.0861082  29.9935198  49.8320246
  85.5687237  42.3328781  36.6734123  86.2784290  42.8652525  37.0327473
  85.8664322  42.0987034  35.7943439  73.5729456  54.1714430  63.9491177
  73.9387083  53.3359957  64.2397738  73.0024385  53.9409876  63.2158756
   2.1988794  49.8942041  57.3964930   3.0029032  49.9515104  57.9127359
   1.5546438  49.5197773  57.9973173  42.9404320  38.0625556  67.9318039
  42.1044888  38.2698999  68.3494635  42.7241482  37.3938395  67.2819785
  22.2132101  59.1819381  37.5488003  22.5812997  58.4889542  38.0969914
  22.6893606  59.9707900  37.8080757  56.5689898  37.1681714  57.4810219
  57.0721006  36.3601255  57.5818539  55.6819105  36.9335842  57.7535868
  83.5964584  42.7722359  68.6080408  82.7478409  42.8900671  68.1812000
  84.2183208  42.6872206  67.8853416  19.2427847  65.9502172  46.5525103
  19.0714380  66.7348146  47.0733547  18.4015962  65.4944468  46.5221786
   5.8509006   8.1241319  38.5563087   5.6237545   7.1973035  38.4812593
   5.8715620   8.2901093  39.4987822  76.0097027  14.2123759  64.5841455
  75.4411697  14.7965360  64.0823889  76.7211819  13.9950156  63.9818287
  75.9933805  69.4940519  60.4948473  75.3570795  69.9940634  59.9836302
  75.8348179  68.5826015  60.2491903  37.9691083  14.1148802  26.2039002
  37.3120410  14.8067041  26.1272438  38.6782129  14.3927236  25.6240662
  50.5319269  26.0637613   7.4564369  49.9358089  26.4659973   6.8247088
  49.9748237  25.4841753   7.9760082  64.2190456  59.4259739  52.9060364
  64.3616962  59.7231674  53.8046741  64.5250368  60.1518679  52.3622751
   7.8977033  45.0765944  13.3683944   8.6565611  45.4132938  12.8919530
   7.8918001  45.5697870  14.1887343  44.9125154  17.5197120  15.1220139
  44.6232612  16.6107078  15.2012451  44.2282159  18.0276628  15.5578430
  73.8782024  26.7866421  38.9146280  74.6655989  26.3750267  38.5585213
  74.0420914  27.7263117  38.8346696  67.3084021  47.1913958  51.0796690
  67.2972870  47.0560217  50.1321554  68.0252552  47.8088379  51.2250042
  77.7167702   0.3617809  44.2589521  76.8648005   0.7976661  44.2786455
  77.7176857  -0.1251729  43.4348726  33.0069191  79.5942384  19.7455704
  33.2259829  79.1955298  18.9033842  33.5346443  80.3921941  19.7772884
   6.0872688  74.2156600  15.0009068   6.3383903  74.4506263  15.8941944
   5.1915016  74.5407366  14.9105747  73.8766623   6.8699318  55.2589369
  73.2425928   6.6090780  55.9268761  73.8690758   6.1505389  54.6275520
  80.8515549  58.7557507  71.4878082  81.4841938  59.4335222  71.2498379
  80.0265598  59.2275763  71.6017818  82.4278164  37.9053092  66.5314102
  82.8692436  37.0771646  66.7199469  83.1359577  38.5078335  66.3039732
  57.4846029  23.3750725  51.5010881  57.2462368  22.8214216  52.2446489
  56.9163561  24.1411901  51.5810347  84.2275674  16.9475218  23.2566364
  83.5633237  17.2650047  22.6449116  84.9066885  16.5696235  22.6978596
  16.4143791  60.8761214   6.0166081  17.0326032  60.4514931   5.4218634
  16.7197647  60.6355332   6.8912991  79.7847557  54.6493387  32.0635486
  80.6293011  54.7777319  31.6317081  79.3336773  55.4873896  31.9614434
  49.4820118  17.0878029  45.1625824  49.0398550  17.9186857  45.3368330
  50.4129887  17.3099518  45.1499462   4.3454477  29.5963502  22.7558231
   5.0608942  29.0750265  22.3917079   4.6265146  30.5037999  22.6384854
   4.1645166   8.1500101  67.7364111   4.1319677   8.9180911  67.1661282
   3.4776041   7.5736791  67.4014091  17.0188162  36.4347124  69.7181225
  16.6399786  36.5175509  68.8429976  16.3920805  35.8953905  70.2003670
  63.2005882  40.8129597  57.3733854  62.3855352  40.6598473  56.8953943
  63.6982775  41.4088392  56.8135023  55.9021950  54.7651291  58.2656527
  55.2408981  54.1083717  58.0474949  56.5437841  54.2921400  58.7956333
  29.8227300  73.5378884  15.1967056  29.1641130  73.9756845  15.7359512
  29.9643507  74.1335462  14.4609364  12.3102178  48.9885412   7.3561628
  11.4426746  48.5912173   7.4318703  12.5298204  48.9091836   6.4278801
  11.7548122  65.8866309   5.2479561  12.2907915  65.0966142   5.1784619
  10.8607998  65.5843662   5.0879295  52.5979519  45.9117603  65.9017324
  52.3477602  45.2769613  66.5730476  51.8941736  45.8658934  65.2545643
  84.2501545  14.1808474  46.8883705  83.8154602  14.4699025  47.6906919
  83.6677742  13.5121095  46.5280199  47.4260426  17.9397547  67.4929905
  47.4409294  18.8205099  67.8675318  46.5264797  17.8249216  67.1866751
  29.1519918  75.9951471  37.1206959  28.7721624  76.1301969  36.2525280
  30.0976839  76.0228370  36.9753273  54.4716501  52.4417639  58.0644369
  54.8568869  51.7794991  58.6382198  54.3699694  51.9988775  57.2219706
  63.0342007  18.2842314  35.8071756  63.2237434  18.6691773  36.6628170
  62.5488043  18.9646518  35.3406477  15.7962152  28.9911819  38.6086464
  16.2539121  28.4064960  39.2127013  15.6824800  29.8036838  39.1017365
  86.7992973  15.8777094  41.4277267  86.4982128  15.6574523  40.5462122
  87.1608162  15.0596285  41.7687321  65.1006222  26.9747853  47.0737600
  64.4473267  26.7038798  47.7187777  65.6872797  26.2223935  46.9965076
  75.5881023  45.4200935  53.4510231  76.1208200  45.6276464  52.6833200
  75.4355621  44.4771719  53.3888817  29.6300442  81.7189538  56.3947344
  29.8585302  81.6568370  55.4672813  30.3328831  82.2422048  56.7800331
  69.3310118   4.0554285  65.8642006  68.6317205   4.0519294  65.2105808
  68.9308739   3.6729145  66.6450977  19.2765352   9.4452399  61.1633253
  19.7412035  10.0115585  60.5472136  19.3892977   9.8719472  62.0127010
  73.6614084  47.0841932  37.6387453  72.8465319  46.8454885  37.1968961
  73.4622478  47.9108286  38.0783319  66.1308193  16.9473481  47.1545267
  65.1983881  16.9699121  47.3696709  66.5734196  17.0719922  47.9940510
  80.3287888  41.3212109  36.4253163  79.4512844  41.7010689  36.3813877
  80.6378937  41.5335751  37.3059893  55.2920008  50.3133917  65.6740904
  55.2518225  50.0580835  64.7524452  56.0763407  49.8788214  66.0090303
  43.5237837  12.4595237  53.3879375  42.6726055  12.8777480  53.5176134
  43.5627079  12.2819579  52.4481583  46.0195644   8.4000488  14.0870960
  46.2298353   9.1530271  13.5347851  46.6213996   7.7146335  13.7968739
  12.2257955   4.9021335  10.2236660  11.9028051   4.0310951   9.9930103
  11.4438255   5.4541584  10.2279766  64.1810131  20.9902477  51.4834547
  64.0879726  20.2001023  52.0156622  64.5755386  20.6839490  50.6668997
  82.5101852  59.2364454  67.4419641  82.2392368  58.7908125  66.6393232
  82.1062279  60.1022434  67.3832655   3.1404199  79.6639990  24.7464760
   3.0272379  80.1065825  23.9053257   2.6469507  80.1998924  25.3673943
  32.3741937   2.9410070  71.1882782  33.2093740   3.3157668  70.9085321
  31.7381907   3.6426720  71.0490036  80.9202766  56.3590956  60.3528070
  81.0765934  55.4948711  60.7334805  80.6258869  56.8953943  61.0889816
  41.2729979  50.6712437  41.5407753  41.0723972  51.0570192  40.6880331
  41.5054226  49.7636986  41.3443851  52.5952196  41.7535448  63.9535236
  51.7921495  41.2410069  63.8607550  52.3755550  42.4288654  64.5953321
  18.4655782  17.2372854  67.1617842  18.9420339  16.6196859  66.6069984
  17.5722429  16.8945897  67.1893167   5.1397314  74.6639322  -0.0479166
   5.4613151  75.5253886   0.2179869   5.8287182  74.0570639   0.2227219
  20.6777880  50.9354830  26.8733001  20.9963342  51.7707014  26.5309978
  21.3821432  50.3152323  26.6851354  80.5478001  47.4024773  48.9609098
  81.4469910  47.6071024  48.7043524  80.0050735  47.8948545  48.3450794
  67.3736000  52.0232296  71.0544586  67.8929043  52.7541685  71.3895512
  67.6787996  51.9051266  70.1549387  66.2426043  53.7025785  66.5530109
  65.4167223  54.0084410  66.9279718  66.6345644  53.1663990  67.2422886
   9.6971979  69.9827789   7.7951916   9.5941343  70.7899545   8.2992466
   9.6564712  70.2642940   6.8812283  19.6406784  79.7207211  11.6143234
  19.3988075  80.5639886  11.2314041  19.0554418  79.0903138  11.1944206
  82.2206562  75.5399059   0.8730753  82.3516624  76.4837669   0.9635933
  81.3000172  75.4483389   0.6275709  18.8858976   5.7387254  68.5045195
  18.3691778   5.6414983  67.7046537  18.5108795   5.1001737  69.1110229
   7.4555513  17.8064549  50.1840925   6.4987299  17.7884734  50.1641178
   7.6695272  18.5618377  50.7316732  75.1757812  51.7775059  59.6897459
  75.6892633  51.0237360  59.9802637  74.7102594  51.4654541  58.9137650
   8.9439590  63.4427181  25.8339310   8.9775831  64.3116286  25.4338098
   9.8255593  63.0896190  25.7141972  84.2062722  15.8233114   5.3599127
  84.4084488  16.5161319   4.7311409  84.8693619  15.1521869   5.1982506
  22.3600633  27.0298429   1.7350157  22.8636701  27.5865551   1.1411389
  22.4211986  27.4681421   2.5837715  50.3609808  13.6257549   2.1847733
  50.3417928  13.7114282   3.1379374  51.0841997  14.1885229   1.9082220
  87.1823311  14.7711635  56.3572168  87.5249290  14.1487515  56.9986677
  87.3692322  15.6309152  56.7342138  78.9835072  49.4886160  42.2670364
  79.4505358  50.1726198  42.7468824  78.4982777  49.0121746  42.9406738
  59.6663380  44.4841480  66.9865751  59.5547724  44.0564489  66.1375427
  60.3737450  45.1135969  66.8465662   1.5345690  57.7257013  46.5705109
   2.4021551  57.4964094  46.2374163   1.1565801  56.8914080  46.8485641
  50.8955956  32.4912000  59.1251326  50.1806831  33.1105971  58.9785814
  50.7177877  32.1203399  59.9894667  66.2489271  17.8757095  44.1038847
  66.2892437  18.2388091  44.9886274  67.1433926  17.9535341  43.7720585
  65.6073523  37.8126454  51.4185858  65.0146818  38.2107425  52.0561504
  66.4766884  37.9077220  51.8077469  50.0019445  36.6929497  11.6236694
  49.2239370  36.1960034  11.3707455  49.9297800  37.5145336  11.1378487
  20.2605173  30.4657960  56.0960436  20.9744379  30.7658958  56.6586256
  20.1972219  31.1332130  55.4128313  49.3439531  25.6378198  49.7465229
  48.3993483  25.7839799  49.6955872  49.5966053  25.3919554  48.8566065
  80.9362411  67.5283957  66.7294073  81.0295200  67.4055338  65.7847166
  81.4382362  66.8103933  67.1150351  85.8253479  24.0757012  30.8872390
  85.2805901  23.5183024  30.3315687  86.6700268  24.1091275  30.4381990
  55.4016550   4.0915962  23.1082829  54.7413881   3.8377758  22.4634178
  55.6915338   4.9589487  22.8256138  71.9182014  46.0325193  50.1640034
  72.1902037  46.0829401  51.0803604  72.5329924  46.6008615  49.7000551
  46.5694141  68.7677479  62.2447205  46.4248562  69.6554661  61.9171715
  47.2460079  68.4080124  61.6710997  54.3279743  66.6846323  58.0099106
  55.2315760  66.9464588  57.8333235  53.8057518  67.1924639  57.3889208
  67.9629087  65.1586199  47.4582767  68.6242485  64.5348120  47.1587467
  68.3548260  66.0174990  47.3002911   3.8039705   8.5309827  70.4843426
   3.2027647   7.8915197  70.8662701   3.8208982   8.3165169  69.5516300
  20.5454483  39.6652137   6.7243155  20.5405082  39.6880044   5.7673987
  19.7660818  40.1587813   6.9796761  51.4060934  15.3524395   8.7553127
  51.6613824  16.2042566   9.1095265  52.1433694  14.7772737   8.9598854
  58.9786482  32.1369243  48.4483099  59.4948244  31.7621326  47.7346420
  59.5982790  32.6849818  48.9298964  84.8686314  71.0599947  71.5110064
  84.5737934  70.4149246  72.1538019  85.8067131  70.8938980  71.4179468
  52.7560997  30.1796913  63.1576538  53.5110378  29.9296236  62.6249599
  52.9203510  31.0931063  63.3920240  61.9723480  69.8154925  32.9527481
  62.8223627  69.9208783  33.3800610  61.9846886  68.9209698  32.6122959
  38.8611307  80.4582166  20.4309471  38.2515897  79.7624921  20.6772240
  39.7105112  80.0213574  20.3681763  43.1891155  13.8414681  67.7436161
  42.8932619  14.1423047  68.6028004  42.4529839  14.0236092  67.1595240
  87.8659248  57.8846598  51.3724661  87.8344059  58.7822390  51.0414219
  86.9555378  57.6736593  51.5795851  14.6535322  10.3784800  62.2515345
  13.8362142   9.9007630  62.1101093  14.4555876  11.2761116  61.9845057
   2.9672071  37.7894855  42.3739100   3.2760736  36.8854928  42.4341679
   3.3055517  38.1027794  41.5351009  35.6674757  59.2843972  19.2832764
  36.2777033  58.6709939  19.6926602  35.1112451  58.7357317  18.7302788
  78.6911964   7.8936219  36.5005589  78.0881214   8.6236489  36.3605762
  79.1408110   8.1077504  37.3180103  52.4465520   5.0331398  16.4435681
  52.6338632   5.2837606  15.5389507  51.6481741   4.5082279  16.3862713
  86.4249516  21.3565922  39.3969440  86.2689304  22.2306085  39.0391970
  85.6343651  21.1586380  39.8989630  63.9421320  37.1778154  46.4978504
  63.8203716  37.2102642  47.4467230  64.4521666  37.9619694  46.2948704
  81.0638523  17.3925102  59.2391825  81.8888569  17.8001428  59.5026922
  80.5573368  18.1060445  58.8511896   3.2196273  67.6674103   8.3071907
   2.3047771  67.8246735   8.0736263   3.4604444  66.8816637   7.8164395
  44.9749620  11.8049188   0.1610287  44.6089132  12.2072836  -0.6265919
  44.9973161  12.5137897   0.8038624  38.4630132  15.0144291  54.6035385
  37.6871967  15.2345836  54.0879107  38.1993294  15.1685560  55.5107069
  75.8437014  25.6987000  37.0315051  76.0802746  26.3423705  36.3637066
  76.5297413  25.0334406  36.9766259  77.1225691  41.9956112  36.5972662
  77.1553850  42.0861626  37.5496078  77.5713730  42.7739286  36.2670660
  70.6245327  47.7071714  19.3705893  70.8463907  46.9203377  18.8726914
  71.4463091  48.1947994  19.4266117  24.8540136  30.6636763  69.2718554
  25.1923773  29.7682881  69.2766428  25.3051111  31.0940742  69.9981499
  74.9291515  35.8435082  66.6056061  74.5421314  36.4325118  67.2533083
  75.8712435  35.8962679  66.7665911  66.0932064  21.8097568  43.9708805
  66.3608885  20.9779167  44.3615484  66.4986706  21.8086147  43.1037998
  74.6946859   8.1638086  64.7773933  73.7837791   7.9987288  64.5340252
  74.6577072   8.9468288  65.3267050  10.9132883  65.2411890  52.1833849
  10.6661150  66.1512136  52.3476696  11.2794420  65.2483654  51.2990093
  13.1930883  22.4249931   4.7424133  13.0181510  21.8305727   4.0128334
  12.3260505  22.6612516   5.0720556  75.1274920  34.5085621  42.6735687
  74.5133543  35.1379633  43.0516195  75.4069424  34.9109244  41.8512297
  22.5860603  34.9230858  10.3457935  23.1154592  34.2633482   9.8977860
  21.9648035  34.4167038  10.8690937  80.2803135  16.0084975  42.3950672
  79.8280573  16.6412699  41.8371296  81.1195469  16.4228547  42.5956345
  74.4089842  17.4210191  59.4020748  74.0876961  18.1860852  58.9249182
  73.6164093  16.9627106  59.6813726  17.0232858  79.0461515   9.3772896
  16.2329282  78.5592293   9.1438873  17.7153148  78.3850883   9.3952759
  52.5390720  42.3747206  68.7926579  52.5640583  41.4288235  68.9371967
  53.4168386  42.6760912  69.0270185   6.3930723  36.9796824  17.6575959
   6.5118048  36.0916996  17.9946768   5.5188486  36.9730115  17.2678137
  10.4986992  76.4782809  29.0447243  11.2674846  77.0320033  29.1810520
  10.0200405  76.5250467  29.8723229  65.6118124  55.8198093  41.8978985
  64.6887820  56.0727178  41.8810280  66.0352271  56.4940857  42.4292286
  83.2052517  60.6298733  46.8687105  83.4673405  61.4791536  46.5133715
  82.8315258  60.1626444  46.1215448  56.4797592  66.6933632  47.0812702
  57.2909737  66.5905333  46.5836811  56.3553858  67.6404047  47.1435356
  58.2584231  68.2122492  10.5292805  57.3111194  68.2952307  10.6386288
  58.4128325  67.2685527  10.4864891  20.4836853  39.0701528   1.1459931
  20.2611406  38.4450670   1.8359001  19.9168499  38.8298174   0.4130800
  62.8869724   3.6071166  48.3954048  63.7767792   3.9160120  48.5658836
  62.6096725   4.0925336  47.6184177  71.1218596  35.4514933  39.2023444
  71.3306522  35.4542375  38.2681966  71.4025784  36.3122487  39.5130372
   6.9881555  43.0716705  49.3562508   6.1432573  43.5145712  49.4351530
   6.9281885  42.3319483  49.9607658  67.9597807  25.6467032  67.1014833
  67.0678139  25.5066586  66.7836475  67.9879332  26.5745664  67.3349524
  57.6489210  62.6885986  49.5532417  58.3029079  63.2936621  49.2033434
  56.9351244  63.2529640  49.8502588   9.1562135   3.4549900  13.0147942
   9.6791608   2.8850694  12.4509247   9.4280393   3.2270714  13.9038380
  75.1034069  41.0055065  40.3598499  75.3243208  40.6621122  39.4941092
  75.6926727  41.7502594  40.4796219  63.8618517  47.7258587  49.0222025
  64.5142555  48.4237719  48.9629126  63.6781836  47.6485968  49.9584341
  79.2944002  44.6378613  44.4197464  80.2159882  44.8045063  44.2219019
  79.2832088  43.7508202  44.7792721  41.2507112   5.5814644   3.6009796
  40.6810434   4.9100967   3.2255180  41.3582714   5.3202244   4.5155390
  70.3730733  36.9601579   9.2041023  70.9991987  36.6722770   8.5397823
  70.0776155  37.8179737   8.8990029  70.8130789   9.3788594  67.0964909
  70.4516840   8.5192442  66.8804264  70.5110979   9.9500394  66.3902378
  64.9338586  17.7584978  10.3910263  65.1963289  17.7155586   9.4715126
  65.2891023  16.9588562  10.7791050  67.4780369  27.1059465  20.8755994
  67.9707956  27.7572560  20.3763866  67.7296400  27.2613668  21.7859697
   2.8738901  59.1205072  63.6239052   2.4598047  59.4697762  62.8347445
   2.1464941  58.7836456  64.1470146   1.7615053  40.2369452  57.9495525
   1.6645929  40.6921721  58.7859774   1.0067961  39.6496797  57.9076338
  65.2446365  13.7885880  37.7543950  64.9799204  14.7046018  37.8385186
  65.1744413  13.6040354  36.8177819  86.8083763  15.2758181  34.9699521
  87.0895004  15.6999314  34.1591907  87.2796535  15.7423961  35.6602001
  33.5634334  16.9366070  11.5781410  33.6191518  17.5613447  12.3012074
  33.9233310  17.4074836  10.8264835  70.4589939  25.6535268  48.1858397
  71.1304379  25.8814240  47.5428295  69.6556664  26.0442710  47.8420162
  12.0074102   5.1971060  38.7928176  12.9058859   4.8715958  38.7377882
  11.8192121   5.5302787  37.9154301  86.1855333  66.3851546  10.0850113
  85.7636516  65.9777235  10.8414848  85.6716411  67.1759342   9.9212559
  82.3231506  20.9530878  55.9636259  83.2426548  21.2190509  55.9661198
  81.8504524  21.7281961  55.6603289  14.9099102  81.5372585  14.0947445
  14.6915140  81.3788294  15.0131329  15.6460752  80.9512233  13.9190777
  67.1808100  66.8111324  63.7748098  67.1291351  67.6449728  64.2420006
  67.3836422  66.1680937  64.4542170  83.1944656  31.1477375  32.3231697
  82.8842068  31.2754893  33.2196307  83.9971542  30.6350231  32.4183059
  67.2508867  15.1441141   0.3637369  67.0518644  14.4497009  -0.2642862
  68.1406648  15.4191728   0.1426800  47.0781469  12.1465218  44.1358089
  46.2389421  11.8681657  44.5025301  46.9130516  13.0283880  43.8022089
  74.1236305  32.4839187  48.7661695  75.0690842  32.6295352  48.7999678
  73.7858343  32.9213428  49.5477009  17.5572099  38.5490103   4.4659050
  16.7013874  38.9614202   4.5830114  17.4369373  37.6536651   4.7823246
  40.8744175  76.1168507  33.6330533  41.0094578  77.0255020  33.9020300
  40.1347334  75.8179066  34.1619539  71.9351578  33.3626580  15.5212355
  71.5457821  32.5058484  15.6958652  72.7838612  33.1639290  15.1257086
  68.4655714  42.7219629  54.1098261  69.2336035  43.1901550  53.7824821
  67.9238081  43.4015036  54.5110083  74.7239208  14.4520867  53.1300449
  74.4466877  13.6867583  52.6264143  74.2648888  15.1863480  52.7221441
  57.6486826  49.9079847  61.2445831  58.2570744  50.5511284  60.8806229
  58.0239058  49.0607357  61.0045624   3.8795301  48.3609104  42.4277401
   3.8988516  47.6527309  41.7840433   3.6536047  49.1401482  41.9198227
  64.4153738  61.9794703  66.2048674  65.3314543  61.7943668  65.9980583
  64.0444565  62.3006344  65.3829765  44.6444304  72.9869881  49.3510151
  44.3349821  73.8908914  49.4095802  45.3785641  73.0244091  48.7379217
   4.4193847  16.8753572  18.5017117   3.5886509  17.2814127  18.2542713
   4.1695983  16.1434360  19.0657433  88.1919670  37.1685100  68.6099291
  87.6378918  37.9487586  68.6307526  87.6087570  36.4537048  68.8651705
  64.2668247  29.9836445  52.9516125  63.3376884  29.8816061  52.7453947
  64.3993616  29.4458556  53.7322855  67.3498678  56.5399933  29.4152641
  66.8904543  55.7002544  29.4136477  66.8222141  57.1027708  28.8486123
  70.0688410  50.3722382  24.1424942  70.2040482  50.3836155  23.1949615
  69.8664951  49.4587612  24.3446112  24.1072199  38.8101244  32.4814820
  23.2073709  38.6431026  32.7618623  24.6483442  38.4096956  33.1619692
  68.8183641  44.7864771  66.1350346  69.5440722  44.5474339  66.7116070
  68.5220194  45.6357050  66.4624882  17.3421755  26.5488526  53.1780148
  17.4629345  25.9578320  52.4348211  16.5975084  27.0966718  52.9298449
  80.3073692  39.2281175  23.1292868  80.2451515  38.4538817  23.6886787
  79.4954824  39.2231607  22.6222825  18.2426855  51.9658470  47.7987003
  18.6739561  52.2284079  48.6119032  18.7318823  52.4180222  47.1113443
  40.0843103  39.1670461  19.0621861  40.1755769  39.9510332  18.5206516
  40.8734329  38.6568495  18.8799198  24.8085315  25.1195141  22.0419796
  24.9175270  24.3912931  22.6535710  25.6774719  25.2437969  21.6602429
  80.1130867  66.3923693  56.8597698  80.0698471  65.4473019  56.7141247
  79.2774391  66.7238474  56.5310526  30.8617973  74.2837048  71.1022758
  31.7615008  74.5116043  71.3364363  30.3646564  75.0881577  71.2504053
  76.6230345  80.4687214  63.5324574  77.1107006  81.2920856  63.5103416
  75.7409430  80.7050228  63.2455635  53.7289674  36.4178463   9.4108685
  53.5708005  37.2990986   9.7494133  54.5697553  36.4825769   8.9579876
  83.5720539  48.8417578  33.1112456  84.2641449  49.4461584  32.8430223
  82.8198338  49.4048357  33.2938552  49.8727512  58.0462599  40.2067995
  49.6169615  58.7810373  39.6492100  50.2996302  58.4544563  40.9600496
  49.4240570  59.2417049  60.4198980  50.3244638  59.4139671  60.6952620
  48.9655399  60.0685358  60.5693913  13.2347128  69.2873955  23.6563110
  14.1480085  69.0698862  23.8429141  12.7448675  68.5069323  23.9154553
  86.5994167  25.9803605  59.6198845  86.2673855  26.0212564  58.7230492
  86.0813522  26.6286755  60.0968838  76.2292249  24.3272205  25.9559162
  75.5339677  23.9435859  25.4214390  76.2586172  25.2455421  25.6874951
   6.8685457  43.7738419  69.7917747   6.2531301  43.8103151  69.0595436
   7.3247930  44.6148348  69.7633123  45.5379064  15.7062336  17.4910553
  45.0747354  15.6122204  18.3234413  44.8646219  15.5664201  16.8251904
  19.4384470  70.2470802  14.6693619  20.0776233  69.9316119  14.0304859
  18.8364973  70.7884454  14.1586598  81.8157728  27.7708240  14.9979218
  82.3528631  28.5492368  15.1457127  81.5086610  27.5226494  15.8698853
  79.5664263  35.3225708  53.1913185  80.1931286  35.6299400  52.5363398
  79.0157986  36.0844064  53.3720064  65.9860628  69.5955943   1.2783774
  66.0640734  70.5165743   1.0294970  66.4309805  69.1195010   0.5772217
  22.5656564  20.3804060   8.0277165  22.6398714  20.4641338   7.0770796
  21.8435676  19.7657915   8.1583794  52.6077230  20.2183958  17.2714909
  52.0214136  20.5753799  16.6043766  53.3710249  20.7956978  17.2532280
   9.4439050  39.3101311  36.2660170   9.3438741  38.3589983  36.2263680
   8.5483000  39.6429443  36.3239932  81.7017174  64.1385269  71.6698408
  81.3465977  63.8743877  72.5185728  82.4348354  63.5414410  71.5206385
  46.9203670   9.9284883   7.9795082  46.8677862   9.7737737   8.9226635
  47.1200378   9.0697809   7.6066979  87.2746046   3.5397049   9.3688496
  87.2312887   3.9722915  10.2216252  87.7646215   2.7341123   9.5335491
  41.2279150  32.5078511  69.2327547  42.0383188  32.9083562  68.9179802
  40.8761236  33.1399345  69.8596048  83.1714153  17.4034512  49.4942141
  83.6532116  16.5836155  49.6036291  82.2947693  17.1316433  49.2224741
  80.7792282  56.1409092  70.2701616  81.5373421  56.4896870  69.8012829
  80.5458069  56.8288612  70.8934355  12.8621408  40.2081108  67.5174284
  12.7854273  40.0600672  66.5748644  12.3312780  40.9875488  67.6814365
  46.9480324  47.7616262  68.8452387  47.6669979  48.1805992  69.3182945
  47.2735023  47.6665926  67.9501057  63.5790873  49.7470045  44.5946074
  64.3366003  50.3318024  44.5741320  63.1029797  49.9993944  45.3857136
  80.4276371  71.2976027  58.3644009  80.8156586  71.1473560  57.5023699
  79.6356106  70.7600880  58.3675241  44.0353002  13.5320374  49.0323448
  44.6306696  13.9311978  49.6667242  43.5549822  14.2701814  48.6572790
  10.9782972   3.3994100  32.4469686  11.6617336   3.7416837  33.0231571
  10.4598512   2.8217980  33.0071497  77.3662567  48.0414057  44.0884399
  77.2108173  47.1218824  44.3041801  77.7529526  48.4115410  44.8819780
   8.9513244  75.0647687   7.2038134   8.4948101  74.4092273   6.6764649
   9.7047414  75.3186344   6.6707571  13.7583658  54.5013046  55.8699942
  13.9950964  55.1046848  56.5743542  12.8236028  54.6520424  55.7295465
  82.7897930  48.9157343  55.0983000  83.6078835  49.1765213  55.5213356
  82.4017811  49.7382307  54.7996855  33.8982780  29.9820038   2.9254397
  34.0623291  30.7814308   2.4251993  33.9307983  29.2811199   2.2743328
  69.7480154  54.8444319  63.4679127  70.3086185  55.0959110  64.2018843
  70.0110483  55.4266882  62.7551556  64.8038435  58.5144424  57.4726057
  65.2020264  59.1998243  58.0092096  64.4870472  58.9731789  56.6945124
  38.6832149   7.4486967  15.9692963  38.9448984   6.6391226  16.4078720
  37.7456148   7.5247379  16.1463555  66.0807848  78.9389706  35.5575657
  67.0234060  78.8975668  35.3963709  65.8998060  79.8706007  35.6822300
  28.0529424  76.6062403  62.9540348  27.3111078  76.8868685  63.4899139
  28.0764219  75.6548738  63.0569220  52.3415422  52.8823090  64.6761751
  53.0055428  53.4788227  65.0218773  52.8263426  52.0877361  64.4528866
  31.1544122  69.2011927  15.9484680  31.8487730  68.5454463  15.8844956
  30.7547750  69.2124938  15.0787647  83.7224770  63.5672283  56.6989183
  83.6460209  63.1802368  55.8267832  83.4301662  62.8766775  57.2938347
  56.6481304  60.9393930  30.3324890  55.9825182  60.6411409  30.9523582
  56.4948177  61.8807077  30.2509308  82.5471020  72.6158047  70.8430958
  83.0122566  71.7855024  70.9453535  82.4360943  72.7132607  69.8973656
  73.9441395  49.6719360  68.7208080  73.9987612  50.2377415  69.4909477
  73.0337858  49.7448254  68.4341383  62.9491949  58.4059572  63.4456778
  63.3898497  57.6068735  63.7346792  62.1752357  58.4684992  64.0054131
  73.0478954  45.8403778  16.2373185  74.0025234  45.7705069  16.2430370
  72.8717995  46.6811037  15.8149469  45.5503566   9.4803043  28.4088619
  46.0353143   9.1969677  27.6337631  45.7894046  10.4007574  28.5177334
  28.0513021  52.8473759  31.4179707  27.2546026  52.5857115  31.8795300
  27.9444715  52.4922371  30.5355334  84.2063332  45.1695204  34.7932625
  84.5737839  45.3567886  33.9294696  84.0254784  44.2296839  34.7779870
  74.5509815  78.5105371  22.4159765  75.3647280  79.0081501  22.3358011
  74.1563320  78.5548544  21.5450454  40.9532728  12.7363965  64.1810417
  40.2865781  13.1380555  64.7381973  40.5650129  11.9068143  63.9030266
  30.3682443  31.1943293  19.1518688  29.8663255  30.7358027  18.4780240
  30.0312731  32.0900679  19.1335726  58.1015253  15.4470479  53.5603285
  57.9426861  14.9227715  54.3452740  57.4006224  15.1959658  52.9587269
  24.5961973  68.8665819  36.7095590  24.6661588  69.4614029  37.4562311
  25.4992410  68.6107016  36.5217423  14.0234682  43.1600571  64.2478180
  13.1813928  43.5817432  64.4190454  14.6249697  43.5633898  64.8737144
  33.2989223  10.7711311   8.5061653  33.6426313   9.8911901   8.3518894
  33.6854751  11.0363479   9.3407066  27.4185140  29.3878504  25.5762299
  27.3162324  30.3223367  25.7565411  27.3857219  28.9726396  26.4380654
  66.6782284  76.4532900  24.7322226  67.4094677  76.2129354  25.3012133
  65.9073591  76.0861397  25.1648855  59.7325516  52.5151873  64.3048334
  60.3119230  51.8135929  64.0076399  59.8554850  53.2151175  63.6635685
   5.8076021  23.2162452  71.6232777   5.8642408  22.4006343  71.1254835
   6.6966841  23.5704136  71.6046953  85.1486588  15.5708909  49.4030523
  85.7702541  15.1432967  49.9921370  85.6515980  16.2755036  48.9946318
   7.8454229  46.7166948  40.0073576   8.5815069  46.7044973  40.6191254
   7.5357363  45.8112001  39.9871778  79.8093510  27.6518559  52.1501446
  79.1184282  28.1323195  52.6062250  80.2078724  28.2995629  51.5688610
  46.9018419   2.1982046  14.2667778  46.0589321   2.1747251  14.7197540
  47.2171552   3.0930086  14.3937786  49.5684583  11.5794321  28.8609799
  50.5011470  11.3818212  28.9462288  49.4976718  12.5054594  29.0926941
  86.3265388  46.7585670  15.9046276  85.5351227  46.4326223  15.4760845
  87.0256584  46.1908956  15.5802639  10.9042951  25.9182000  67.2848082
  10.0642034  25.8056021  66.8400717  10.9831354  26.8636274  67.4120283
  83.9997768  49.5147610  58.7591028  83.2958221  50.0291348  58.3640146
  83.6722279  48.6153746  58.7520504  85.5714035  24.3855143  48.8482094
  84.7781086  24.6828079  49.2937899  86.2584114  24.9714708  49.1658545
  15.3603575  56.7677546  62.8079414  16.2652132  56.4831448  62.6795864
  15.4012319  57.7230692  62.7639580  78.9688730  26.8322945  64.9684334
  78.7347555  27.7604198  64.9666071  78.9960194  26.5903020  64.0427256
  78.3712101  38.3197331  60.4658985  79.2699671  38.0296087  60.6217623
  78.2279968  38.1647205  59.5322561  72.4870968  14.5819879  69.4404030
  71.7509127  14.9759924  69.9083996  73.0145168  15.3272009  69.1527939
  83.6692810  52.7688980  42.7498436  83.5221195  53.6856651  42.5172329
  83.4908390  52.2854996  41.9431734  74.6821976  28.0790472  59.0787745
  74.3347216  27.8022242  59.9266291  75.0676203  28.9389062  59.2470694
   5.4164621  74.7704983  28.6041212   6.2942907  74.7791815  28.2225752
   4.8426172  75.0507927  27.8911209  76.4910841  26.1892843  57.7357197
  76.0232306  26.7660093  58.3396482  77.2969007  25.9604502  58.1988811
   8.4025595  23.5896969  57.5478983   7.7542040  23.5603690  56.8443298
   8.2519457  24.4317341  57.9774523  84.3832874  28.1474376  64.3485022
  84.6503067  28.9581037  64.7818089  84.9393368  28.0970550  63.5710096
  87.9536533  75.8445168  39.8369169  87.3937702  76.4173794  39.3128991
  88.4468555  75.3368711  39.1925001   6.5099325  14.5997807  48.6152983
   5.8426275  15.2846333  48.5716772   6.6893472  14.4993875  49.5501566
  62.3870182  63.2876015  61.3025188  62.7511883  62.4045372  61.2408400
  62.7077579  63.6209631  62.1405125  74.9687338  40.7203341  58.8664341
  74.7008085  41.2323809  58.1033754  74.9724007  39.8143244  58.5576200
  30.5160148  29.8125692   9.5688828  30.3059251  30.0428529  10.4739006
  31.3976295  30.1593252   9.4319828  21.3932726  73.9304876   9.9287111
  21.7635938  73.7444782  10.7915497  22.1490309  73.9434814   9.3414390
  85.0130422  40.3418489   6.2057264  85.0517137  40.4744097   5.2585371
  85.5846269  41.0198923   6.5659960  47.5800808   6.1497923  10.0783165
  46.7239721   5.7253071  10.0224884  48.1145675   5.5443569  10.5921276
  60.4842527  45.6496282   1.9420584  60.9561784  44.9727770   2.4272402
  61.0980566  45.9295507   1.2630041   3.5316011  59.2684984  51.1510658
   3.4357473  59.1829872  52.0996046   3.5006925  60.2117634  50.9912777
  78.5504150  52.8009653  18.9768350  79.3978834  52.5736761  19.3594205
  77.9109287  52.3419094  19.5214033  57.9457338  18.1259056   4.9735125
  58.7771661  17.6728912   5.1139982  57.5960023  18.2631393   5.8539017
  81.9492626  50.1010227  50.0621510  82.5054169  49.5581579  49.5033789
  82.5046349  50.8416176  50.3057003  44.9859419  25.0145814  66.2081432
  45.2829256  25.6713483  65.5783129  45.4947462  25.1937291  66.9988728
  50.4505968  51.6274643  62.9525995  50.5493498  51.9514656  63.8478661
  51.3443232  51.5884304  62.6120615  69.2626762  81.0103035  71.3217974
  69.2183018  80.4863453  72.1216345  69.8555708  80.5236053  70.7492304
  86.9376087  62.0728874  41.8245983  87.8828239  62.2233725  41.8368340
  86.6113281  62.6546144  41.1380339  47.8587873  10.3868480  18.0736740
  47.7880628  10.6941410  18.9774426  47.8331907   9.4324680  18.1425007
   5.7775232  40.0689030  42.1571732   5.0814840  39.6258187  41.6719580
   5.3175470  40.5779028  42.8246880  11.7382963   3.1036993  20.6730183
  11.1152656   3.8097664  20.5011471  11.5191753   2.4291702  20.0301941
  45.5135257   1.4086385   5.5542715  46.2581213   0.8089777   5.6013497
  45.8438976   2.2297855   5.9186896  66.8995762  81.5719700  69.1277790
  67.2137594  81.6294098  70.0301218  66.6633749  82.4708462  68.8987255
  27.9670610   1.7789266  60.1140928  28.6228742   1.0928628  59.9897480
  27.1646871   1.4136693  59.7412634   6.2751369  28.4516712  25.5578144
   5.3547458  28.3576437  25.3123291   6.6882686  27.6441522  25.2520950
  64.5498807  12.3175712  35.1608379  63.9644487  11.7886921  34.6188172
  65.3412683  11.7861458  35.2475746  72.8681660  64.4410038  35.6878161
  72.2330618  64.2128420  36.3666511  73.6233997  63.8813782  35.8685756
  55.8086736  26.2263437   7.1236380  54.8942144  26.2133499   7.4061831
  56.1801775  25.4182430   7.4774607  58.9227438  49.5858955  56.9046831
  58.5609818  48.7658215  56.5687799  59.8703623  49.4835329  56.8165493
   3.9260521  16.5454289  45.3117371   3.5196867  16.8984220  46.1032486
   3.9261665  17.2778699  44.6954966  69.1367586  31.9186350  23.9393242
  68.6177309  32.3233839  24.6343239  68.5097845  31.3832517  23.4530171
  80.6161976  62.0188951  67.6927090  79.8328018  61.9502163  67.1469975
  80.2803516  62.1758509  68.5752058  13.2649538  59.7289610  63.3633852
  12.9580995  58.8686466  63.0771351  12.5175115  60.1082182  63.8256931
  51.6980791  63.7913990  49.4138527  52.0055485  63.2342863  48.6987877
  50.7687044  63.9270020  49.2291975  19.9116714  18.9958282  19.5481976
  20.3702838  19.7472378  19.1723164  19.0231807  19.0575500  19.1974648
  37.1116025  11.6807981  20.9636982  36.6183860  12.3047062  21.4963444
  37.5483472  11.1150261  21.6004093  27.2460005  39.0776658  26.6031075
  27.9595014  38.9058614  27.2176218  27.6301214  38.9214993  25.7403803
  54.2270715  11.6226669   7.7750071  53.7753065  11.6645904   6.9321640
  53.9866502  12.4372812   8.2164009  36.1109979   7.9342600  17.2666939
  35.2622898   8.2738205  16.9827564  35.8953245   7.1905323  17.8293617
  76.9989729  70.5570078  52.0570898  76.4803553  69.8519945  52.4446869
  77.5428295  70.8776617  52.7765560   2.7048322  33.5299397  70.2769232
   2.4797365  34.2068315  69.6386576   2.7998373  32.7321744  69.7565603
  15.3899786  40.7292318  26.8306112  14.4847700  41.0222578  26.7259383
  15.7910940  40.8802271  25.9747267  82.7909565  53.7452507  50.0660515
  82.7302265  54.6188450  50.4525518  82.8120708  53.1520557  50.8169889
  74.2431927  36.0329771  63.6024570  74.2218018  36.2074232  64.5433855
  75.0552320  36.4408255  63.3016491  77.9353905  67.6000071  62.8193283
  77.8899002  68.1841660  63.5762453  77.2979259  67.9582596  62.2016525
  30.4925241  11.4336106  53.3178616  30.4144563  10.8323571  54.0585566
  29.6267690  11.8349454  53.2428789  77.7010489  78.2266188  18.6210108
  78.4803581  77.7405596  18.8905680  76.9768572  77.6178169  18.7664163
   8.7522718  24.3914366  40.5391264   8.1170198  24.1307187  41.2059879
   9.5474455  23.9083195  40.7639360   3.6179563  39.3621731  33.6254954
   4.4917032  39.7423053  33.5344195   3.2840845  39.7232389  34.4467115
  79.4148445  46.7575502  36.4993024  80.3451920  46.5324593  36.4946437
  79.3970823  47.7054167  36.3671589  85.2717989  82.3451852   1.1794241
  85.4406994  82.8201674   1.9931133  86.1210554  82.3152398   0.7388647
  20.8814485   9.6290298  31.4486416  20.2451522  10.3301616  31.3080128
  21.4739473   9.6894594  30.6992920   7.3069307  23.9000344  34.3948698
   7.3586771  23.0789423  34.8841166   7.9466841  23.7995625  33.6899900
  84.5883751  69.2307472  40.0388813  85.1765633  69.6678782  39.4230986
  84.9009895  69.5016384  40.9020853  64.2951345  45.8423901  53.4128571
  64.4329739  45.5375385  54.3096828  64.7426748  45.1947832  52.8682995
  67.1464825  49.0964603  59.7157860  67.9408789  49.0264845  60.2451897
  67.2623968  48.4463501  59.0228605  19.1268560  63.9662313  26.8979073
  19.7997495  63.2860279  26.9256783  19.1024992  64.2417717  25.9815478
  12.3667547  66.9709492  64.2328548  12.0105860  66.3919687  64.9067640
  12.0277139  67.8373575  64.4578362  51.1486871  52.8983732  25.5416592
  50.8832891  53.8160940  25.6015213  51.7744596  52.7828832  26.2567146
  86.4651299  71.8410873  60.8345175  86.8707371  72.2056103  61.6211796
  85.5284309  71.9984388  60.9531403  67.2572374  38.9022517  47.7652311
  66.3602924  38.9252758  48.0986929  67.1632338  39.0024376  46.8179417
  29.6310064  35.2000213  70.3538132  28.8290617  35.6391025  70.6372452
  29.6371385  34.3753886  70.8397913  48.2422113  63.4289742  69.7717428
  47.8450918  64.0084743  69.1215849  48.5640097  62.6841307  69.2639160
  26.7304761  22.5136514  18.4830673  25.9878213  22.5412603  19.0863331
  26.5770013  23.2416101  17.8807839   6.6174242  42.5722551  16.5914416
   6.7808649  41.6334963  16.6822934   6.9957372  42.8001499  15.7422209
  44.2633238  73.9133428   3.0617102  44.9258222  73.4418963   2.5566776
  44.4438638  74.8375081   2.8897961  64.6714830  26.8031955  56.9708061
  65.3695965  26.6288757  57.6020575  64.6929932  26.0530138  56.3766670
  27.2007742   5.6126019  54.5984507  27.8605737   5.5345342  53.9093971
  27.1341982   6.5535829  54.7608089  71.5649986  36.9722867  49.5409822
  71.1419535  36.3607597  48.9382410  71.8589306  36.4256215  50.2696800
   5.2624532  47.4478817  60.7903767   5.0773165  47.0674801  59.9317408
   6.1717245  47.2072363  60.9679508  25.6305416  -0.1726822  11.8350132
  25.2340038   0.5138727  11.2986954  25.6375177   0.1895281  12.7210053
  58.7089052   1.3964078  54.7201443  59.5787038   1.6796109  55.0020504
  58.8524618   0.5340955  54.3302202  82.2256048  24.2562385   5.8080204
  82.0481737  24.3623014   6.7426355  82.1618040  25.1417156   5.4501255
  51.8337965  64.1907930  46.0249424  52.0232582  64.8458195  45.3531694
  52.6196337  63.6451387  46.0557938  47.4339581  47.4719095  66.2314987
  47.2008610  47.4031830  65.3056622  48.2028437  48.0419159  66.2432337
   7.6826307  52.2221661  54.2104912   8.1243059  52.8799534  54.7475863
   6.7760679  52.5249147  54.1583586  64.8804719  18.6704202  13.2624157
  64.5943410  18.4053179  12.3882969  65.7952268  18.9276930  13.1472214
  17.7382108  36.3723731  42.9181576  18.0921957  35.5749726  43.3119535
  16.7886183  36.2682152  42.9786587  22.4616439  30.6839700  34.2182644
  21.8723877  31.4137359  34.4091900  22.5345810  30.2117201  35.0476559
  71.9190359  53.5181475  61.7028809  71.5753174  52.7235985  61.2944889
  71.3979578  54.2264652  61.3247395  33.5293682  18.1756254  16.7567833
  33.8529594  17.3003526  16.9699009  33.3788211  18.1518074  15.8117970
  84.2710304  23.5015941  33.1165862  84.8098564  23.8779187  32.4206877
  83.8942432  24.2592645  33.5640240  17.0015165  34.0696526  29.1695786
  17.6885530  34.7309542  29.0866041  16.8077394  33.8112307  28.2685232
  11.8918344  49.5118523  62.2296953  11.6881105  49.5778799  63.1626272
  11.3768694  48.7649727  61.9243622  68.2197530  61.3122602  23.2604702
  68.6161764  62.1746393  23.1364544  67.4059732  61.4884039  23.7326534
  68.1518364  28.5763693  67.8969860  68.4488010  29.1991353  68.5604668
  68.3418369  29.0060997  67.0630407   4.0084478  38.9268017  56.3658667
   3.5636064  39.7255230  56.6493988   4.9222776  39.1885900  56.2535238
   7.7550241  52.0008469  28.6629987   8.6265871  51.6194773  28.5573602
   7.4150869  51.6030836  29.4645357  59.2488146   5.5787128  60.4693556
  59.2791080   6.3395500  59.8893213  58.5463333   5.0343215  60.1138401
  86.6703033  81.8438053  70.5690622  87.2399998  82.1037483  71.2930155
  87.2651672  81.4722061  69.9176931  67.5946999  69.0901709  49.3912125
  68.4115314  69.4820833  49.0822983  67.1545410  69.7959471  49.8648930
  54.2841108  20.9769197   3.5540445  53.6597974  21.5423389   3.0993279
  55.0116689  20.8806034   2.9395445  62.0771265  45.7893467  66.0320616
  61.7933655  45.4247665  65.1937389  62.2283077  46.7170143  65.8509302
  53.7490988  33.2274270  51.9298506  52.8006983  33.1050873  51.8873978
  54.1019487  32.5766015  51.3230944  87.3817062  56.5295124  27.2035313
  88.1693363  57.0570374  27.3361182  86.6579914  57.1364450  27.3588085
   1.7920760   4.5579191  20.8148106   2.3443107   5.3348156  20.9025772
   1.0364703   4.7366806  21.3745697  54.8201370  28.9116549  61.6184616
  55.3508806  29.4347501  61.0177040  54.4235516  28.2393980  61.0643625
   8.8047048  61.2641335  65.6804562   8.3225366  61.2431955  64.8538399
   9.6340009  60.8278513  65.4851198  64.8913717  42.1687937  51.8770981
  65.7386065  41.7335844  51.9720173  65.1096344  43.0907536  51.7407799
  77.8444862  42.8257227  48.2983494  78.3199549  42.0110178  48.1358004
  78.5195160  43.4462404  48.5731602  25.7541187   1.6977878  29.3841656
  25.1207216   1.9875904  30.0407131  25.7315500   2.3792835  28.7123879
  13.6435530  29.3867183  56.0570002  12.7236864  29.1303325  56.1229801
  13.6762926  30.2624989  56.4419270   6.3438341  37.5489545  71.3952494
   5.5599806  37.9624701  71.0335827   6.0625288  37.2016001  72.2416782
  76.2321663  67.9952669  68.4183836  77.0174694  68.4194613  68.7642002
  76.1977816  68.2663393  67.5010109  54.6284008  58.0504274  68.9486885
  54.7801208  57.4974585  68.1822443  53.7248039  57.8638792  69.2035341
  58.3021116  82.9859161  47.3158312  59.0345001  82.3915482  47.1528530
  57.9871464  83.2227230  46.4435053  52.6034594  49.8106146  64.5539856
  52.1974087  49.7476339  65.4185057  53.5429430  49.7454357  64.7253132
  22.4041643   2.1773335  50.1603222  22.8274908   2.4554822  49.3481207
  23.1087007   1.7836472  50.6749821  71.1040647  23.8252731   2.6779421
  70.1924474  24.1164919   2.6972063  71.0496576  22.8706547   2.6334818
   0.1831266  80.9040260  68.6794615   0.1667616  80.4905319  67.8163385
   0.8261701  80.3974628  69.1755676  64.2175293  70.4412603  22.7990270
  63.5144806  69.8837376  22.4656701  63.9272308  71.3330507  22.6075387
  71.7840290  82.1444988  37.5556898  71.7907953  82.7994442  38.2537103
  71.2367821  82.5295734  36.8712401  55.7421293  61.5784096  22.4905117
  56.0068788  62.3770999  22.9468449  54.8284616  61.7317485  22.2498234
   3.6783733   0.5495164  25.0924706   2.8948393   1.0879704  24.9812317
   3.5468425  -0.1901820  24.4993711  40.4541673  71.8999361   3.9239939
  39.5311536  72.0928048   3.7594422  40.8915224  72.7488993   3.8590677
  35.0160970  13.7358663  66.3860130  34.2967310  13.1061456  66.4330435
  34.6743097  14.5221517  66.8116474  13.1581327  58.6690760  41.4226770
  13.9850733  58.2899141  41.1249304  13.2121012  58.6412859  42.3779488
   5.9237692  62.2510433  49.1779613   5.3971502  61.7934370  48.5225916
   6.7793867  61.8237257  49.1386271   5.0625917  10.5113196  50.9530067
   5.4144022   9.7859883  51.4690971   5.5716917  11.2725353  51.2315607
  12.9680082  76.6854525  48.8950062  13.0736658  77.6283741  48.7686491
  12.0695516  76.5851402  49.2095661  83.0463655  35.6279560  10.4686936
  82.3312719  36.2639662  10.4880150  83.2923563  35.5721136   9.5453365
  51.8663271  22.1909471   2.3959025  51.2831934  22.6618000   2.9912861
  51.7533071  21.2694450   2.6289042  16.3614675  57.3510551  36.2360787
  16.2882730  56.6792917  36.9140244  16.7920515  58.0860424  36.6726828
  34.9626817  37.0125386  67.5148010  34.2492380  36.5532109  67.0718098
  34.6404066  37.9072568  67.6236534  65.0749969  50.8261395  68.4609604
  64.4550514  50.2379656  68.0297470  65.8263969  50.8580446  67.8688431
   3.4708902  74.0412426  50.5399609   2.9835722  73.2660437  50.2610016
   3.8251612  73.8057184  51.3974285  76.5281630  69.6708155  46.7322874
  76.4095640  68.8524294  46.2501955  76.9841480  69.4129467  47.5334167
  51.6474809   4.7420308  52.9124022  51.8316259   5.3949735  52.2371340
  52.4448099   4.2144868  52.9592514   5.7857343  40.1595545  47.7620173
   5.8069155  39.7423911  48.6232758   4.8655817  40.1231384  47.5008202
  17.7239534  62.4731207  38.2498837  17.6962206  63.3903503  37.9775691
  16.9211504  62.0929909  37.8931737  41.9250162   1.2084623   0.8917339
  41.9834096   2.0938822   0.5327757  41.4960010   1.3216730   1.7398842
  76.6256101  12.2262092  47.2571285  75.8192785  11.7120691  47.2986611
  77.2331293  11.6791244  46.7592819  15.3425874  29.7814843  36.0150981
  15.4429617  29.5407960  36.9360900  14.9616899  29.0050885  35.6047845
  82.4552155  62.3576975  42.7179003  81.8729496  61.6236258  42.9137135
  81.8693638  63.1080437  42.6179314  70.6304884  52.2370577  55.9689569
  70.4640007  51.3314342  56.2304258  71.5801048  52.2836399  55.8581209
   7.6216432  64.1674137  56.7610884   8.0289480  63.4543705  57.2529316
   7.8471014  63.9880705  55.8482695  77.5060892  52.3006248  52.8883171
  77.8620148  53.1637287  53.0994892  77.2061396  52.3802376  51.9828224
  12.9654483  17.4698110  10.0085934  13.5728626  18.0916878   9.6079167
  12.2321014  18.0086656  10.3053864  30.5283567  62.4015903  37.2510076
  30.5531046  62.7211142  36.3490510  29.5957586  62.3374319  37.4568653
  55.8680201  65.3691864  34.8071003  55.5878925  64.8006248  35.5243826
  55.4776716  64.9784565  34.0253139  82.1473503  69.4802570  71.5623713
  81.3272381  69.9494600  71.7156076  82.4928474  69.3093872  72.4385357
  53.4420824  69.8600769  66.2308216  53.5441446  70.6512785  65.7018471
  53.0746078  70.1708889  67.0582199  57.0678289   6.5540643  18.5503109
  57.5617750   7.3595234  18.7035568  56.7225702   6.3173767  19.4111260
  66.4755583  60.0108910  21.4768839  67.2007942  60.3799486  21.9809318
  66.1260271  60.7521009  20.9822512  72.1139812  68.9327669  64.0426493
  71.8211269  68.0563307  63.7930012  71.3847637  69.5056105  63.8053274
  13.1979313   0.3889462  32.0454288  13.3799972   1.3282010  32.0155931
  14.0553608  -0.0173286  32.1718645  30.0329294  82.5597571   8.8662632
  30.9394922  82.6282548   8.5667999  30.0952806  82.5633858   9.8214253
  71.8184717   5.4199262   0.1450499  71.3345106   5.9286066  -0.5055324
  72.0979364   6.0654255   0.7942541  24.1529567  57.0742746  15.8092411
  24.3324430  57.9970308  15.9895905  23.4860427  56.8301149  16.4509876
  26.5287771   7.9972646  57.1608591  26.7482652   8.8338754  57.5709009
  26.7607584   8.1139276  56.2395525  85.0836754  79.8138618   9.3004173
  84.3077946  79.7658014   8.7419045  85.3946590  80.7137108   9.2014557
  16.1981985  64.0785551  62.6331711  15.3655359  63.6716557  62.3937225
  16.8347666  63.3650398  62.5894833  38.0662687  26.3418384   7.5086077
  37.4528320  25.7148786   7.8918083  37.5409992  26.8374916   6.8803986
   6.5429136  59.2376995  55.2123308   6.2822649  59.4983816  56.0957003
   7.4460813  58.9355898  55.3084469   6.3864633  76.1299706  50.0709820
   6.9932100  75.5980396  50.5858994   6.7538187  77.0132065  50.1053095
  12.9951324  76.3434933   7.7709587  13.4512701  75.6053017   7.3669298
  12.2206535  75.9535931   8.1764038  76.7299414  61.6454554  68.3784246
  76.4873171  62.3113155  69.0218544  76.8092871  62.1262026  67.5545216
  30.9775209  31.7977309  13.6431670  31.0480213  31.2699103  14.4385719
  31.3660574  32.6400185  13.8794303  71.5796947  27.3660827  53.7796068
  72.1414137  26.7779374  54.2843723  70.8877134  26.8006206  53.4366035
  25.9835751  79.2000103  61.9977856  26.7964155  79.6349743  62.2553349
  26.2080032  78.7285453  61.1955500  47.5458796  60.9176543  57.9872799
  48.2574541  61.0130265  57.3541975  47.1647293  60.0615933  57.7920437
  37.9560549  79.9270907  11.5339649  37.6107103  80.3792599  10.7642174
  38.8291485  79.6370569  11.2697220  61.0971498  30.0329399  54.6124458
  60.8258343  29.5792389  53.8144636  61.4975023  29.3507504  55.1514912
  56.7756701  29.9457979  67.1335268  56.0671473  30.4552150  66.7401743
  56.6342402  29.0539193  66.8160629  58.7545998  67.1327844  45.9249163
  59.6737797  66.8658271  45.9335756  58.7527306  67.9984167  46.3334608
  54.0966558   6.3590050  54.0026474  53.6823750   7.1813983  54.2639351
  54.0836811   6.3777280  53.0457163  24.8724508  29.9334979  38.4596014
  24.1789627  29.9885464  39.1170788  25.6188869  30.3784275  38.8609743
  25.0033505  77.3046145  67.1068907  25.1946814  78.1832513  67.4349499
  24.0517408  77.2259149  67.1738243   1.3725986  70.4794954   0.8919438
   0.5308237  70.3385447   0.4586037   1.6739120  69.6004628   1.1216076
  79.9480860  52.5465183  63.9227460  80.3138630  52.5047080  64.8063127
  80.0328581  51.6545371  63.5859726  35.8933043  37.5305319  26.1173940
  36.0798717  36.6270399  26.3725877  35.4272079  37.8998852  26.8674374
  33.1875539   6.3743269  40.3005028  33.4042358   7.1949118  39.8578715
  33.0199718   6.6286743  41.2079477   5.3224510  10.3077686  29.6012306
   5.5556166  10.2089322  30.5243230   6.1082542  10.0385511  29.1255569
  41.3572741   2.2063641  52.8317070  40.7937098   2.1332334  52.0614576
  40.7638550   2.4568988  53.5397434  24.5158839  13.1121433  69.7015953
  23.8213754  13.3664036  69.0939426  24.6335578  12.1740770  69.5518732
  12.8229172  81.4444102  26.7906928  12.3198731  82.1296728  27.2306848
  13.7239916  81.7673024  26.7969513  15.5134327  72.6816919  39.3592167
  14.8912508  73.2567778  39.8046374  16.2060959  72.5337294  40.0030804
  48.1323862  33.0561304  52.4933481  47.8035641  32.5811386  51.7301416
  47.9220438  33.9725518  52.3140192  48.3853960  22.8965783  16.1223578
  48.0476570  23.7446833  16.4102483  47.6034737  22.3629189  15.9808183
  45.2720308  11.5862513  64.4798470  45.3035307  12.2694075  65.1495790
  44.5921040  11.8775761  63.8723421  57.6095486   4.7698021  40.6266451
  57.5496292   5.5603456  41.1630058  57.3146439   4.0656620  41.2040949
  63.4653282  44.2514324  70.6359863  62.5508595  44.2224646  70.3546619
  63.9667892  44.2535067  69.8206520  63.8594151   0.3610469  46.5262032
  63.9857912   0.3111986  47.4737120  64.5757771  -0.1585215  46.1613607
  48.8021977  77.9018685  35.0390506  49.0915329  78.7930286  34.8432183
  48.5580380  77.5369671  34.1884851  23.0611784  73.8849553  69.1858435
  23.5074551  73.2413605  69.7361660  23.3404810  73.6732122  68.2951212
  59.6704817  12.6273859  50.0897980  59.0887260  13.2443225  49.6457481
  60.5056715  12.7123487  49.6299410  62.1748257  22.8911400  55.9143353
  62.8729916  23.5459423  55.9091759  62.2843409  22.4177504  55.0896311
  41.6869974  15.3947008  44.7715425  40.8327770  15.6802642  45.0955629
  41.6743851  15.6118309  43.8393784  73.9697283  46.1323779   0.2303560
  73.4451788  45.4656433  -0.2129785  74.6332281  45.6357690   0.7092960
  43.2295895  11.7384553  47.2248363  42.3139381  11.5988743  47.4663591
  43.5548067  12.3654008  47.8709030  58.4144592  18.3573985  34.7930503
  58.8806248  18.4059036  35.6276584  57.9173279  19.1741669  34.7485614
  45.3503799  16.5353084  50.6594181  45.0786304  17.4516380  50.7116127
  45.4597521  16.3708985  49.7228098   4.0353700  28.7032413  36.8373823
   4.5548078  29.3391085  36.3453579   4.6434233  27.9867077  37.0192623
  84.7422028  34.0627623  58.2967663  84.5738792  33.7202120  59.1745806
  85.4150200  33.4837127  57.9386473  86.0052330  68.8165525  33.2363963
  85.9803898  69.1910270  32.3558378  86.5365059  68.0255452  33.1453753
  64.3000174  47.7733707  69.0559149  63.7559175  47.9258871  69.8285246
  63.8042736  48.1594706  68.3338404  18.0103791  54.3251610  10.1902139
  18.8608754  54.0783310   9.8269486  18.0322635  55.2815580  10.2227056
  27.2877056  65.4301956  31.8034959  27.4456055  64.4912317  31.9017148
  27.5668461  65.8085158  32.6372743  19.4436777  27.1570992  43.5050201
  19.9905121  27.9370189  43.5995054  19.0226603  27.0549345  44.3585682
  44.1147263  73.4756407  28.6998963  43.6702473  72.7401081  28.2783985
  44.4404347  73.1173459  29.5255923  13.6255407  31.5168619  64.5612478
  13.4115684  32.3602295  64.9602175  12.7815926  31.1646461  64.2785358
   9.4581872  33.3447647  18.2876396  10.0821221  33.1144667  18.9760447
   8.9202088  32.5604272  18.1798124  47.6017427   7.2817123  39.4808316
  48.4728050   6.9006753  39.3699718  47.6176453   7.6645285  40.3580046
  22.6996732  35.4560709  36.0801864  23.1466484  35.4674172  36.9265413
  23.3641601  35.1509166  35.4624724  24.2298491  64.5198861  62.4917984
  24.8799641  65.2207461  62.5405979  23.4168131  64.9637380  62.2505569
   5.9935114   0.9173605  31.3873792   6.6372415   1.4296560  31.8766642
   6.4796278   0.5758125  30.6368685  28.7904467  24.1097323  58.7445943
  29.1957304  24.8563926  58.3035998  29.4935755  23.7338773  59.2742876
  65.3492928  19.6710515  61.6268873  65.7568121  19.0395486  62.2196484
  65.8965969  19.6504176  60.8418655  61.0720205   5.9557116  50.8087349
  61.4255905   5.8281189  49.9284267  60.3149939   5.3713733  50.8498096
  66.3624668  28.4699345  64.2936182  67.0379972  28.8595629  64.8486710
  65.5466652  28.6119819  64.7737408  78.5293770  28.7198877  61.0489893
  78.2538795  29.4657230  61.5819645  78.1318474  28.8776088  60.1926422
  21.4439852  72.2985306  65.9148598  20.8983547  73.0098107  65.5792999
  22.2659905  72.7228263  66.1608410  37.2987390   1.2637252  30.3308606
  38.0303979   1.7740668  30.6779337  37.6690388   0.3969193  30.1642513
  59.3209267  14.8188627  57.3881817  58.4532738  14.6277177  57.0319939
  59.3633890  14.3131578  58.1997824  13.8006010  58.5353171  19.5202168
  12.9242744  58.1646704  19.6246346  13.7436332  59.4019316  19.9226673
   3.8754120  69.3411182   4.7547491   3.4073772  70.1373552   4.5033844
   3.1852855  68.7253712   5.0013455  60.1254988   5.1072323  32.5090575
  60.1689339   4.5382661  31.7405367  59.7939730   4.5421982  33.2069540
  53.0683279  18.2830155  51.5077209  53.9672518  18.5534227  51.3204908
  52.8559780  17.6599503  50.8127880  74.6868801  28.3994699  68.8141108
  74.1440773  27.6141620  68.8840246  74.1393948  29.1011882  69.1663694
  61.2611038  61.8123129  43.5399437  61.0388214  62.7430108  43.5149860
  60.4984982  61.3945797  43.9401484  19.0513441  57.3078394  53.4163570
  19.7756216  56.9920111  52.8760767  18.4626219  56.5567446  53.4905386
  40.0186157  18.5074222  60.4437637  40.3599501  19.3746042  60.2253151
  40.3484774  17.9380882  59.7485781  87.0508766   0.2631722  44.5550537
  86.7813206   1.1801717  44.6068621  87.9347610   0.2936652  44.1889238
  35.8022428  22.8492165  36.3352919  35.5663371  23.3199787  37.1346426
  36.6211963  22.4038243  36.5524769  72.8447121  79.4619011   2.4378880
  72.7649849  80.2897691   2.9117115  72.9462593  78.8021182   3.1238993
  71.7794354  75.3610584  28.1443071  72.5787861  74.8348227  28.1630015
  71.4130051  75.2713594  29.0240312  54.1331148   7.3559690  39.4042730
  54.6960783   7.8287899  38.7912941  53.7847614   8.0349499  39.9820828
  68.9575529  26.3552403  34.2751884  69.7426414  26.8566799  34.4952512
  68.2517529  26.7951012  34.7491074  58.3086872   9.3267131  14.4161379
  58.9172506  10.0650775  14.3896568  58.0286264   9.2798281  15.3302491
  33.4709525  15.9702551  48.0359602  33.9816952  15.2987611  47.5837803
  34.0647578  16.7179811  48.1033039  60.8687258  19.9081802  30.7118082
  60.7067204  19.2868793  31.4217186  61.8075943  19.8359942  30.5399394
  74.4293690  18.0790460  31.4836454  73.7856483  18.7871516  31.4626122
  74.2266846  17.5948000  32.2840548   0.0915930  31.2803316  16.3291490
   0.8975717  31.7875957  16.2326765  -0.5663660  31.9238329  16.5922606
  71.6046173  76.8288049  62.0347452  70.8723290  76.3328674  61.6686440
  71.2012703  77.4120316  62.6776981  35.6250984  80.5584854  37.3808527
  34.7549803  80.7675250  37.0411062  35.4625971  79.9330729  38.0870295
  85.9838503  24.2964481   2.0192774  85.0646322  24.2380427   2.2797688
  86.0226887  25.0636815   1.4482506  56.0715866  21.4084339  60.6232500
  56.6252327  21.8662429  61.2557983  56.5935230  20.6540179  60.3499937
  49.0397961  63.5881701  52.4722195  48.1729586  63.2415965  52.6836681
  49.6217138  62.8305033  52.5317287  70.5363560  37.2635603  21.0208488
  71.0959864  36.6729450  20.5166507  70.7195616  37.0452476  21.9346356
  30.1142628  77.3075876  43.8848162  29.8837740  78.1884617  44.1800547
  30.4816038  76.8835089  44.6603489  29.5223505  80.9315689  31.4985561
  29.2709477  81.3257518  32.3338079  29.9914534  81.6267744  31.0371804
   2.8344747  21.5850425  47.8833389   2.9475424  22.4978137  48.1484747
   2.3015138  21.6304660  47.0895386   5.9846821  73.9011358   9.0895756
   5.3508081  73.7736391   9.7953995   6.1517753  73.0197834   8.7556179
  83.7638300  63.2678961   5.1400908  82.9967087  63.7878894   5.3796013
  84.0186613  62.8291057   5.9517296  44.0872557  69.0576020  35.4064846
  43.7095148  69.9081293  35.1825476  44.4260437  68.7201884  34.5772648
  35.3787071  70.4781285  43.5585642  34.7458393  70.8015206  44.1997528
  36.2319595  70.6453398  43.9588499  43.9006645  62.9705146  58.9744234
  42.9477198  62.9144362  58.9038372  44.0576727  63.7810901  59.4587278
  36.1683781  80.9815727  29.4787812  35.7687981  80.5462611  28.7257385
  36.7919762  81.5985061  29.0956998  80.5784225  12.1465862  51.0121536
  81.1328411  12.9119098  50.8600807  80.0245762  12.3952925  51.7521763
  60.8006477  14.9886060  46.4086914  61.7444849  15.1101482  46.3055754
  60.4524374  15.0518394  45.5193186  83.4763449  51.4915739  11.6282280
  84.3253153  51.1102568  11.8520172  83.5763710  52.4250530  11.8148811
  54.4260723  56.6808107  30.8472943  55.3177292  56.3345888  30.8110499
  54.5346005  57.5950792  31.1091375  79.5292759   9.4691205  50.2171326
  78.8059759  10.0887108  50.1213360  80.0941753   9.6421111  49.4640064
  52.7722103  82.5541767  63.4511709  53.2538731  82.9028686  62.7010775
  53.3561451  82.6937571  64.1966724  28.8478613   7.8084052  62.5257111
  29.5536184   7.3929316  63.0212116  29.2973304   8.3489758  61.8761015
   7.1227207  60.5935239   2.1827515   6.3038482  60.4872845   2.6668986
   7.1886959  59.8028456   1.6473015  43.5333729  13.3725476  59.3351936
  43.5575294  14.3259931  59.4163656  44.4525242  13.1066012  59.3611050
  75.6064272   0.8482994  59.6706629  75.5488777   0.4206064  60.5250645
  75.9027386   1.7370164  59.8671675  58.7599373  43.9644337  60.2972364
  59.0294218  44.7578764  59.8345709  59.4516754  43.8165808  60.9421158
  52.1416313  81.1380593  35.0440145  52.7601654  81.6002096  34.4782662
  52.6006062  80.3369549  35.2966261  77.4230576  29.9706316  36.9114184
  77.3278999  29.0190268  36.9517326  77.6088572  30.1539588  35.9904933
  50.4322018  78.6356644  66.1683361  50.2001633  78.3145718  65.2969633
  50.9207596  79.4422488  66.0041229  65.9996986  15.0094461  23.1448579
  65.5922794  15.3555810  23.9388585  66.1798429  15.7833695  22.6111698
  64.8875284  23.2649231  12.1873498  64.3731356  23.5175347  11.4206576
  65.4615688  22.5671792  11.8713415  72.4004602  19.4641590  41.6381359
  72.7647924  19.8850453  42.4168205  72.5732660  18.5315418  41.7669535
  48.4406090  10.3253472  52.7081728  48.1126356  10.9533834  53.3517838
  47.9836559   9.5100147  52.9147053  60.4755306   1.4270276  12.4473155
  60.2596045   1.2116456  13.3546293  59.9832106   2.2280014  12.2676098
  63.4394550  14.6614695  46.3929033  63.7730265  15.0375807  47.2074556
  64.0448093  14.9726176  45.7198763   3.3945104  20.0887775  39.8392367
   3.7655756  19.4406605  40.4379702   2.6057359  19.6712530  39.4932103
  78.2837248  17.8737426  64.1020298  77.6712608  18.5435045  63.7978363
  78.8237524  18.3211589  64.7535086  62.0929432  33.7700009  45.8831263
  62.0006037  34.7147918  45.7603455  63.0309772  33.6063337  45.7854891
  61.0992146  37.7412248  62.7818584  61.5101337  38.0137706  63.6022806
  61.8331051  37.5710368  62.1913719  26.3688871  28.7008214  33.6593676
  25.8229944  29.4192934  33.3399463  27.1970388  29.1171551  33.8982272
  58.6113358  16.6843021  49.8080683  58.8654089  16.2900460  50.6424809
  58.4930897  15.9401691  49.2177153  86.0405445   9.4666755  58.0323458
  85.4073906   8.9973438  58.5755587  86.5639496   9.9704552  58.6556292
  84.7187614   7.9037493  52.4978685  85.1075649   7.1722740  52.9774618
  85.2165699   8.6695266  52.7842331  76.3962183  79.6600658  16.7103016
  76.7139325  79.5127386  15.8194685  77.0822761  79.2994144  17.2719836
  29.8248083  53.6764839  24.0789032  29.0617497  54.2410114  23.9552855
  30.1081974  53.8499930  24.9765754  22.8971025   9.4027561  53.1150770
  23.1425688   8.6612147  52.5618219  23.6347791  10.0086474  53.0446672
  57.3947811  19.4952023  17.9842687  57.5852203  18.5812724  18.1956851
  57.5244427  19.9638057  18.8087857  25.3745985  36.2280583  44.2758656
  24.9128032  36.7595220  44.9243450  25.4760504  35.3734779  44.6949530
  42.8426869  75.8273402  65.1444721  42.2325928  76.4898369  65.4686832
  43.2760937  76.2447223  64.4000387  12.5282700  60.9332016  30.0468159
  12.6086027  59.9806693  29.9972248  11.9330485  61.0854748  30.7808161
  83.8375759  35.4075623  44.2675114  84.3700218  35.2629638  43.4853172
  84.4063568  35.9039307  44.8560190  27.3455460  70.9659246  39.9464083
  27.9483158  71.7069366  40.0080776  27.8652794  70.2667692  39.5498109
   2.1313307  24.4629192  69.1338825   2.8800413  24.6561980  69.6980715
   1.5753481  23.8897538  69.6617031  11.6557047  11.2262034  23.2705998
  11.7146608  11.4075363  22.3325825  11.3578340  10.3179121  23.3207011
  69.3400764  38.8804865  49.4150448  68.7733412  38.5364294  48.7246323
  70.0360298  38.2288909  49.5005322  78.9350939  10.0785017  38.4567714
  79.0998507  10.6877613  37.7371240  79.3126822  10.5072534  39.2247748
  18.8560707  72.8143504  24.2903686  19.7510273  72.5197461  24.1215777
  18.8369305  73.7168387  23.9719653  72.6376486  11.8229771  60.3895521
  73.0473518  10.9656930  60.2736282  72.9526567  12.1257901  61.2412024
  80.5662727  14.7260821  34.6327257  80.9672356  14.4689059  33.8024688
  80.4651070  15.6755710  34.5658922  24.3491156  67.4504688  60.8316660
  24.7322352  67.8001860  61.6361237  23.4459765  67.2395542  61.0684872
   7.2639486   0.0656288  65.9692287   7.3550531   0.1303061  66.9198847
   7.9086324   0.6833774  65.6242561  69.7318029  32.9243517  48.1940746
  69.4089556  32.4889946  48.9830399  69.7183752  32.2429252  47.5219822
  51.8384678  44.6601513  20.8062100  51.6797382  43.8701394  21.3228536
  51.1390431  45.2601674  21.0650754  28.5139830  72.0208493  28.5988498
  29.1053564  71.6644147  29.2617702  28.2500012  71.2610367  28.0799770
  27.3584921  74.3652818  42.8386593  26.6216404  73.8244763  43.1229210
  27.2567637  74.4286397  41.8889904   2.9113600  25.1105666  14.7284627
   3.2418749  24.3409729  14.2650867   2.0544168  25.2768803  14.3357635
  45.8048136  68.0307475  28.9856577  46.5193541  68.0573192  28.3492947
  46.1481030  68.4924224  29.7506690  53.3208084  24.4932175  48.6689425
  52.9225969  25.1097369  49.2834044  53.5945654  23.7552714  49.2136621
  35.4332311   6.4325758   0.0979622  35.7864959   7.0380064   0.7497986
  35.5940921   5.5637451   0.4660471  16.0902872  40.1276790   0.8841332
  15.3333273  39.6674346   0.5216177  16.6408577  39.4340836   1.2474878
  10.2691616  62.6287607  63.5826449  10.9253372  63.1864719  63.1647657
  10.2244248  62.9461269  64.4845919   1.7505970  55.1779352   4.4670828
   1.9697799  54.7988712   5.3182562   0.9351482  54.7447680   4.2148121
  86.4844427  51.1499694  41.4467287  85.5336533  51.2449101  41.3899851
  86.6817794  50.3868535  40.9036398  67.2400236  21.4492369  67.2534609
  67.5934505  21.7988157  68.0714512  66.4615011  20.9596205  67.5188065
  77.0948410  40.5497599  33.0477905  76.4341116  40.1511717  32.4814010
  76.6110992  41.1961746  33.5619688  29.5489523   3.9591622  21.8376875
  29.9315664   4.5256898  22.5076747  29.1451952   3.2446241  22.3302794
  19.8094930  63.8924454  14.8526581  19.1881647  63.1855868  14.6779068
  19.2640152  64.6262096  15.1359947  61.1668253   3.7733597  19.3817592
  60.7750559   2.9762715  19.0248322  60.4394102   4.3928951  19.4389653
  33.5109591   2.7053607  29.6506023  33.1803560   1.8082209  29.6050739
  32.9212356   3.1472218  30.2615166  39.5966029  18.1692970  55.9142923
  40.5195904  18.2125163  55.6643724  39.2037153  18.9453876  55.5148506
  63.8966591  73.8931903  60.7669401  63.4402973  74.2752334  60.0172710
  64.5379860  73.2978728  60.3789616  62.2961170  78.1110930  43.7873220
  63.0661041  77.9646060  44.3367672  62.4930317  78.9163724  43.3088017
  28.2399637  78.2276866  68.9073896  28.1216080  78.6468527  68.0550241
  29.1564448  78.3916044  69.1297150  47.0154953  11.8912685  28.4119487
  47.8059101  11.5029466  28.7870264  47.1356630  12.8342867  28.5237956
  72.1623564  16.9679749  19.9623108  71.9144821  17.6488328  20.5877900
  71.3456917  16.7437887  19.5161760  69.4392317  47.0567297   2.8687103
  69.8733871  46.3573258   2.3802717  68.5667031  46.7112182   3.0572613
  58.7864113  12.1171224  52.9134607  57.8702164  12.2834027  53.1351948
  58.9005899  12.5170863  52.0513535   9.7556612  21.8774748  31.1805201
   9.5635721  21.1937928  31.8223238  10.0415251  21.4008880  30.4011774
  49.0820026  34.1410899  49.9996471  49.6417999  34.4129944  49.2723751
  48.2843208  33.8184977  49.5802784  55.5935192  40.7467127  20.8890772
  55.1982212  41.0832405  20.0848889  56.5332508  40.8842134  20.7697797
  40.7800181  79.1657799  34.1839671  41.7274267  79.2511129  34.2905807
  40.4411251  79.1244289  35.0782132  11.3410914  20.5907393  67.8492880
  11.9080782  21.0387254  68.4770346  10.4541159  20.8457375  68.1032228
  18.0029525  50.7007765  10.0435837  18.7040128  51.2982641  10.3038891
  17.3289575  51.2698238   9.6719177  64.8060846  10.3001535  40.3966761
  64.2283297  11.0581017  40.3075314  65.6877613  10.6722200  40.4176950
  49.6014786  31.4357376  61.4918661  49.2805862  32.1052933  62.0959854
  49.7501230  30.6673408  62.0429564  13.2809946  25.0230002   2.0052119
  13.7496683  24.2534781   2.3283467  12.3605654  24.8392010   2.1929897
  49.6497042  72.2392824  48.4311676  50.1235516  72.3759189  49.2515516
  50.1755888  72.6928547  47.7724218  27.7350742  76.5263411  45.7735682
  28.0822022  76.8812510  44.9551725  27.0229513  75.9478173  45.5007648
  65.8744669  16.1093163  52.1850204  66.3469076  15.3484142  51.8472910
  65.2049398  15.7394814  52.7605057  79.2296410  35.2252626  39.1957927
  78.7840366  35.2305603  38.3486557  80.1344013  35.4621434  38.9919949
  12.8126833  28.3136797  23.9697528  13.4564230  28.6923289  23.3710480
  12.8701708  28.8551736  24.7569704  17.9369184  33.8009167  50.5769539
  16.9801637  33.8158369  50.5518246  18.1497404  33.0794716  51.1689472
  56.8696148  74.2936024  31.1682177  57.6017696  74.3749943  31.7794085
  56.4206154  73.4923366  31.4376783  53.6028320  71.6433111  30.7685757
  53.2919819  72.3895457  31.2811565  53.9989979  71.0578194  31.4139366
  54.7041351  59.0272596   9.1653264  55.4751427  59.5262435   9.4351172
  54.9356968  58.6745432   8.3061409  70.7260323   9.3728012  53.2274151
  71.5797520   9.8011047  53.1645966  70.9283733   8.4704447  53.4744835
  54.6650982  24.1323447  46.4800215  54.2986393  24.4064903  47.3207235
  54.3852663  23.2222104  46.3821316  50.0617535  57.5100592  17.2734034
  50.5417568  58.2445148  16.8907797  50.6293804  57.1928742  17.9758418
   0.7872698  11.5327704  51.1836004   0.0400945  11.8142617  50.6556463
   1.4755365  12.1666276  50.9817505  74.8869467  15.4274440  49.0194702
  75.5647421  15.3260839  48.3512211  74.2393923  14.7550869  48.8077259
  46.7963249  78.6879021  65.1912117  47.1908218  78.1873593  65.9053946
  47.3921425  78.5618478  64.4527388  61.0562420   4.0755394  57.7940893
  60.9293699   4.8725283  58.3088160  60.2648687   3.5604733  57.9511452
  65.5698967  29.3369651  24.7334790  65.1612186  28.6793947  24.1706181
  66.3958168  28.9380097  25.0071979   9.2299959  35.9524608  69.5451450
   9.1861650  36.8109846  69.9661493  10.0152990  35.9931540  68.9993668
  83.2490604  56.1008667   3.0475100  83.1366556  55.5612456   3.8300713
  83.9423626  56.7185198   3.2800348   7.4748983  52.5234591   4.8649319
   8.1724157  52.5362407   4.2095383   7.3384800  51.5945684   5.0514420
  16.0143396  36.7686296  39.9371934  16.5549299  37.3749018  40.4435778
  15.8558389  36.0353112  40.5316305  77.1988869  43.9297247  11.0632300
  78.0638361  43.7663841  10.6871808  77.1636868  44.8791838  11.1795187
  40.6594419  12.3168349  19.3782806  40.8934736  12.4569786  18.4607732
  41.0135317  11.4522338  19.5864117  21.5437975  75.0728940   3.4292277
  21.8262663  74.6761416   2.6051958  20.6971063  75.4703640   3.2258375
  58.3289623   7.3940700  31.1161804  58.9235449   6.7504352  31.5014625
  58.3651114   8.1411892  31.7134571   3.8978216   9.4973129  36.9332409
   4.4890711   9.2077416  37.6280904   4.1794988  10.3905892  36.7358875
  83.9888763  40.4235697  27.8263235  84.1242981  41.1124468  28.4769726
  83.7600040  39.6496439  28.3409977  78.8982058  23.9872837  64.8875141
  78.8932371  24.8717690  65.2534294  78.8870764  23.4116602  65.6522179
  60.3200197   0.7961581  14.9643946  60.0851393   0.1990244  15.6746721
  61.0108757   1.3467236  15.3329408   3.3177301  20.5401349  23.6552286
   3.5074541  20.6954288  24.5804977   2.8755876  19.6912968  23.6405754
  71.3132429   8.1525463  29.0384626  71.4844465   7.4642855  29.6812844
  71.0165930   7.6834732  28.2585907  59.1746473  31.8752575  55.6218243
  59.8946047  31.3816381  55.2290916  59.2402792  31.6900730  56.5586472
  35.2915413  67.8322318  40.1208639  34.4965584  67.8665605  39.5888329
  35.8452685  68.5294190  39.7693658  72.4271488  32.4479437  46.5802288
  72.8536844  32.4402785  47.4371099  71.6859913  31.8498659  46.6762590
  67.8625863  46.3927745  15.2880581  67.4510973  46.1876224  14.4485195
  67.1667784  46.8025230  15.8020504  73.1485684  53.4512475  56.8217230
  73.9201576  53.3114031  57.3706579  73.2208283  54.3614390  56.5343904
   0.6770632  11.8179667  44.4017839   1.1051199  12.6688683  44.3070745
  -0.2512530  11.9991589  44.2547083  25.6793424  31.5206504  28.3816767
  25.4397127  30.8299804  27.7637887  25.1173040  31.3680077  29.1413116
  71.8976593  41.7686653   2.0407945  72.7417755  41.4825869   1.6917141
  72.1145678  42.2042894   2.8650600  50.4758246  80.1231733   7.1155679
  50.8318455  79.3197861   6.7360264  51.1534626  80.4224467   7.7217692
  79.1130447  23.2579017  31.9229650  79.2630482  23.9615679  32.5543022
  79.4354200  22.4702787  32.3610902  75.7248051  63.2311597  37.6733422
  76.1112625  63.0990317  36.8076515  75.0315029  62.5735381  37.7290392
  68.2445080  56.4506033  54.9853230  67.4073345  56.3802984  55.4440498
  68.7919457  55.7721713  55.3806400  84.5077705  10.6726801  16.8302321
  84.8563766  11.3779712  16.2850082  83.5620403  10.7032967  16.6856492
  42.3118527  79.7993514  28.7930536  41.8707687  78.9793155  29.0148973
  43.1119663  79.5270029  28.3437419   0.7072470  22.2377491  51.1593342
  -0.1718691  22.0884752  50.8113384   0.9014150  23.1483102  50.9370470
  54.9748032  31.7108034   6.9706543  55.0867050  30.7601713   6.9679125
  54.0682977  31.8460588   6.6946419  51.0398531  30.7329011  70.6685925
  50.8876944  30.6613183  71.6109037  51.8004227  30.1750088  70.5057287
  52.0999193  33.3330727  54.8090649  52.7970982  33.6149549  54.2168570
  52.5183058  33.2915664  55.6689835  77.4000692  30.7447243  29.4469285
  78.0970144  31.3814497  29.2885733  76.5907001  31.2334037  29.2974472
  20.9493763  82.9674274  63.9934635  21.2763531  82.3123795  63.3768320
  21.6233523  83.6470853  64.0006447  29.2256165   9.6805072  32.0906568
  28.5562825  10.3621042  32.1510673  28.7381864   8.8841879  31.8796635
  22.5925715  75.8306602  49.4818211  22.9460699  75.7743683  48.5940695
  22.7711756  74.9721572  49.8656273  78.3257627  44.1945314  35.4628110
  78.2519007  45.0698423  35.8430886  78.6212492  44.3474674  34.5652986
  83.8443375  21.1537743  40.3597593  83.8060188  20.3121042  40.8140230
  83.2474232  21.0531425  39.6182704  66.5719700  12.1939981  23.2719970
  66.1805534  13.0525422  23.1109858  66.0694170  11.8349898  24.0032864
  46.9831266  65.8699869  14.5887573  47.6329984  65.2024864  14.3689163
  47.4757948  66.6906308  14.5962818  35.6520159  70.1490977  17.7017748
  35.3900797  70.5738917  18.5185802  36.4364416  70.6233004  17.4260306
  25.8690436  80.8257742  37.3572850  25.8389551  81.7808895  37.3017740
  26.6793759  80.5851662  36.9081736  26.7047395  39.1438979  10.7523354
  26.1832132  39.2948346  11.5406521  27.6109972  39.2546334  11.0398682
  72.0886803  22.3241568  60.3228903  72.0641327  21.7118025  61.0581827
  71.3354778  22.0818734  59.7841740  78.3886957  11.8718648  41.9894552
  78.2595062  12.6416492  41.4354038  79.3084431  11.6382110  41.8641472
  54.4959402  14.4475770  15.3319633  54.5984936  13.5288846  15.0835299
  53.7763786  14.7644401  14.7860146   2.3366377  39.1768765  13.1193841
   1.5102693  39.2182541  12.6381052   2.6493189  38.2826853  12.9819775
  28.9475989  41.4580536  17.7540505  29.4984651  40.6753778  17.7399909
  29.0903234  41.8667603  16.9003415  11.3660803  60.6410848   7.4202307
  11.9115390  61.3307928   7.7983959  11.9715252  60.1178490   6.8949803
  32.3395235  76.9298378  26.1234927  31.9182522  76.5118328  25.3724694
  33.2365639  77.0954087  25.8334279  11.8258936  62.3449352  38.0652475
  12.5229628  62.9973057  38.1341290  11.4343006  62.5026444  37.2061706
  68.1487274  23.3472896  49.4280720  67.3577213  23.6641932  48.9920568
  68.7639236  23.1777859  48.7146044  67.7840185  33.7195230  69.0240765
  67.7115583  34.5064545  68.4839678  68.3674860  33.1431603  68.5305166
  38.4368822  25.2223730  43.4900999  38.8094160  25.9367514  44.0069294
  37.9112360  25.6600142  42.8204775  79.3509722  26.6631365  46.6949987
  78.9116716  26.5940642  47.5426292  80.2489662  26.3797593  46.8668413
   6.1755201  30.1725316  69.5844984   6.5132639  31.0660315  69.5226955
   5.6772825  30.1607990  70.4017210   0.7090589  14.0850878  26.9404435
   1.5641901  14.5030642  26.8390751   0.0813791  14.7550142  26.6694236
  60.8123732  54.9334097  57.9089594  61.2106228  55.7807302  58.1081629
  61.2051058  54.6742153  57.0754051  35.0850797  14.7107196  63.5979176
  35.0240421  14.4329548  64.5118952  35.7096410  14.1018069  63.2037354
  80.8507919  39.4845796  53.8546801  81.6756916  39.3092942  54.3075037
  80.1970482  38.9883113  54.3471956  86.0665894  30.9510517  28.9231682
  86.4634800  31.6425061  28.3934522  86.8051434  30.5390644  29.3715477
  73.5173035  32.5832915  39.3239069  73.0707169  31.8706656  38.8667870
  73.3055592  32.4454689  40.2471638  41.6800451  15.6002271  52.0608807
  41.2294817  16.4393651  51.9656467  42.5165510  15.8225548  52.4696159
  79.6177483  13.2287908  53.6239147  80.5216885  12.9139400  53.6226463
  79.6396351  14.0175998  54.1657019  59.9573708  12.0449734  34.2873478
  59.1707230  11.8532836  34.7979069  59.6344280  12.2038829  33.4003949
  19.0135214   8.4688276  24.3742585  18.9009973   7.6044744  24.7698140
  19.7090551   8.3477253  23.7278914  86.3784218  60.1005983  29.5782328
  86.1947346  60.3568125  28.6744380  86.7643929  60.8815908  29.9748540
  70.5704069  11.8037820  43.6503315  70.1262522  12.5409973  44.0692329
  70.4034281  11.0618830  44.2316580  84.6689224  17.2349417  39.1902351
  84.2359447  17.5838268  38.4111023  84.9595451  16.3604319  38.9313912
  36.6104984  17.5028372  44.9379015  35.8910131  17.1846044  44.3926477
  36.6654658  18.4377766  44.7401619  85.5566788  30.3030086  36.2331772
  84.7751236  30.1279211  36.7573500  85.2213860  30.6947112  35.4267144
  72.8761339  20.0997114  63.3284473  73.3976793  20.7328701  63.8217306
  73.4060955  19.3026125  63.3264780  67.4186754  40.0126410  64.3519592
  66.7481470  39.9228525  63.6747837  67.7012253  40.9250736  64.2897511
   8.2933351  62.6856709  21.5674210   7.8466150  62.0014095  21.0689592
   8.9411184  62.2154474  22.0923066  81.8984509  71.9528484  39.6745420
  81.8739128  71.4632797  40.4967070  81.8259239  72.8697777  39.9395204
  25.8187792  37.4455428  34.0486240  25.5325147  36.9469905  34.8139548
  26.7712328  37.3504472  34.0433717  84.0468788  29.2492247  59.4819021
  84.8835659  28.8131642  59.3205643  83.9694786  29.8885012  58.7736893
  62.0715857  25.5067396  45.5641842  62.5483894  24.6813703  45.4767036
  61.1516190  25.2475357  45.6162453  41.0373354   1.9995782  46.4272594
  41.1548138   2.8032359  45.9207344  41.8848419   1.8558143  46.8483353
  62.8235752  72.5561073  41.6746616  62.3147423  73.0155900  42.3426437
  63.6411984  72.3231724  42.1144915  26.7581007  14.1910827  54.2236090
  27.6256964  14.2726827  54.6196413  26.2988397  14.9887109  54.4864893
  29.5581236  80.1643966   4.0754135  29.4140520  80.7384108   3.3230980
  30.1070299  80.6786631   4.6674164  17.3071596  38.8069630  31.5347314
  16.4887640  38.9754915  31.0677648  17.8934023  38.4479332  30.8686709
  77.8136015  29.3671417  64.3415928  77.1772099  29.5603013  65.0300169
  77.5914478  29.9717689  63.6335659  77.0518303  31.5150046  53.7681627
  77.9486132  31.8363857  53.6747646  77.1408224  30.5624700  53.7996292
  79.2110443  43.3376837  51.5155125  78.7331772  44.1431236  51.7133665
  78.5410213  42.7345705  51.1937141  24.0714390  61.8123344  59.0211678
  23.7674029  62.7180388  58.9620733  24.2911894  61.6932586  59.9451590
  74.1241407  48.0331659  56.9950819  73.5563087  47.4746752  57.5260162
  74.8742294  48.2182550  57.5601864  22.2739145  12.6865208  58.3666468
  22.2246000  13.6222088  58.5623169  23.2115576  12.4950051  58.3471107
  17.9898872  71.6429423   3.4395989  18.0246486  72.3031472   2.7473934
  17.4737730  70.9294509   3.0643805  84.0961742  76.7921734  33.6065412
  84.6508503  76.7080498  34.3821001  84.1714191  77.7132082  33.3570194
  80.1744556  22.6004481  35.9523773  80.7077885  22.2159410  35.2567196
  80.8017826  22.8214049  36.6407561  83.6478710   0.1342480  61.2833977
  83.9901161   0.8393624  61.8328619  83.6575699   0.4951964  60.3969145
  23.4055319   8.6982533  47.8513575  23.2775964   9.0147778  48.7456083
  24.3519010   8.7423799  47.7147579   2.1240351  18.5540903  42.2024632
   1.2238809  18.8792753  42.2170162   2.4215051  18.6319375  43.1089306
  73.3075666  22.5953770  48.5193968  73.7925434  21.8415046  48.8551140
  73.9646530  23.1169438  48.0584860  77.4479198   2.2557098  53.8913250
  77.2403145   2.3409303  54.8218441  76.6160107   2.0195484  53.4809732
  30.7578172  62.5042008  30.9879025  30.5989923  61.8088650  30.3495415
  30.2242078  62.2611903  31.7445000   0.2446005  41.2738562  29.3086028
  -0.1015261  41.0873842  28.4358740   0.0134203  40.5035067  29.8275852
  40.1189596  61.5516785  59.4615269  40.5327637  61.8704417  60.2636433
  40.7794125  60.9876755  59.0591192  87.6236820  52.6184320  47.5645638
  88.4184933  53.1503153  47.5245380  87.8615379  51.7992687  47.1302509
  22.4962003  22.8205820  22.1715077  22.3149831  22.9235073  23.1057461
  22.2443540  23.6592193  21.7848690   3.5049650   7.7263290  28.4412193
   3.8287756   8.6037576  28.6449313   2.8894922   7.8595471  27.7203345
  72.0145416  23.4006310  64.3178082  72.6624298  23.6011505  64.9932861
  72.4514675  22.7686286  63.7469339   5.5702612  33.2839561  51.7596245
   4.7691366  33.7311172  51.4867210   5.5851576  32.4805212  51.2395239
  71.0728962  76.9939890  50.5379248  70.7249863  77.7640083  50.9876537
  71.9321282  76.8523905  50.9353018  24.1794331  81.2736244  51.6272068
  25.0406725  81.6836750  51.5475178  23.9349587  81.0533240  50.7283545
  80.3358841  46.2981367  25.8984089  79.3921566  46.4230347  25.7983327
  80.5212402  45.4857254  25.4273915   9.1985849  81.8749540  27.1266389
   9.0792707  81.7763673  28.0712438   8.6333803  82.6100965  26.8892717
   2.8271982  30.6007910  41.3580179   2.5755998  30.0926328  42.1291876
   2.0030042  30.9576654  41.0269928  84.4488716  44.4574404  42.2520304
  85.3367901  44.1020203  42.2132015  84.0673733  44.0636826  43.0366611
  75.5072403  20.4564929  41.7485619  75.0368166  20.3233743  42.5714922
  76.4207840  20.5704927  42.0106363  72.8926809   3.4887739   1.6480168
  72.2982175   3.9193340   1.0336359  73.7191064   3.9623972   1.5534599
  13.4731218  16.8376625  69.2377138  13.5353872  16.6227734  68.3070230
  14.3822309  16.8917155  69.5323849  81.1737537  28.9118934  58.4145594
  82.0168114  29.3319798  58.2442570  81.3201809  28.3928847  59.2053938
  41.4073181  10.8574915  60.6689072  41.7926645  11.2462497  59.8836613
  40.4638672  10.8794236  60.5087423  78.5293341  25.4150987  59.5973682
  78.4493065  25.7793355  60.4789352  79.4390106  25.1226830  59.5407009
  21.9854280  41.7130470  33.5121965  21.8886873  42.4789190  34.0781546
  21.2052938  41.7249203  32.9576874  32.3870394  36.9373083  66.3682365
  31.4706346  37.0556474  66.6180992  32.4723169  37.4093294  65.5398893
  80.7763290  15.5233645  38.7361646  80.6412220  14.7522533  38.1853771
  81.5859032  15.9139013  38.4070683  76.9159079  32.7394938  49.2745733
  76.7673445  32.4850655  50.1853037  77.7094412  32.2682667  49.0206385
  72.0085144  64.2839766  71.1338711  71.7869377  65.2070189  71.0108423
  71.6023493  64.0493155  71.9682550   2.3155805  50.2711344  70.7984018
   1.9639608  50.3618383  71.6840458   1.6064188  49.8656321  70.2995110
  23.2757875  27.6243711  46.7239046  24.0242693  28.2002521  46.5677929
  23.2277319  27.0763659  45.9405708  83.8888264   5.0649583  52.0997572
  84.1029453   5.5416214  52.9017401  84.7252464   4.9773911  51.6426277
  73.1770706  25.9701467  69.1018677  73.4463453  26.0005593  70.0199080
  72.2499037  25.7341433  69.1319084  25.6058104  79.7077700  53.7903547
  25.4749949  79.7588777  52.8435135  26.5565235  79.6899810  53.9001751
   5.9417555  57.4074984   8.1652743   5.1247141  56.9953871   7.8844649
   6.1278078  57.0140362   9.0178031  76.1464930  13.6008525  22.1518564
  75.5594492  14.2844307  21.8288541  75.5943441  12.8215909  22.2159791
  55.4461908  48.4410381  57.0140553  56.1051369  48.1867695  56.3680172
  54.6309280  48.4964848  56.5155506   6.3497659   7.0159006  68.9039326
   6.4097521   7.6342297  69.6321487   5.5300829   7.2422242  68.4644556
  49.0123987   8.2992804  48.0787992  48.6089230   8.3202291  47.2110415
  48.4942770   8.9136416  48.5987377  23.3399494   6.8734451   2.5613125
  24.2436464   6.6574617   2.7913626  22.8245122   6.5774198   3.3115919
  73.1842136  36.1787391  43.7163353  72.7517748  35.6817198  44.4107437
  72.6903009  36.9970131  43.6642790  84.0180016  25.1877856  62.6541948
  83.6921024  24.9792480  63.5297155  84.4677734  26.0261536  62.7594471
  59.6007633  36.3807964  60.8222580  60.3556585  35.9616876  60.4090786
  59.9692059  36.8593431  61.5648699  69.8319387  20.9893918  38.4799886
  69.7207212  20.9333110  39.4290495  70.5341339  20.3691006  38.2840586
  50.8227379  77.6964202  68.4929132  50.5593474  78.0522850  67.6442575
  51.2536652  78.4274089  68.9358377  18.3170530  11.9060779  42.0426607
  19.0081999  11.2468076  42.1052074  17.6505110  11.5023243  41.4868402
  21.7225858   8.2509303  19.9535954  22.3125192   7.6269227  20.3764725
  20.9096834   8.1897980  20.4552746  21.3322946  31.7772889  25.6111002
  21.9925043  31.1128998  25.4137874  21.8296739  32.5068831  25.9806085
  69.1150761  17.2733796  51.3122320  69.3083286  16.4359641  51.7336798
  68.9584112  17.8766203  52.0387220  48.2343006  10.8900928  42.0164013
  49.0769005  11.3434803  42.0426607  47.7522182  11.2368798  42.7671146
  34.2874612  78.4339927   8.6493309  33.6314287  79.1267751   8.7261780
  34.6232118  78.3223437   9.5387276  70.3801632  19.4691455  64.3587065
  70.4187679  18.5732234  64.0239477  71.2393618  19.8383582  64.1545153
   1.6991731  31.0362577  50.9206104   1.2007734  31.5440607  51.5608931
   2.6127359  31.1521554  51.1817551   2.3438093  17.3477411  32.0760894
   2.9058286  16.9055593  31.4398170   2.6535818  17.0362222  32.9265189
  35.2327759  66.8301049  32.2481346  34.2799456  66.7398944  32.2338557
  35.4610712  67.1009186  31.3588810  13.7654628  10.5994126  48.8197184
  14.5040836  10.5628774  48.2119846  14.0632381  11.1748788  49.5242691
   3.9954492  45.5664158   0.4507068   4.4836828  46.1914921  -0.0851499
   4.3971369  44.7195292   0.2566480  15.1151487  36.9679165  67.1257210
  15.1610872  37.6236916  66.4299583  14.7802088  37.4463797  67.8840876
  42.3028459  11.4157578  57.9668045  42.6544943  12.1692655  58.4409189
  42.8600778  10.6842420  58.2325411  70.0083542  21.1131001  58.2817554
  69.6932840  20.3202891  57.8476906  69.2975521  21.7447519  58.1721735
  66.3493784   5.1412531  22.2321327  66.4061220   4.1871305  22.1805008
  66.0485799   5.4106184  21.3642700  72.7363634  49.1128397  18.2336748
  73.5584307  48.6831999  18.4699881  72.7358961  49.1190767  17.2764945
   7.4746439  36.7784595  53.0409002   7.8472730  37.6043892  53.3494806
   8.2337782  36.2520576  52.7901936  69.9093628  20.5026960  41.4168167
  70.6927586  20.1078153  41.7996883  69.3032837  19.7706008  41.3030672
  74.1412210  40.1876688  42.7246571  74.7713614  39.8024797  43.3335829
  74.6318483  40.2979326  41.9101858  61.4873154  61.9687965  35.2702761
  61.2384827  61.5728763  34.4350743  62.4334938  61.8352225  35.3261971
  21.7994997  43.1666660  25.6460977  22.3451826  43.2367420  26.4293885
  22.3208925  42.6438713  25.0369453  72.1619987   2.4632806  51.1664486
  72.5059128   2.1605067  50.3260422  71.5196228   3.1340197  50.9347200
  50.1190097  10.8559509  12.4984749  50.5262144  11.7214962  12.5337227
  50.5898387  10.3428217  13.1551655  23.5413446  56.2040030   0.0224217
  23.0990686  56.9058405   0.4999693  24.3568124  56.6001617  -0.2846472
  51.7668009  34.6935701   7.2970301  52.0585346  34.0689278   6.6329932
  51.2364483  34.1722465   7.8996754  65.9338999  64.0727568  16.7918217
  66.3288879  64.8381472  16.3742197  66.6711807  63.4875917  16.9656730
  38.5448255  46.9137280   4.0966662  37.7963628  46.8097620   3.5091074
  39.3068876  46.7223518   3.5499771  53.5835924  52.8875684   5.9769591
  54.3489446  52.3438250   5.7903917  53.4141245  53.3519100   5.1572664
  83.9686871  58.3673859  61.9761705  83.2321644  57.7562618  61.9590139
  84.7060966  57.8634882  61.6318512  66.2846136  19.1353822  28.7527943
  65.4208565  19.1561139  29.1647792  66.2036657  18.4803176  28.0595636
  77.3525858  51.6519165  55.7151937  77.2375584  50.7065821  55.8118439
  77.4095345  51.7908525  54.7698450  76.4555454  42.3023748  24.9637055
  77.3715734  42.2402000  24.6930504  76.1945152  41.3975573  25.1351690
  49.7252607  19.9241483  55.5627251  49.8356390  19.7560143  54.6268940
  49.2141962  20.7325315  55.6021929  39.0113044  23.5579228  45.6530571
  39.7750783  24.1026807  45.8431053  38.7791228  23.7773824  44.7507524
  79.8768139  23.5540366  50.3304815  79.7945881  22.8573489  50.9817076
  79.0001631  23.9342833  50.2745390  24.9501569  16.5271993   7.2079428
  25.1913793  16.8145891   6.3273485  23.9933593  16.5014787   7.1978005
  77.0198107  49.9307871  60.7024527  77.1289492  50.2267218  61.6061878
  77.7148390  50.3770590  60.2187014  79.5181084  13.5681927  24.1843271
  79.5919752  14.3505549  23.6378050  80.0434399  12.9088593  23.7309599
  52.6221592  70.6178835  68.8218307  53.0311806  71.4501944  68.5847855
  52.7081043  70.5713895  69.7740316  83.7102716  42.7823163   3.7624033
  83.9147823  43.4412387   3.0989035  83.4258955  43.2887644   4.5232399
   5.7563516   9.9486279  47.8869390   5.4195329  10.1316643  48.7640285
   5.1800749  10.4401648  47.3016739  69.4223738  22.1238542  44.1181517
  69.2981339  21.6430163  43.2998657  68.5505295  22.4524236  44.3376207
  42.1721823  71.9280067  71.4700317  42.5800974  71.8496886  72.3324156
  42.6105148  72.6762667  71.0648108  87.0729923   4.6122611  45.9991169
  86.6242790   4.9384359  46.7791796  87.9184532   5.0610328  46.0039043
  65.9554035  72.4718645  45.9178257  66.8062813  72.4122384  45.4834414
  65.8621246  71.6374221  46.3774300   3.7785169  36.2931824  32.3607326
   4.1696474  36.5951371  33.1805348   3.9507887  36.9999194  31.7385769
  81.5336132  33.2884717  37.2883415  82.0156193  34.0455413  37.6211238
  81.4336777  32.7151990  38.0483437  82.8095627   2.0347840  40.6267834
  82.2537422   1.5377617  41.2269974  82.5471878   2.9461345  40.7565117
  69.3071842  24.4771957  59.8078489  68.8638783  23.7197328  59.4258022
  69.7503567  24.1300344  60.5819988  31.1928201  10.0364268  46.9829512
  31.4563084  10.8498275  46.5526199  30.2373123  10.0820601  47.0169115
  82.1846676   0.4472534  33.0940747  83.0572033   0.7994696  32.9184365
  82.2160721  -0.4487067  32.7586627  80.6167793  42.4246216  39.7545838
  80.5244541  41.4754963  39.8374391  80.2015686  42.7753448  40.5425072
  56.5271902  14.9480391  30.4006290  56.0187864  14.1373670  30.3767061
  55.9353542  15.5904484  30.7921314  44.0549500  79.2186180  20.1821327
  44.5288450  78.4058508  20.3583765  44.0107138  79.2678320  19.2272222
  49.6714193  66.3602534  52.0693970  49.4941790  65.4558876  52.3281288
  48.8071711  66.7685571  52.0184469  74.9054670  37.0026278  46.3252544
  74.1685438  36.3923430  46.2982368  75.6680918  36.4670920  46.1065483
  57.4093676  18.6275816  47.3611355  57.7145576  19.0872848  46.5789843
  57.9866219  17.8673899  47.4326944  22.4393484  31.8547988  68.7144089
  23.1313726  31.2057161  68.8409996  22.6507303  32.5540161  69.3329906
  22.3843977  51.0752916  53.2743073  21.8375704  50.8861971  54.0368414
  21.9392797  50.6408787  52.5467205  69.0477180  29.2243433  19.7816396
  68.9922333  29.7761083  19.0014422  68.7609720  29.7917914  20.4971886
   4.9383821  69.8026418   1.8215998   4.9492778  69.7067784   2.7739247
   5.8616438  69.7917150   1.5692003  81.4825153  10.8538210  59.5382214
  81.5736580  11.0290313  58.6016130  81.0510826  10.0004554  59.5813799
  15.2509710  61.2451601  40.5110216  14.5841142  61.3212919  41.1934805
  14.7572252  61.0511112  39.7142839  79.5512247  53.8277197  23.8554764
  79.2518854  53.9315653  24.7587180  79.0352488  54.4619513  23.3577394
  84.3247509  20.0813651  48.8019896  84.2877960  19.1497481  49.0186834
  83.5796165  20.4646373  49.2647266   2.9267237  25.6377125  10.0765073
   3.2873842  26.2282348  10.7378983   3.2396814  25.9910178   9.2437643
  60.1956034  63.9154434  64.8783684  59.5654106  64.5744801  64.5872307
  60.7194757  64.3622637  65.5433083  70.4027128  26.3452911  71.3961744
  70.3784847  26.0456324  72.3049355  70.4519701  25.5407500  70.8799171
  64.6557379  47.9084206  61.9131756  65.3286219  47.6168823  61.2979841
  64.4845963  48.8176584  61.6677618  73.9469767   9.3400216  38.6412644
  74.0843868   8.8112360  39.4272256  74.7835732   9.7837591  38.5018492
  51.7105450  73.2062988  58.1578223  51.1324658  73.3171276  57.4029843
  52.0045342  72.2970204  58.1028954  72.0531082  47.9485893  54.0878296
  71.2967205  48.2865143  53.6083317  72.5566912  47.4665642  53.4318638
  84.3587685  13.0207503  65.5558300  84.7659588  13.1464195  66.4129353
  84.3511581  12.0717418  65.4311037  70.8828783  30.4728150  40.5915499
  71.4736366  30.1871061  39.8946953  70.5984211  31.3459396  40.3214216
  71.0506439  28.5538459  27.2374320  70.9287453  29.3103981  26.6638470
  71.4216471  27.8793097  26.6685820  52.5432427  75.2707365  19.3397200
  52.6869518  74.5334235  19.9329722  51.8292172  75.7657292  19.7414291
  20.2174970  21.6863728  60.5985546  20.4656908  21.0034418  61.2216425
  20.7649538  22.4355388  60.8336639  70.2780533  35.0485444  71.4438581
  70.4745960  35.6850290  72.1312380  69.3411493  34.8763609  71.5376520
   8.9220354  58.5441256  38.4561658   8.5184500  58.1765175  39.2424297
   9.8602793  58.5431242  38.6457062  86.7766666  28.5750389  58.7957621
  87.2153664  29.4135237  58.9396858  87.2013950  28.2128692  58.0181551
   2.1402761  49.5098066  65.5174065   2.5247595  49.5612431  64.6423292
   2.5136968  50.2554560  65.9872913  68.9370186  81.4704053  34.1052556
  68.0669148  81.4944015  34.5034528  68.7700398  81.4960621  33.1630826
  72.2113466   7.9916573  47.4399328  71.8166399   8.3886898  48.2163382
  71.6475821   7.2443247  47.2402048  63.5813608  51.7751359  23.6355599
  63.2116403  52.6472913  23.7729843  64.5185651  51.9284486  23.5157211
  52.4938137  81.1173430  48.8131952  52.6290257  81.7426559  48.1012058
  52.1072895  81.6369039  49.5180988  80.2629757  47.8938484  54.8702526
  80.6547737  47.0316362  54.7312689  81.0073662  48.4953833  54.8864985
  55.6034596  82.4171295  47.7670050  56.1595089  82.3329545  48.5415745
  56.2067635  82.3324421  47.0287085   5.8456568  81.1681645  63.3954334
   6.4852289  80.8387160  64.0268183   6.1313394  80.8088769  62.5554752
  79.6879816   0.8867101  54.0109062  80.2648735   1.4568166  53.5025740
  78.8652515   1.3720432  54.0725279   4.3166181  16.4578927  62.8890657
   4.5354196  15.8911169  63.6287451   3.5095236  16.8982768  63.1553078
  47.4790907   9.6253675  66.7134428  47.5330448  10.5618727  66.9039154
  48.3577681   9.3906403  66.4150095  70.9742975   8.5262752  59.7296381
  71.3890743   8.9675426  60.4709005  70.4403305   9.2042446  59.3155479
  84.6523476  36.8880296  29.5111012  84.5679188  36.0136437  29.1308999
  83.7551975  37.2192383  29.5516205  75.0725317   1.2538196  53.0813551
  75.4836082   0.4310220  53.3464050  74.1525221   1.1512483  53.3248615
  49.7988605  10.4346156  44.8674965  50.4403257  10.9159064  44.3448925
  49.5092392  11.0627449  45.5291653  78.9458036  53.6669683  34.6265173
  79.2811108  54.0639830  33.8226652  78.5030222  52.8704739  34.3336463
  36.9650037  15.9257169  17.4010666  36.0927160  15.9866710  17.7904614
  37.3214586  15.1043077  17.7393826  17.7594771  57.5385634  69.5878833
  18.2573046  56.7462699  69.3862153  16.8571676  57.2353498  69.6885502
  14.2363951  16.7225564  29.2988229  15.1914236  16.6613495  29.2785645
  13.9771387  16.1772382  30.0415516  69.3918562  26.9158006  56.3518572
  69.6947670  26.5935683  55.5029535  69.9900675  26.5199518  56.9856405
   0.1276323  59.2763472  45.0494432  -0.5769327  59.4540167  45.6725359
   0.7452604  58.7301016  45.5356455  13.3581287  69.3466821  34.9658394
  14.1323454  69.7163096  34.5413470  12.9369385  68.8245335  34.2830610
   8.6317274  59.2383337  19.6714056   8.3497354  58.9424896  20.5369616
   7.8257582  59.5250797  19.2419612  84.6311378  58.9865732  48.3187056
  84.2756271  59.6872568  47.7719975  83.9252567  58.3422089  48.3712196
  63.3405972  32.5934720  20.8252072  62.8217602  33.0661941  21.4760327
  62.9385948  31.7258215  20.7826805  55.9044743  22.8063393  57.9396200
  56.2025023  23.6804581  58.1912661  55.9417582  22.2980905  58.7498808
  78.5818005   2.2427146  16.0899341  78.9666033   1.3896793  16.2911558
  78.9401817   2.8301004  16.7553484  17.3467865  16.2174508  59.1780043
  16.4083471  16.3568589  59.3050098  17.5117578  15.3489778  59.5451212
   7.5204012  61.1675835  23.9447689   6.7709371  61.1240435  24.5386100
   7.6265070  62.1009779  23.7610507  64.6691465  59.7090769  33.4179163
  63.8039017  60.0921440  33.2735538  65.0543165  59.6510696  32.5435543
   3.5159513  25.5229330   2.2353184   3.2642481  24.6403313   2.5071481
   2.7887461  26.0772562   2.5183880  77.6373625  64.6285629  70.5386877
  77.2353888  64.2775488  69.7440577  76.9167376  65.0530815  71.0042095
   1.4867422  50.9867477  67.5641680   0.5606481  50.7513666  67.5078011
   1.9136450  50.1999235  67.9031229  75.7957411  44.9797153  16.8521392
  76.2991476  44.3087244  16.3910723  75.6673384  44.6215296  17.7304590
  28.7572987  77.4695566   7.1138710  28.4247048  77.9444870   6.3522589
  28.0419094  77.5041780   7.7488911  77.7975845  68.6667109  48.9551306
  77.4958372  68.0636740  49.6344900  78.3168697  69.3181276  49.4265509
   6.4876482  63.4567404  45.4744053   7.2243807  64.0462399  45.3133249
   5.7129213  64.0119553  45.3862238  77.9431755  82.5348028  54.0065289
  78.3859474  82.9249293  53.2528830  78.6515934  82.1774262  54.5419359
  65.5709648  62.3011303   0.5268024  66.2816858  62.1605062   1.1523712
  65.8692026  63.0323362  -0.0141421  70.8887243  13.6046052  12.9288876
  70.6759167  13.7324131  12.0044374  70.3121424  12.8947234  13.2114708
  87.6443100  79.4930792  35.3972435  88.1736088  78.7531805  35.6949496
  87.3738766  79.9336243  36.2028599  82.9568958  43.6453676  21.1482024
  83.1552696  42.9765654  21.8036270  83.8050842  43.8583899  20.7590652
  18.5293045  13.1767365  10.8526921  19.2654218  13.3083627  11.4502180
  17.7747430  13.5358808  11.3194776  75.7298994  22.5965285  56.0379410
  75.0618124  21.9162917  55.9532785  75.7634592  22.7838397  56.9760370
  74.3527412  42.3837662  30.3580689  74.4938993  41.5394115  30.7862902
  75.0823355  42.4657822  29.7439051   2.9000017  18.2870519  14.4686413
   2.9639837  17.3640990  14.2230868   3.8061926  18.5602427  14.6115744
  10.2456400  39.0936971  47.9074144  11.0307905  38.6295748  48.1978559
   9.6308920  39.0033531  48.6355352  80.2592850  47.0859051  17.8006780
  80.9142590  47.0550156  18.4980178  80.5355644  47.8144503  17.2446895
  23.5190794  67.8577852  52.8646851  23.3102819  66.9683743  52.5790453
  22.8176615  68.0840588  53.4754562   3.0317327  24.8095465  22.7914739
   3.2755586  24.0072417  22.3298597   3.6643049  25.4613423  22.4893975
  83.7522602  55.3844738  36.2819433  83.9125443  54.9622297  35.4379916
  83.2730675  54.7299385  36.7900658  27.2187336  11.3136240   3.4505804
  27.3379715  11.5871807   2.5410851  26.2815864  11.4221855   3.6124476
   8.4913179  59.2646074  61.1376429   9.1764471  59.9319553  61.0992002
   8.9484712  58.4417343  60.9641027   0.6031248  43.9958143  53.4957695
  -0.0800017  43.7797928  54.1305208   1.3340875  44.3097353  54.0280962
  80.7206440  38.4096670  48.7681580  81.3593102  38.3974385  49.4810295
  80.0407124  37.7955031  49.0451670  69.9088287  32.8771591  53.8461208
  70.3761292  32.1550441  53.4261084  68.9837456  32.6483703  53.7560797
  27.3740312  16.3355231  19.0717411  28.0354425  16.9809711  18.8224065
  27.7011415  15.5084503  18.7179315   8.1292650  52.3945045   8.6531711
   8.3913824  51.7615080   7.9847097   8.9511034  52.7895308   8.9443278
  20.4818262  76.0428576  62.7233331  19.5348896  76.1442045  62.8196136
  20.8479132  76.8427471  63.1006758  71.5060520  36.5871000  23.4982443
  71.4449644  37.0631695  24.3264103  71.2586927  35.6892276  23.7193084
  70.8779860  54.0549469  53.8157606  70.4971457  54.4354248  54.6072340
  70.7918453  53.1096411  53.9390802  37.7134384  66.6815023  68.4787820
  37.6865830  66.4761476  69.4133089  37.4062123  67.5863723  68.4234704
  61.2548889  76.2534837  68.9405454  61.9221558  76.5715007  69.5487022
  61.6939892  75.5642108  68.4422250  76.8203068  43.3675337  39.1413665
  76.3222933  43.9088106  38.5288024  77.1561575  43.9865875  39.7896004
  56.3887072  46.7956591  58.8599205  55.9692478  47.3426342  58.1957674
  55.9676027  45.9410715  58.7672567  65.5322075  34.4761705  49.5617199
  66.0911989  34.9652195  48.9579058  65.5191994  33.5865045  49.2087984
  87.0963955  32.0027661  50.1903820  87.4227905  31.6274166  49.3725729
  87.1718597  31.2920070  50.8270597  33.8515493  39.5166922  70.8884573
  33.8948557  38.5617757  70.9383440  34.1256449  39.8145270  71.7558670
  80.8199310  41.2035894  26.6427016  80.0254726  41.3184261  26.1212778
  81.1550999  42.0914984  26.7672610  88.1567400  15.3816792  20.5414867
  87.8172033  14.9483869  21.3245630  87.4950664  15.2157399  19.8700070
  72.5335550  53.5649729  67.6112843  72.4090815  53.6439610  68.5570621
  73.1778193  54.2397833  67.3973131  67.9309750  46.8086386  62.0032597
  68.3599758  47.2662592  61.2802315  68.6465120  46.5641880  62.5901842
  72.7217245  69.5919085  32.0864916  72.5563812  69.1415071  31.2582207
  73.1202459  70.4239416  31.8312860  25.6304762  48.1382418  62.7764368
  26.0588571  48.8777161  62.3452854  26.1416075  47.9966927  63.5732698
  79.4584656  53.9880753  50.3858900  79.5151997  54.8301125  49.9342394
  79.1679716  54.2098999  51.2705612  11.6985628  56.8731976  63.4940910
  11.8585989  55.9844637  63.1766510  11.3374063  57.3361444  62.7381277
   8.9095232  25.3206825  44.1787577   8.0486700  24.9535394  44.3796873
   9.3682787  25.3292179  45.0188160  31.5903432  34.5937916  30.9002121
  30.7142503  34.9157902  30.6880577  31.5477665  34.3800541  31.8322666
  40.6423426   2.4266355  20.5075455  40.1573849   2.4424751  21.3326478
  41.5590525   2.3433185  20.7700920  21.9235346  14.1754031  17.7498245
  21.8099520  15.0501573  18.1214929  22.7608225  13.8726974  18.1013095
   7.4802515   1.2697347  69.0395403   7.1922132   2.1099736  68.6827993
   6.8695471   1.0911474  69.7546482  85.9905148   2.8783098  44.2580652
  86.3266277   3.5356432  44.8673058  86.1673641   3.2428682  43.3908558
  32.1386749   9.0822030  54.9153308  33.0804665   8.9756776  55.0491588
  31.7512447   8.8785554  55.7665984  21.6942903  29.3597054  29.1041183
  22.5748369  28.9917755  29.1783166  21.3144705  29.2495847  29.9758029
   5.6457009  51.1403779  57.3433952   5.3444828  51.7467908  58.0199770
   5.6633581  51.6645042  56.5426378  73.4864283  29.9471259  19.0429664
  74.1656971  30.6162214  19.1274619  73.3530235  29.8590994  18.0992043
  87.0701694  24.4447255  25.2329803  87.9827785  24.1560125  25.2377081
  86.9396305  24.8402882  26.0947919  79.5221519  20.9576344  21.4248061
  79.7586441  21.8839383  21.3772130  79.7614574  20.6947017  22.3135304
  72.2278070  18.1044567  27.9801893  71.2988138  18.2980406  27.8547740
  72.2402763  17.3992145  28.6272669  16.2457773  26.4396024  39.5376515
  15.9091589  25.5909729  39.2499876  17.0386240  26.2281919  40.0305319
  15.5078432  33.1739807   9.9511081  14.9510214  33.8417816  10.3513885
  15.4462168  32.4243951  10.5431831  75.0118637  21.4337373  24.6911335
  75.8332205  21.2168622  24.2500329  74.6784687  20.5926466  25.0036144
  13.1455919  13.4450686  33.8251925  14.0230963  13.4862244  34.2053628
  12.8361532  12.5631559  34.0318561  79.0708923  44.4810438  18.5492170
  79.4893599  44.5182037  19.4092941  79.1604567  45.3680515  18.2007551
  59.3470478   3.3500978  46.4138651  60.0434875   3.1767261  47.0472240
  59.5396328   4.2262506  46.0799503  25.0307932  65.3634213   1.4156445
  24.7744646  65.4979442   0.5032690  24.7518053  64.4694089   1.6134890
  71.1859417   7.4486750  38.4542632  72.0443773   7.8491551  38.3166671
  71.3685226   6.6607195  38.9661455  64.4639683  12.1120024  31.8655682
  64.0502071  11.7289126  32.6390529  63.9152956  12.8658652  31.6490412
  48.9366896  70.0095573  46.9123363  48.3709890  69.2463830  47.0297289
  48.8019735  70.5314878  47.7033329  77.7585506  38.9128900  57.2814083
  76.9889784  38.3963490  57.5205231  77.4010038  39.6938205  56.8588686
  70.5063088  79.8019841   4.5974249  71.3348801  80.2622726   4.4638491
  69.8540909  80.4988715   4.6694592   0.1836828  82.4047510  23.0774999
   0.2551893  81.4831331  22.8290272  -0.3801676  82.7905177  22.4070549
  15.7644064  78.5182655  28.8524389  16.2785513  79.1992435  28.4186649
  16.2576801  78.3154911  29.6472955  45.5941868  24.0643978  46.4994717
  46.0808468  23.3964562  46.9824266  46.1989069  24.3544197  45.8165121
  63.1066418   8.8566530   2.9811409  63.0970621   8.0673265   2.4397498
  64.0304804   8.9907652   3.1927288  59.3607552  74.8252365  20.5539227
  58.5077698  74.9493173  20.1377010  59.9220402  75.4884031  20.1521683
  48.0048926  56.0212591  35.2141118  48.6654074  56.0829523  34.5240808
  48.1063635  56.8301061  35.7158089  71.8308496  53.9237738  37.0495844
  72.7538157  53.7092733  37.1850681  71.6963482  54.7292519  37.5489283
  72.5756454  39.1439271  35.5221415  73.0266142  38.7067556  36.2444592
  71.8419600  38.5658526  35.3129411  28.0375280  57.3848163   1.6691836
  28.2937612  56.4654444   1.5961893  27.7383127  57.4789904   2.5735291
   7.9826280  60.4234409   5.9372520   8.3695051  60.4843664   5.0638419
   7.1700498  60.9254885   5.8748293  50.2992327   1.5506650  69.4926972
  50.8054955   2.1858550  69.9991195  49.7127421   2.0844985  68.9567123
  34.1226506  15.7063305  18.2795954  34.3107176  14.9794745  17.6858425
  33.4025288  15.3898621  18.8250339  28.1192667  77.4651083  11.9488513
  27.7098257  76.9654706  12.6552153  27.5144846  78.1888756  11.7856705
  64.5846033  12.7787483  26.8729496  64.2787123  12.2815466  27.6315355
  65.4948568  12.5055742  26.7587304  67.8090429  28.4066033   5.0866836
  66.8763018  28.2618546   4.9277067  67.8343964  29.0265322   5.8155721
  46.9702911   7.1710449  36.4162636  47.5989962   6.4523160  36.4825463
  47.3132133   7.8442007  37.0040536  70.8531046  46.6959238  31.2835932
  70.1668072  46.0956764  31.5750265  71.6661835  46.3013124  31.5988946
  18.0330934  59.3314647   4.7508391  17.6392498  58.4590470   4.7481497
  18.6340465  59.3252586   4.0058239  60.3158903  18.3487630  20.3811741
  59.8090696  17.7453005  19.8378539  59.6606016  18.7994874  20.9137893
  44.1331751  70.4421189   4.0522030  43.8748486  69.7207335   3.4785306
  44.0695555  70.0799242   4.9359447  47.9266913   3.9424039  46.4510671
  47.4651796   4.6964027  46.8181245  47.5647909   3.8456441  45.5702154
  34.6222241  76.5661803  20.4071903  34.5738632  77.3698530  20.9248805
  33.7088520  76.3329670  20.2410626  86.4348793  33.2522464  33.7240767
  87.3741722  33.2863116  33.9052010  86.3690567  33.3734608  32.7768660
  21.6157076   1.1836432  36.1290145  22.0401975   0.3388904  35.9792233
  22.3291227   1.7680652  36.3853836   4.9065706  31.3044286  35.2270770
   4.6067068  32.2095680  35.1431918   5.8592626  31.3725996  35.2900696
   6.3195440  25.1763749  67.6628590   7.2634527  25.1035500  67.5216055
   6.2217352  25.9313440  68.2431078  57.8411913  35.8323669  23.8212776
  57.9737139  36.6201329  24.3486238  58.0135059  35.1089311  24.4239211
  15.4970857  21.3238788  19.8358405  14.8390791  21.0601044  20.4790258
  15.7924387  22.1840596  20.1343179  67.0327950  29.8109365  39.6404314
  66.3530254  29.3121815  39.1872311  67.7564907  29.8522878  39.0153027
   0.1857874  44.4067335  33.0403709   0.9581301  44.9625683  33.1441522
  -0.2809504  44.4875002  33.8721585  28.7441435   4.0510842   5.7312006
  29.2923441   4.4781014   6.3895023  29.3477430   3.8350961   5.0203943
  21.7474577  47.6968002  24.4985938  21.3864919  46.8105555  24.4761038
  21.3703558  48.1285381  23.7320280  82.7401638  25.4023409  41.7943954
  83.3832359  24.7691751  41.4753532  83.0892467  26.2530017  41.5284204
  19.5090696  28.9604688  23.8150263  18.8830778  29.5100164  24.2865801
  20.1330873  28.6797547  24.4843793  41.7942926   3.8790765  44.6108294
  41.5391752   4.6377701  45.1357412  41.7376825   4.1843134  43.7053680
  47.5981218  75.0363490  59.8597050  46.6989596  75.3637370  59.8361063
  47.5323803  74.1869691  60.2961254  68.5537481  65.9987497  16.0755193
  69.1464663  65.3088951  15.7771635  69.1129875  66.7694616  16.1729038
  73.0019569  19.2567110  45.9603405  72.8670931  18.3427036  46.2106085
  72.1489525  19.6699715  46.0938787  13.3738157  30.7909322  21.5899181
  13.3413526  31.7471933  21.6171837  14.3064615  30.5846095  21.5279603
   4.5025369   8.3719575  34.4417882   3.7023184   8.4228903  33.9190269
   4.2867967   8.8283283  35.2550602  45.2654219  30.7707238  20.6046343
  45.8075428  31.5164018  20.8621192  44.6523428  30.6581545  21.3310599
  62.3389053  53.4508085  43.8457060  61.8967915  52.9224634  43.1811571
  62.0223761  54.3412161  43.6933613  21.8192281  38.9256557   9.0542896
  22.6437368  38.5719325   8.7206944  21.4353361  39.3839686   8.3067520
  85.0028706  53.4766626  16.1075473  85.7176971  54.0654516  16.3495910
  84.5664978  53.2766485  16.9356763  24.1008398  31.1108780  18.6911798
  23.5580942  30.3592348  18.9292848  24.9999830  30.7953429  18.7817967
  10.3970739   9.2727327  33.3747911  10.5221292   8.5583365  32.7501082
  10.8914491   9.0033007  34.1488910  77.3427105  17.7260530  48.7261724
  77.6210690  17.3965287  47.8716755  77.3520565  16.9559026  49.2945147
   0.9419748  27.8718567  54.4584560   0.8198664  27.4666047  55.3169966
   0.5489752  28.7403107  54.5454502  29.0737459  40.6883478  10.0489628
  28.9085695  40.2020073   9.2412370  30.0177023  40.8469439  10.0442708
  64.5381117  15.9498191  62.1333599  65.2442026  15.9701014  61.4874077
  63.7371111  15.9043574  61.6112804  84.9789429   0.5380148  35.3742671
  85.3661728  -0.3108188  35.5882049  85.6915379   1.0305305  34.9669933
   7.8114626  62.7067423  28.3476329   7.9590532  62.9619169  27.4369574
   8.2264349  61.8477345  28.4259391  67.8530264   7.3936445  53.7988043
  68.3136749   7.6754874  53.0084896  68.0751419   6.4668381  53.8878393
  80.6092579  79.6322006  26.1296082  79.7503788  79.2435691  25.9636879
  80.5772717  79.9008149  27.0477867  13.6599848  19.2728317  43.5816431
  14.5526048  18.9969218  43.3734417  13.1871435  19.1996336  42.7526093
   8.4885237  66.6141701  47.4907017   9.0454218  66.8376350  48.2364607
   8.7702581  65.7354879  47.2361898   1.4922449  17.1045709  47.0182467
   1.7764208  17.3185408  47.9068947   0.5901262  17.4212933  46.9724798
  12.4542734  37.4665928  41.7126036  12.4407503  36.8434167  40.9861755
  11.5450880  37.5087142  42.0089912  75.8643579  34.1142511  53.1234169
  76.1783695  34.7529626  53.7634754  76.1645699  33.2700944  53.4603262
  50.4006441   2.6246496   2.8654154  50.7235487   2.2754236   2.0347460
  50.6685407   3.5435768   2.8592165  59.5049412  67.6250389  49.3012476
  59.4701607  68.2397655  50.0341415  59.4814427  68.1800881  48.5217619
  20.4491748  75.4122018  13.9724167  19.6452083  75.1949047  13.5005577
  20.3425684  76.3315891  14.2165383  68.4025764   6.5866357  57.7080965
  67.7357721   6.1119688  58.2043791  68.1029749   7.4957258  57.7130890
  46.8259365  68.7691989  24.9186826  47.2463162  68.0888012  25.4445863
  45.9184963  68.4775534  24.8307800  15.9932253  25.9604812  46.1462831
  16.9314501  26.1301088  46.0614872  15.8772966  25.0762844  45.7984495
   5.1392671   3.1248981  42.6237202   4.3964407   3.6318287  42.9515457
   5.8960077   3.4798717  43.0901670  62.5800037  14.5231068  14.0706837
  61.6847706  14.6438730  14.3872273  62.6415825  15.0921631  13.3034718
  24.4031126  59.2775467  29.3215299  24.6387751  60.2044919  29.2832422
  23.5805971  59.2192534  28.8354206  71.9602489  28.9654613  45.0507355
  72.7182293  29.1681552  45.5990171  71.9070816  29.6969676  44.4356680
   9.4691965  34.6289563  33.8700223   9.0996286  34.0735793  33.1835818
  10.3903887  34.7266626  33.6289930  86.3364983  13.1933224  41.3015795
  86.1108875  12.5494552  41.9729710  86.1770630  12.7412987  40.4730368
  64.2912102  20.6416678  57.3725891  64.6115685  20.8182240  58.2571363
  63.6405706  21.3252664  57.2126007  51.8693113   8.5160136  44.5018291
  51.0232973   8.9486569  44.6172190  52.5054359   9.2312461  44.4972086
  80.5181915  83.1789888  39.8035169  80.9213669  82.8378307  40.6018257
  81.2076599  83.1185558  39.1422987  86.4387417  15.3247476  45.9596252
  87.0247650  14.5824337  46.1072206  85.7408619  15.2109289  46.6047859
  73.3397675   6.2216169  41.3819027  72.7973080   5.9624100  40.6370687
  74.1021299   6.6449493  40.9871578  66.1125486  73.4185790  30.5626400
  65.3453176  73.9728831  30.7052429  65.8140843  72.7506660  29.9453552
  69.6107677  14.5239532  64.3756866  68.7390462  14.8012400  64.0938234
  69.6079043  14.6523428  65.3242302  45.3803163   1.1485192  33.1091952
  45.9399729   1.6146371  32.4881077  45.6892269   1.4322373  33.9696074
   2.9669654  24.9933887  59.4279146   2.7230862  24.6508646  58.5680103
   2.2331133  25.5542040  59.6792650  50.5399292  52.0477485   2.2439440
  51.1894219  51.4139645   2.5484284  50.1301806  52.3744034   3.0449684
  86.2460218   8.6767622   2.7905996  85.5989395   8.1120868   2.3679121
  87.0856105   8.3890005   2.4320992   2.2258595  10.3798950  62.4108315
   1.2739587  10.2795696  62.4180031   2.5481808   9.6440500  62.9312849
  86.1082598  70.4920076  38.1987866  85.9498759  69.7236227  37.6504048
  85.9579655  71.2368249  37.6166447   0.6701737  52.1526051  37.9078364
   0.7530013  51.4282513  38.5280681   0.7985058  52.9385376  38.4389377
  61.8923252  66.5019535  29.2500408  62.6321524  67.0582603  29.0063007
  61.2168234  66.7046284  28.6028584  29.2278409  50.0666909   2.8092583
  30.0471813  50.5094825   2.5882395  29.3341603  49.1800975   2.4644669
  81.2042561  62.1889973  58.7862873  82.0496771  61.9005537  59.1302299
  80.6599072  62.3150635  59.5634794   9.5237213   4.6815240  62.7043056
  10.1463759   4.9859384  62.0441008   9.2759430   3.8039604  62.4132347
  76.0024517  57.9154192  14.3162354  76.7743318  58.2263993  14.7892292
  75.6660622  57.1974551  14.8525150  10.2674568  76.3447523  55.7266045
  10.6361258  76.0430670  54.8963642   9.9686605  77.2360468  55.5461931
  84.9242990  67.0300363  24.4317063  85.0248068  66.2824487  25.0209816
  84.9934118  67.7956055  25.0021084   8.8292211  42.3428726  30.0028062
   8.2998502  42.6555777  29.2691755   9.7337955  42.4701166  29.7168255
  82.0228706   7.2462459  15.8404930  81.5987979   7.0715423  15.0003250
  81.9579016   8.1950708  15.9488590  10.7900643  34.8386073  54.1961241
  10.2431297  34.1222000  53.8738585  11.6333771  34.7101331  53.7619019
  78.0397204  69.6422386  64.9012184  77.8880325  70.5265903  64.5678282
  78.8938657  69.6913290  65.3304720  45.6659608  37.6457014  13.3196934
  45.8167749  38.5416179  13.6210545  46.1141198  37.5984277  12.4752148
  16.6654287   5.7241483   4.9796780  17.1621881   6.0220047   4.2176111
  17.0506988   4.8761125   5.2002056  34.0626242  50.4703932  13.3714302
  33.3912667  50.3793072  14.0476044  34.8798578  50.2384912  13.8125427
  11.3671701  33.8513403  10.5666359  10.7272284  33.7654995   9.8599919
  11.9073098  34.5991181  10.3110798  15.5551565  22.7407336  69.4856882
  15.7276213  21.9997215  68.9048386  16.0233879  23.4731674  69.0850258
  48.8388520  49.7091852   0.7640751  49.4142955  49.8428773   0.0109299
  48.1548016  49.1223656   0.4416569  13.1746912  49.7412777  56.8406200
  12.9788053  50.6024027  57.2098446  13.0573618  49.1348267  57.5718355
  37.3169916  82.0694207   2.8772267  37.3116910  81.1136268   2.9288490
  37.5502538  82.2589062   1.9684275  65.2568524  77.4483918  40.9786995
  65.9779303  77.6092814  41.5872963  64.8821419  76.6157817  41.2660702
  46.5699523  63.1206940  12.4760826  45.9188395  63.6672996  12.0361908
  46.1561995  62.8741072  13.3032711  78.9999470  69.0031767  68.6100149
  79.2548093  69.8738718  68.9152384  79.5967886  68.8194704  67.8845739
  68.1983774  56.0784506  12.2980602  68.9090031  56.6956114  12.4722775
  67.4194615  56.5020286  12.6587589  63.3046986  16.6465517  17.8498181
  63.8742505  17.3757692  18.0949314  63.9041702  15.9175630  17.6902969
   4.3618995  42.0382023  61.5457296   3.5702616  41.9816303  62.0808411
   4.9938807  41.4751434  61.9927168  59.1841953  53.1653332   6.1290177
  59.1547387  53.2743906   5.1785048  59.4147532  52.2452437   6.2575014
  82.0781395  48.3661461  61.2483168  82.3893824  48.5302496  62.1385050
  82.4090204  47.4934196  61.0359716  36.8260322   7.6414915   2.3832806
  36.5793596   8.5598989   2.2741278  37.7372347   7.6020761   2.0927818
  76.9849168  14.8094269   2.0377262  77.8504275  15.1448580   2.2714146
  76.5966223  14.5465036   2.8721865  58.4431117  62.8390693   1.3715895
  58.7652247  62.6158403   0.4982956  59.1900866  63.2531594   1.8037851
  60.0426524  67.5414895  13.1110294  59.3737047  67.8402137  13.7270649
  59.6233385  66.8285226  12.6292713  26.7266464  47.8435993  51.2484741
  27.6195979  48.1819868  51.1824322  26.8358231  46.8984318  51.3532114
  71.6022287  60.8759065  12.7515610  71.0100542  60.7483335  12.0104225
  71.7911695  61.8142744  12.7484043  66.5621059  64.7285532  10.6379040
  65.9989398  65.0838374  11.3255509  66.1932867  63.8658809  10.4481609
  13.0592930  41.5981007  59.5085907  12.4538875  41.0402679  59.0201902
  12.5328183  41.9535303  60.2246428  75.5818670  80.1268052  28.3914765
  76.3540476  79.5636605  28.4447392  75.7909267  80.8736395  28.9525231
  29.6627460  10.2791258  17.9903801  29.7531234   9.6068664  17.3150070
  29.9127351   9.8380752  18.8023003  54.9671128  35.7144356  67.1403980
  54.0103725  35.6910348  67.1586514  55.1834634  35.9656906  66.2424564
   2.0749867  64.8555946  68.6587906   1.4379156  65.5696249  68.6817980
   1.9598953  64.4596672  67.7949476  30.4622033  60.7432722  17.8008564
  29.9361694  60.1377319  18.3232029  29.9914596  61.5751337  17.8522404
  32.8454953  51.5918421  37.3172959  33.2967984  52.4091851  37.5282677
  32.3795559  51.3611727  38.1209858  19.3495693  40.4549228   4.2565544
  19.1105594  40.8482854   3.4172876  18.7751283  39.6934265   4.3364008
  53.3462160  69.5557045  18.9806755  54.1610067  69.1059588  18.7568863
  53.6147921  70.2562903  19.5750435   1.9108599  47.5198269  67.7149677
   2.6083636  47.5497913  68.3698130   2.2638956  48.0013323  66.9668055
  40.3943539  19.8440659  64.4204092  39.9005246  19.8531890  63.6004829
  40.1076508  20.6323910  64.8814678  76.9293402  17.1045109  20.8294399
  76.5630041  17.9766079  20.6828983  76.4506684  16.7678352  21.5869053
  12.1011806  23.7455893  71.2839127  12.2665727  22.8272676  71.0704565
  12.8553247  24.0084147  71.8115711  17.2104430  50.7141447  50.6451750
  17.9394388  51.3234901  50.7613468  16.5052342  51.2506199  50.2830887
  58.6326402  72.7505373   5.6234940  58.3726280  72.6865815   4.7045096
  59.0635555  71.9162153   5.8091076   3.8159599  73.7872981  39.8649605
   3.0998649  73.1659149  39.7333344   4.0151920  73.7287163  40.7993611
  17.1480167  31.9005775  55.2341461  17.9035926  31.8575740  54.6480656
  17.0722878  31.0162568  55.5925798  63.1945651   7.1819779  66.5915155
  63.2723205   6.6448400  67.3799801  62.2515672   7.2603223  66.4471197
   3.2838304  20.9245821  26.5805157   2.3819144  21.2166973  26.7126187
   3.6033113  20.7279344  27.4611385  12.4963605  32.3547983  53.2850027
  12.9928327  32.1615100  54.0802288  13.0991685  32.8653550  52.7444601
  29.3757734  54.8724412   1.6976317  29.1718661  54.3806313   2.4931057
  30.2723055  54.6164666   1.4809807  24.8702918  13.7673279   6.0208042
  24.8537861  14.4813247   6.6581162  25.8005200  13.6211773   5.8488997
  58.4451631  41.8180895  66.9249487  57.7935198  41.6980505  66.2341642
  58.2044676  42.6463795  67.3399591  76.0929869  16.3053318  11.2805756
  75.2614210  16.1256262  11.7192562  76.7572342  15.9522863  11.8724926
  83.2228575   8.2745643  12.5897415  82.4086653   7.9090830  12.9357823
  83.0444060   8.4196373  11.6605766   3.7972200  38.0339766  70.5166912
   3.6078393  38.9526868  70.3260708   3.3607838  37.8678298  71.3522482
  61.6008752  67.5156878   7.9878624  61.7923348  67.5068926   8.9256771
  60.9548324  66.8194984   7.8687628  85.8380815  80.6766891  31.5486598
  84.9070433  80.4748631  31.4555764  86.1102642  80.9596443  30.6756854
  84.5164597  61.0782766  62.0943928  84.3394843  60.9755850  63.0294704
  84.2280001  60.2532768  61.7040157  65.4498911  55.7070875  61.6414976
  64.5523357  55.3744888  61.6381502  65.4080582  56.5144300  61.1289740
   4.7056110  26.4713236  21.4368446   5.2828128  27.1782776  21.7254360
   4.8241146  26.4377781  20.4876049  61.3424767  19.7353550   7.8376301
  62.0955895  19.3086286   8.2462319  60.9052503  19.0359302   7.3519667
   0.6582625  27.7153869  27.0406731   1.4964850  27.5164457  27.4578484
   0.0070102  27.5566765  27.7239807  19.6712959  24.3341732  68.2635546
  19.6887898  24.7503185  67.4017239  19.9684000  25.0167918  68.8652134
  12.1810794  38.2369828  59.8462677  11.2370217  38.3208704  59.7122955
  12.3339796  37.2930431  59.8890400  37.4721837  21.8096876  48.1596708
  38.2497382  21.5617919  47.6594782  36.9803619  22.3813605  47.5701475
  36.5575123  75.5686426  67.2119188  36.6631746  75.3134060  66.2954473
  36.7407179  74.7694111  67.7057791  62.3688619  80.8564447  45.8519276
  63.0337279  81.4211344  46.2460240  61.5360682  81.2275957  46.1433705
  74.7963391   7.7822252   1.4196642  74.4148122   7.6653715   2.2897299
  75.1793574   8.6591717   1.4418991  17.5021935  34.0588760  56.9984961
  17.2582066  33.2559276  56.5380907  16.6715240  34.4179821  57.3103666
  41.2370300  78.4612656  51.3532782  40.4245234  78.2099628  51.7924929
  41.8126535  78.7501049  52.0614195  22.5439460   0.6647344   5.2049168
  23.3990295   0.6929727   5.6341751  22.2820146  -0.2546696   5.2530821
  10.1292014  73.8352871  71.1561346  10.7996631  73.3153772  71.5993118
  10.3615046  74.7429371  71.3521767  73.5388153  79.8681830  17.0565518
  72.8788584  80.5581783  17.1243389  74.3671339  80.3377937  16.9586380
  85.5912076  10.2683397  12.6893623  86.2021242   9.9494930  13.3537110
  84.9867903   9.5392700  12.5501736  37.0041728  10.4074919  64.7097349
  37.4129844   9.5426363  64.6761274  36.1225605  10.2693009  64.3634796
  49.1495328  71.8804287  16.4685734  50.0039595  71.8703388  16.8999489
  48.5511082  72.2267889  17.1304997  18.1781518  67.7863359  67.2909737
  18.1128561  66.8373013  67.3972893  17.2916055  68.0629301  67.0591021
  20.7579238  26.8533178  38.9432629  20.7745225  27.1571298  38.0357083
  21.1496742  25.9805580  38.9108856  10.7089860  41.1404844  24.6201332
  10.1351244  40.3966089  24.4369228  11.5653093  40.8696028  24.2891415
  27.0628632  57.0597886  31.3493641  26.2125566  56.6294860  31.2596424
  27.3143459  57.2825204  30.4530533   1.9515736  31.0645815  63.3788307
   1.4722068  31.8648144  63.5934647   1.5822251  30.4006668  63.9610966
  49.7925060  63.4591316   3.7148579  49.6182506  62.5894259   4.0746887
  50.3261226  63.8916420   4.3815048  67.2449992  36.3882251  40.6520756
  66.5687494  35.9214016  40.1611622  67.4150286  35.8328863  41.4129456
  42.1343451  75.5848073  16.7847450  41.6614240  76.0779976  17.4550732
  42.3956864  74.7749351  17.2229679  32.3996639  33.9904809  56.4595985
  32.9789209  34.6232128  56.0349274  31.5287280  34.1983843  56.1212492
  35.5833625  72.7508138   5.0933846  35.0474124  72.3968982   5.8031281
  35.1235955  72.4927353   4.2944868  15.6476505  35.7698770  13.9459522
  16.2815912  36.4782139  14.0582569  15.2947862  35.6228872  14.8235138
  35.0684237  53.8693618   9.2460735  34.2246132  54.3210183   9.2311867
  34.8531323  52.9673611   9.4832905  46.5908831  72.8352712  40.0875672
  45.8841830  73.0678152  40.6898411  46.4384430  73.3821224  39.3168934
  44.9445217  49.2047857  21.1019619  45.6105988  48.6417573  21.4963921
  44.2997568  48.5963326  20.7409962  29.6377158  38.3838010  69.5454788
  28.8335299  38.6752653  69.9750900  30.0954485  37.8744197  70.2142429
  45.9991026  27.2473645  47.1294832  46.0242176  26.4449382  47.6507473
  46.4481783  27.0185113  46.3157320  81.3478360  21.1966586  63.1166697
  81.6036949  21.6100287  62.2921133  82.1765646  20.9615183  63.5339832
  70.5916613  17.0787427  70.5723381  70.4729479  17.3400304  69.6591759
  69.8348444  16.5246484  70.7632399  47.1014862  78.8771938   3.9878138
  46.2751024  79.2519068   3.6829956  47.5405198  79.5992802   4.4373425
  82.4804657  82.2989701  29.4652470  82.6432913  82.3843669  28.5258778
  81.9554632  83.0676698  29.6881874  16.9189556  30.8885952  17.1707161
  17.5473554  30.2492853  17.5063046  16.0856874  30.4179378  17.1512421
  26.0429978  44.0449524  66.5075588  26.6800761  43.4827471  66.9483328
  26.4745545  44.3032598  65.6931448  35.2485466  72.0031023  14.7431195
  35.4787517  72.6782227  15.3814399  34.3125272  71.8551254  14.8780310
  56.4948140   5.8701940  21.1266049  57.1058702   6.3087316  21.7186649
  56.6456145   4.9366995  21.2751873  21.9513117  77.5406216   0.4953869
  21.7327046  77.7116536  -0.4206840  22.0892446  76.5942858   0.5360516
  79.5566951  32.6977964  21.8583210  78.8338362  32.7931686  22.4784859
  80.3031598  33.1072994  22.2957333  78.9713012  25.7132002  37.9720410
  78.6542760  25.3287836  37.1547611  79.5085321  25.0265356  38.3671482
   0.6982954  34.2601057   8.6445435   1.1921246  33.9286419   7.8945501
  -0.1229303  34.5777221   8.2691296  10.6789548  36.7111440  29.4726952
  10.2897341  36.1161037  28.8318546  11.4916189  36.2800308  29.7371681
  58.2436626  46.9109904  19.4019421  57.3061221  46.9549941  19.2140301
  58.4358280  45.9742149  19.4438561  71.6423224  21.2695404   4.8542555
  71.1530052  21.2544199   4.0317114  71.4425789  22.1242519   5.2360876
  24.1897988  49.1340685  66.8902874  24.0117240  49.3966150  65.9871864
  24.6628952  48.3058310  66.8100786  66.2253974  31.5055223  10.6659039
  66.3577984  32.4418731  10.5177506  65.8905707  31.4496275  11.5608891
  29.4198227  56.7346668  69.5774937  28.8318467  56.4246702  70.2662754
  29.2177963  57.6663446  69.4915056  85.7775007  54.3471761  23.0809219
  85.5435835  55.2739187  23.1325825  84.9764405  53.8839479  23.3257683
  72.6773213   8.2506271  16.2084683  72.0659052   8.9797922  16.3120087
  72.1173487   7.4842258  16.0848053  13.0883610  25.4533172  31.4620829
  13.1418419  24.5886946  31.0548973  12.1583331  25.5693746  31.6565323
  18.0587213  65.3223108  37.6499947  18.3860915  66.2216114  37.6321324
  18.5041695  64.8907422  36.9209107  76.6251133  27.6858516  35.0538357
  76.2255440  27.8563734  34.2008980  77.4203132  27.1929308  34.8515518
  84.0515528  22.5720926  28.7162407  83.1973038  22.1783205  28.8935288
  83.9523040  22.9829403  27.8574093  14.6414907  29.4884296  17.1838768
  14.1413982  28.8618036  17.7068337  14.1340263  29.5869680  16.3782795
  46.4360111  82.4492978  13.3443649  45.5098646  82.4288701  13.1033905
  46.6283100  83.3774136  13.4780033  48.4894197   3.4780976  39.3175983
  49.4204586   3.6081597  39.4978213  48.3756965   3.7787911  38.4159970
  54.2873688  13.6842437  20.5540093  54.4624431  14.1843792  19.7568615
  53.8361923  14.3015762  21.1298378  83.8618773  31.4766860  47.8070879
  84.3440443  31.9728112  47.1455669  83.8179433  30.5877090  47.4549150
  86.4702402  16.1443086  16.0970314  86.9288002  16.9763656  16.2137802
  86.4747821  15.9990211  15.1509293   2.8377254   7.3022886  16.2983711
   2.1067793   7.0307060  15.7432182   3.5858591   6.8033310  15.9703930
  41.9548958  77.4507831   2.2408541  41.0834806  77.3671221   1.8537243
  42.5388401  77.5727128   1.4922722  44.3859816   3.0014262  62.6467609
  44.4951773   2.5050116  61.8356657  44.6522474   3.8924304  62.4199438
  73.3740519  15.7549759  12.2188671  73.7226353  15.8581682  13.1043442
  72.4576281  16.0221811  12.2895821  52.1908563  69.6021413   7.0751389
  51.7439883  70.0801920   6.3765629  52.3169368  70.2514743   7.7670200
  54.8921156  24.8020697  62.7762699  54.2209530  25.1599646  62.1951675
  55.7110405  25.1834941  62.4598742   7.6236469  45.5176544  35.6460857
   8.4863263  45.3712749  35.2580285   7.8087384  45.8961201  36.5055847
  75.5743359  36.4978262   4.9450167  74.8446546  36.5528389   5.5620821
  76.2665044  37.0242401   5.3450449  44.5993309  76.4922785  18.4009846
  43.9120143  76.5243362  17.7355488  45.0041204  77.3590921  18.3691700
  21.4023311  20.3265663  23.7788685  21.7381008  19.5473953  23.3357151
  20.6509788  20.5971571  23.2511624  81.1852425  76.0347675  47.4998673
  80.8574932  75.5035042  46.7742165  81.9424742  75.5502056  47.8285511
  78.2233725   1.6794248  22.1239193  78.4711622   1.8936010  23.0233391
  78.9559875   1.1613794  21.7905529  45.2634764  18.0276167  61.9513607
  45.7130957  18.3620477  62.7273941  44.4349480  18.5064650  61.9296074
  43.7231617  79.1454695  16.9465359  44.4218045  79.5782303  16.4557751
  43.2651692  78.6153744  16.2942513  27.9955806  73.4612821   0.9574230
  28.4063821  72.7654170   1.4704998  28.5905088  74.2060827   1.0443934
  47.9952376  81.3301634   0.2630051  48.4230452  81.9636058   0.8391722
  48.2333045  80.4771279   0.6261690  33.3657365  47.5729297  23.7001427
  32.7816152  46.8230783  23.8130863  32.9724731  48.2650762  24.2316540
  23.3813167  46.7779589  61.4683437  23.4533381  47.0787191  60.5624819
  24.1560531  47.1358538  61.9018507  44.0818916  10.8361288  26.2959583
  44.0750359  10.6802603  25.3515537  44.9887679  10.6779619  26.5582379
  15.2614391  23.4742308  42.1931410  16.1404145  23.4879494  41.8143988
  15.4084325  23.4370422  43.1382561   3.1667584  49.7488546  62.7590418
   3.7307054  50.5208015  62.8069878   2.6388553  49.8863792  61.9725084
  49.7449057  81.6399049   9.8883064  48.8345032  81.6858434   9.5962628
  49.6990435  81.2292098  10.7517059  20.5811024  46.1048698  69.3552494
  20.7179689  45.4852009  70.0718451  20.0837445  45.6110764  68.7033033
   8.9571661  33.6624241  42.6399088   8.1685650  34.1831613  42.4876833
   8.6665219  32.7550817  42.5477791  66.6987870  25.0039240  24.6481045
  66.0062693  24.5359274  25.1146038  67.2504084  25.3678127  25.3405865
  41.2409544  33.7965393  64.0838909  40.8134508  33.3663011  63.3433723
  40.9915066  33.2700539  64.8433781  37.4525296  69.4229482  20.4751595
  38.3832496  69.5934223  20.6198319  37.3463976  68.4918903  20.6703480
  61.9031013  15.0432583   3.5063990  61.7381050  15.9728094   3.6643322
  61.1227171  14.7365471   3.0447062  53.6031192  45.3579156   2.9430063
  53.2821935  44.5643865   2.5145777  54.4807117  45.1273467   3.2477959
   8.2359004  72.6864004  35.1905179   9.1319650  73.0057526  35.0841451
   7.9732209  72.9944754  36.0578847  53.3420842  47.2042291   1.3012655
  53.3627217  46.4915271   1.9399079  52.4505203  47.5483816   1.3551577
  35.6407595  71.1355209  66.3946486  35.4640031  72.0005941  66.0249949
  34.8151112  70.6608200  66.2987518   0.5185874  16.4251276  13.5202988
   1.2514026  15.8574100  13.7588509   0.8981259  17.0664259  12.9195316
  10.7206335  70.6152056  17.7163513  10.7397976  69.8159765  18.2427509
  11.5406503  70.5967401  17.2229298  87.9583131  19.8269840  20.8677776
  88.2784353  20.6193777  20.4366596  88.1126247  19.1289850  20.2312096
  37.9962843  72.8767465   3.1843575  37.6788633  73.4242700   2.4662407
  37.8006320  73.3806680   3.9743050  30.5011946  77.2338771   2.1405895
  29.7143140  77.3230671   2.6782663  31.2126406  77.1304201   2.7725466
  16.3098300  76.4547300  65.5451345  15.4141724  76.3220072  65.8556414
  16.4989483  77.3716927  65.7442474  21.0019851  47.8656292  53.7232828
  21.9128108  47.6277447  53.5499573  20.4911208  47.1527576  53.3397913
  66.5687387  52.0619722   0.6149490  66.2379686  52.1912237   1.5038355
  66.1873345  51.2294908   0.3361471  50.0186866  62.4647259  37.0208557
  49.4364589  62.8571175  36.3702591  50.2403014  63.1859373  37.6099022
  66.4576905  60.2578734   8.0643185  66.3188355  60.3388797   7.1207102
  65.8326357  59.5881258   8.3417614  12.2144341  43.5838270  57.6093721
  12.7029729  42.8859186  58.0458164  12.6358986  43.6727953  56.7545700
  11.9357538  68.6251116  37.2868323  12.0619547  69.3195248  37.9334354
  12.3102999  68.9783049  36.4798617  40.1898623  14.5008504  60.0817299
  40.2665615  15.2572167  59.5001268  40.7940483  13.8549697  59.7156334
  17.3943322  11.6365334  64.8872089  16.8923812  12.4470422  64.8014688
  16.8996363  11.1140916  65.5185270  64.3710225  50.3273075  17.9664238
  63.4602802  50.4408639  18.2382401  64.3995850  50.6729482  17.0742710
  39.7679406  45.6550213   8.3730610  39.7797828  46.2405755   9.1301735
  40.6120079  45.2047505   8.4052952  67.0245409  82.7778816  44.4443560
  67.6764202  83.3362389  44.0206528  67.4259043  81.9089985  44.4579411
  62.4769299  37.0827290  67.3406506  62.5111239  37.6594445  66.5774632
  61.9827526  36.3192937  67.0419979   8.3005650  13.3954426  15.4410465
   7.9346283  12.5224062  15.2991684   7.6035769  13.8779445  15.8856018
  31.0525373  74.6204900  22.2983559  31.1131319  74.9377345  21.3972958
  30.8291293  73.6937879  22.2114952  17.8108966  32.7741337  70.9407187
  18.3412683  32.2297525  71.5226030  18.4480906  33.3036900  70.4613590
  14.7149856  29.1988607  14.1356285  14.2854221  28.4186836  13.7848671
  15.4745061  28.8611265  14.6102913  85.7070242  25.2937504  36.3087090
  86.0924421  26.1192365  36.0150059  84.9042950  25.2078386  35.7944401
  69.0999573  32.2938137  12.5198181  69.6667259  31.5230929  12.5513657
  68.4885519  32.1713846  13.2460602  77.6748262   9.0029808   0.2534779
  78.1511341   9.7282120  -0.1507465  78.3290337   8.3109136   0.3498514
  54.0146344  67.8181623   4.9970730  54.4324916  68.1216525   5.8029993
  53.8532441  68.6172174   4.4953783  26.9424953  65.7540010  13.0953797
  27.7196517  66.3023971  13.2027252  26.4736798  65.8377932  13.9256962
  25.1952863  61.0295773  70.8393240  25.5083823  61.2456560  69.9609613
  25.7237816  60.2764797  71.1034536   4.9012072  79.5679393  39.9993896
   4.9402196  78.6120108  40.0295639   5.6519324  79.8214573  39.4623852
   3.2369396  24.2031908  49.1103411   2.6672655  24.4679499  48.3881140
   2.7840728  24.5078540  49.8966742  31.4123106  62.0060158  68.0937815
  30.5098057  61.9503546  68.4078121  31.3298512  62.1204519  67.1470308
  25.8603263  23.2308578  65.7290745  26.4390850  22.4694109  65.7674026
  25.0974154  22.9273057  65.2370834  55.4331916  75.6721543   1.1237867
  54.5992892  76.1283945   1.0111578  56.0783618  76.3726591   1.2201126
  40.8843558  70.3029369  14.5822247  41.6824191  70.5554770  14.1179474
  41.1540275  69.5768403  15.1446255   5.3463650  72.8595209  30.9067655
   6.0311186  73.0377865  31.5514088   5.5141443  73.4833288  30.2004027
  70.3467332   4.4453903  10.5361183  70.4204212   5.3568836  10.8189304
  70.7278059   4.4354864   9.6580990  82.0352731   6.2546726  26.6275509
  81.8864666   5.8961721  25.7525833  82.0578252   7.2027012  26.4972981
  20.5947168  27.5668617  16.9057758  20.8398874  28.3927103  16.4885243
  21.4255006  27.1871896  17.1919163  14.0452015  44.9862432  41.6595745
  14.9553466  45.2588844  41.7759132  13.5704672  45.4303312  42.3621750
  75.7132378  33.6777973  64.0912724  75.9143093  32.7446771  64.1626024
  74.8906747  33.7827921  64.5693922  79.1789590  19.2871042   7.7471741
  79.7424136  20.0608917   7.7461346  78.4559868  19.5180507   8.3304508
  78.5483955  28.0352350   2.5482996  78.3774184  28.7697645   3.1377657
  78.7408136  28.4448095   1.7048224   1.2057645  26.8343540   3.1211622
   0.5529459  26.6135832   3.7854822   1.2941463  27.7857061   3.1790646
  83.3701120  24.5672317   2.6710804  82.5735746  25.0173040   2.3896654
  83.5753141  24.9534126   3.5225447   7.2010906  24.4762607  14.5530995
   6.5649207  25.1492496  14.7951897   6.9175060  23.6960884  15.0296982
  20.8062673  66.3698673  66.7145777  20.8228016  65.4331446  66.9108295
  19.9252915  66.6508722  66.9618559  25.9803159  28.5328003   5.8910282
  26.6604478  27.9085441   6.1439188  26.3763197  29.0462681   5.1869257
  62.8473042  23.4094139  15.2999504  63.4129847  24.0814825  14.9197300
  62.4175437  23.0039640  14.5468624  75.7156633   6.7948910  21.7508610
  75.5371724   7.6060291  21.2750252  75.4125248   6.9683500  22.6420696
   6.3751013  57.9077669   1.7209824   5.4499252  57.8682752   1.9633110
   6.7574675  57.1193643   2.1062716  60.7680600   4.1283032  36.7263722
  60.5062955   4.3019292  37.6305628  60.8170312   3.1739995  36.6702485
  73.4753667  41.8376203  13.0994328  74.1106044  41.2903925  12.6376446
  73.8502870  42.7178045  13.0686100   3.1383075   3.1363484  65.0234127
   3.8580837   3.7254903  64.7974443   2.4098482   3.4266469  64.4745016
  65.9655469  81.6371249  41.9930275  65.3408497  80.9174036  42.0823868
  65.7298296  82.2470521  42.6920708  78.5665153  29.9175688  34.3230255
  78.8961254  29.7952696  33.4327229  78.9918409  30.7190557  34.6278961
  76.3298081   1.0090824  19.7906311  75.4518865   0.7248302  20.0449761
  76.7248128   1.3233467  20.6039246  29.7601962  51.2545300  47.2922468
  29.8365855  51.9080782  47.9874229  30.5688167  50.7457972  47.3518705
   6.3986046  21.4039942  14.8566063   6.7117865  20.6767364  14.3187912
   6.6728098  21.1797186  15.7458408  81.1529575  28.5568710   8.6275395
  80.7468901  28.9540048   9.3980034  81.4962970  27.7205368   8.9420136
  73.8634430  30.2095028  12.6729305  73.7993823  29.3276783  13.0396851
  73.3856533  30.1598545  11.8449886  64.9056957  77.0204206  14.4892605
  64.7761331  77.0728727  15.4362019  64.7655801  76.0971494  14.2791184
   3.0819471  16.4834829   4.1050966   3.9885385  16.3767906   3.8171013
   2.7520378  17.2196575   3.5898836  43.2700675  10.1808736  69.4506550
  43.8788860   9.9814794  70.1618624  43.6302548  10.9671208  69.0403986
  65.7451153  37.5088811  57.6878262  66.2305212  38.2438946  57.3131657
  66.3884640  37.0454454  58.2240772  80.9252262  72.8996134  53.8998652
  81.3101006  73.7024307  53.5483265  81.5654659  72.5870037  54.5390844
  11.2323339  62.6594873  17.0548828  11.1842878  61.8072553  17.4880417
  10.7648332  62.5350519  16.2289341  58.5859015  15.2172848  33.2902058
  58.2540348  14.3456741  33.0748184  58.4578310  15.2954574  34.2355736
  84.6512686  26.3294931   4.5198401  84.1273580  26.6184088   5.2670200
  85.4836617  26.0534139   4.9034174  82.7466123   8.5670659  68.5959148
  83.4703176   7.9429624  68.5413837  83.0703848   9.2595193  69.1720295
  75.6495111   6.2303349  31.5745974  76.1411112   6.2510774  30.7535410
  75.0585382   5.4831788  31.4811110  15.4358919   0.8112903  24.9757298
  15.8607729   0.9452673  25.8229359  14.6196897   1.3077017  25.0359543
   2.9354317  14.8490663  20.0487812   2.9847915  14.5862337  20.9678658
   2.1215255  15.3489109  19.9859913  54.2656828  22.5690218  17.6040085
  55.0831316  23.0631157  17.5417240  53.6303024  23.0949970  17.1183403
  24.4139838  62.3337698  54.5077038  24.5626163  63.0227757  55.1553249
  23.4766436  62.1486807  54.5657396  48.8162565  80.0751877  45.0751495
  49.1109753  80.8191681  45.6003761  48.9924526  80.3355026  44.1710377
  73.7932604  76.0949277   9.4289597  74.4536989  76.7475222   9.1962059
  74.2987125  75.3237485   9.6859272  77.1824561   5.7280107  19.3893345
  76.2985073   5.5111213  19.0929897  77.1112738   5.7722851  20.3428658
  78.2782381   1.9394872  66.6975689  78.0324905   2.8545472  66.8336105
  78.0201309   1.4992330  67.5073719  17.0221543  77.6238775  51.1290026
  17.0069981  77.2004747  51.9873381  16.5343082  78.4377670  51.2547684
  34.4600511  42.7705288  69.3952990  35.1044726  43.4600449  69.2355394
  34.9733734  41.9628525  69.4150209  65.0177057  12.7312942  57.6450833
  64.8681600  11.7914100  57.5427063  65.9682519  12.8299185  57.5905998
   1.7622693  29.4976278   3.1136664   1.5597947  29.9640842   2.3027046
   2.5907357  29.0531631   2.9338701  15.8840711   8.5835500   5.7202252
  16.5746553   8.9656063   6.2618502  16.1705358   7.6832052   5.5667885
  54.6589892  76.7525195   4.8770722  54.2495649  75.9463095   4.5630177
  55.2685731  76.9983767   4.1812332  58.2212067  44.7030258  55.2618217
  57.6639843  44.0350342  55.6612206  59.1117334  44.3704319  55.3739738
  62.9008059   9.0377947  38.4263046  63.2770432   9.3673988  39.2424210
  62.8416763   9.8083015  37.8614624  42.8585625  76.1661053  68.7623549
  43.1565523  77.0732975  68.8289309  43.6368561  75.6773806  68.4946966
   0.7103546  12.7320715  18.8262566  -0.0933783  12.8849312  18.3293923
   0.8904107  13.5692545  19.2539700  49.6200637   6.2634035  17.6578720
  49.8084281   5.4400202  17.2075470  49.5629780   6.9123455  16.9565590
  40.1786952  44.5665320  17.2396858  41.0152023  44.7258248  17.6768597
  39.8322540  45.4405003  17.0597180  29.0134420  67.4121045   5.6707676
  28.8393488  68.3532428   5.6842573  29.2289915  67.2214650   4.7578438
  69.1580105  77.2635412  33.7473035  68.7805891  76.4085579  33.9541507
  69.1605806  77.7324390  34.5817852   9.5680292  29.7804542  15.4135903
   9.7307189  28.9264293  15.8140953  10.2185519  30.3592582  15.8111294
  69.3361460  13.6014696  15.8334454  70.1194463  14.1106745  16.0417374
  69.4821404  12.7543827  16.2545784  66.1295407  11.7766568  63.8042545
  65.8892029  10.8507344  63.7706470  66.6505282  11.8600366  64.6029139
  29.5138073  65.5043364  70.4827547  28.6329174  65.1837587  70.2891302
  30.0182319  64.7148705  70.6790447  36.4123731  69.5755028   2.7367886
  36.9535815  69.7607635   1.9693239  36.7548072  68.7491416   3.0775173
  21.1101062  21.7472263  18.9820297  21.0761983  21.5947719  18.0376537
  20.2124412  21.9796892  19.2194946  56.4836073  70.5583954  70.9147835
  57.4407005  70.5450964  70.9099197  56.2391710  70.5439854  69.9894333
  71.9079321  82.6502560   8.1802185  71.1756628  82.2217034   8.6233433
  71.5045803  83.1188725   7.4495085  19.8824556   4.8481127   8.9831169
  20.5782707   4.2568918   9.2703922  20.0822361   5.6797977   9.4127949
  77.1858185   2.7445218  41.5782690  76.4537495   2.1301457  41.6315794
  76.8028801   3.5423085  41.2134075  45.1911545  28.6478996  67.6843119
  44.9758768  28.8830018  66.7817545  45.8873844  29.2567611  67.9308558
  60.0851243   1.6132924  64.5789385  59.5485514   1.5975759  63.7864304
  59.9623268   2.4937150  64.9339056   3.0803163  42.0621916  19.2371662
   2.6809223  42.6582762  19.8707302   3.1254299  41.2222524  19.6940048
  86.8500553  35.6754013  16.1601551  87.0252715  35.0814243  15.4302796
  86.0743390  36.1661192  15.8886917  82.6951991  39.2285105  22.0570286
  82.0555435  39.5896002  22.6707752  82.1988498  39.0834471  21.2515267
  13.2474048  18.5272690   5.5490168  12.6874645  19.0030189   4.9355372
  14.0618522  18.3827921   5.0673206  81.9838868  10.2050062   7.6221331
  81.2138615  10.6833168   7.3147019  82.6633082  10.8739181   7.7068194
  35.3017910  58.3078809   2.0953425  35.9556968  57.9146429   1.5174158
  34.4731100  58.1983324   1.6289528  27.8005321  36.4051147  20.3535374
  28.3356006  37.1891256  20.4770764  27.8449638  36.2305113  19.4134434
  41.4910507  62.5893736  34.0112376  40.9501553  61.9996500  33.4859824
  42.2518158  62.7716446  33.4596562  48.5823107  75.3622246  57.0763683
  48.3173561  76.2288523  56.7681694  48.1429338  75.2637482  57.9210472
  36.3188767  71.0307074  34.1157556  36.3648939  70.0868511  33.9632964
  36.2095976  71.1152840  35.0629306  54.0415619  27.2281881   1.8212422
  53.6485784  27.5372406   2.6375015  54.9295740  26.9681974   2.0663412
  29.3515658  30.8949375  61.7728233  28.8810730  30.7253480  62.5889778
  29.6998858  31.7804360  61.8767118  13.6041696  27.5301738  34.7391041
  13.3884914  27.9490228  33.9058693  14.2086179  26.8262096  34.5039185
  21.7804153  26.3152118   5.1476010  21.2305458  25.8656545   5.7892998
  22.5934703  26.5011307   5.6172856  87.3227368  16.1041208   5.8570345
  87.5932489  16.5100523   5.0334604  87.2227083  16.8374677   6.4640148
  58.6318701  81.5264272   1.2509926  59.2831700  82.2278832   1.2508639
  58.3022826  81.5054487   0.3525694  23.8024433  38.7366243  20.4186257
  23.6990078  38.7108846  19.4673737  24.6268327  39.2028566  20.5573757
  77.8393672  38.1605240  17.2309120  77.2602163  37.4013229  17.1643360
  78.6962031  37.8328319  16.9576271  45.7674837  75.6946754  70.7901525
  45.3172588  74.8804808  71.0151291  45.0733376  76.3533020  70.7655621
  79.3725477  38.4955736  33.5322674  78.9181243  39.2993494  33.2799252
  79.9302469  38.7558122  34.2653950  56.3750842  26.0878034  11.1533554
  55.4960935  25.8786007  10.8373745  56.6892947  26.7662330  10.5556591
  13.7817729  43.1023264  55.4655075  13.1121814  42.6745129  54.9317884
  14.5721650  42.5823021  55.3202868  15.3523119   8.9866110  36.0973366
  16.0895593   9.1239782  35.5025013  14.8043973   9.7631021  35.9829815
  18.3667667   2.5415655  14.3500240  19.1629274   2.6769014  14.8638733
  17.7877767   3.2571979  14.6124657  59.7681349  78.9697098  33.0904396
  60.0959080  78.2161092  32.5996407  60.5524485  79.3721222  33.4634693
  20.8128936   9.0352817  34.1290863  20.6034429   8.1107279  33.9965637
  20.8464248   9.4022794  33.2456692  80.5493420  82.8783368  11.7432697
  79.8538463  82.4659299  12.2555550  80.1362532  83.6502742  11.3563545
  85.9050403  38.2607122   8.2931049  85.9314047  38.9125009   8.9936169
  85.6043206  38.7465235   7.5251301   9.0416367  22.2170683   2.2647198
   9.8242791  22.3712536   1.7356356   8.4007962  21.8644186   1.6473110
  58.1867695  41.4148331  71.4641619  59.1098166  41.3844967  71.2125826
  58.1436586  42.0961332  72.1351337  64.0466605  45.6530805  15.6805046
  64.0059952  44.7740789  16.0572346  64.4079660  46.1971231  16.3803013
  15.8866603  51.6042944   8.6702831  15.7246883  52.5476213   8.6593159
  16.1135967  51.3897081   7.7654703   5.7828195  25.6603475   8.2894905
   6.3467915  26.3511987   7.9418047   5.3617675  25.2834030   7.5169237
  19.7685421  50.6079197  57.5379658  18.9580405  50.4697132  57.0478487
  20.1791763  49.7438812  57.5703287  71.1831544  10.5684419  38.5566910
  71.3022826  11.4704986  38.2594784  72.0723925  10.2428003  38.6961373
  10.6616509  61.9777584  40.4323864  10.8567739  61.9122982  39.4975758
  11.5092349  61.8644142  40.8624887  85.4198234  79.2335891  33.8690098
  86.2879722  79.2632555  34.2710884  85.5364912  79.6519946  33.0160435
  82.4915586  40.7986875   0.5590208  83.2029067  40.1590772   0.5255612
  82.0108424  40.6652303  -0.2578823  33.5899734  80.7231331  64.9616051
  33.1528807  81.5743923  64.9849653  34.1078758  80.6976604  65.7661915
  78.1875144  30.5545851  14.7036656  78.3602629  31.4308353  15.0480183
  78.7704860  30.4747148  13.9486893  54.5766698  25.0787016  19.1117104
  53.8272141  25.6341072  18.8970574  55.3048990  25.4586406  18.6202152
  82.3119848   7.2312924  53.9779615  82.9594629   7.2890660  53.2753468
  81.6316431   7.8567979  53.7287426  26.8572307  63.8606596  64.7628164
  26.7495584  64.6977663  64.3112755  26.8225813  63.2060766  64.0652800
  71.2464903  12.7123638  29.4095429  70.5503712  12.9580351  28.8002022
  70.8215569  12.7023359  30.2671917  17.5200994  34.3972011   8.8881024
  16.7463119  34.0164848   9.3034752  17.9041727  33.6755319   8.3901890
  23.6108406  33.7497612  31.3401421  23.7323005  34.2630764  30.5414017
  23.2554252  32.9145189  31.0363491  17.7429092  76.0491943  63.2962799
  17.4343777  75.2007532  62.9781771  17.3108649  76.1589336  64.1433477
  76.1975477   5.7413526  57.2606762  76.3261317   6.6896196  57.2827728
  75.7659887   5.5776497  56.4221104  71.0470508  34.9661918   3.9537676
  71.6146682  34.2475315   3.6752566  70.3122602  34.9424024   3.3407839
   2.2972710  17.9326101   6.4434870   3.0858452  18.2539554   6.8806608
   2.6249917  17.3762747   5.7368620  31.6898322  49.4990349  70.8663750
  32.0013332  50.3972387  70.7549191  32.3704386  49.0723467  71.3868999
  31.6915107  50.2976404  15.1655586  31.9656607  51.2068658  15.0456246
  31.8840214  50.1085858  16.0839470  28.9525325  71.2774511   2.0590456
  29.2302091  70.3652235   2.1425732  29.2235525  71.6865202   2.8808935
   5.6504352  47.9879900  20.9101589   5.0735767  48.7103697  20.6618984
   5.2448876  47.6159044  21.6932972   5.0176008  10.2224775  19.6916683
   4.9989159   9.3745704  19.2478951   4.0957696  10.4558655  19.8011692
  10.8499200  60.0826402  18.1211002  11.5827663  60.2098795  18.7235745
  10.1760943  59.6558996  18.6503227   0.4640443  31.7336221  25.6082638
   0.7813532  31.5650936  26.4954765  -0.1663988  32.4465557  25.7107647
  33.8467193  74.1735840  68.8680983  34.4624710  73.8644552  68.2036304
  33.6574936  73.3992386  69.3980169  80.0469242  17.7908464   5.7432421
  79.6057711  18.3511778   6.3817175  80.3350507  18.3916183   5.0560053
  71.6440831  29.1711803  11.1238201  71.0748695  29.4532629  11.8398293
  71.8394898  28.2548948  11.3199623  31.4242132  35.1763960  21.4427193
  32.2279365  35.3977581  20.9723385  31.0371168  34.4642587  20.9335526
  12.4270923  51.5811868   8.0296620  12.5243003  50.6471487   7.8442915
  13.2508047  51.8290373   8.4495457  61.9629090  54.6868597  11.5553387
  62.2717207  53.8677179  11.9424828  62.7579372  55.2024196  11.4198406
  11.9507992  39.5367002  64.8964548  11.1237359  39.5640969  65.3775454
  12.0470726  38.6202073  64.6376085  84.1764086  75.4910873  12.6625641
  83.7422722  76.2783717  12.3340233  84.7680586  75.8104609  13.3438786
  10.4619725  40.8823152   7.5184973  10.4583533  39.9782701   7.8330191
  10.7459695  40.8175512   6.6066940  56.1102529  20.4989715   1.6367014
  56.2608473  21.3426443   1.2103565  56.5916158  19.8697992   1.0994251
  43.1757879  80.9994316  52.2926569  43.7135553  80.9537029  51.5021181
  43.2164431  80.1170349  52.6613665   3.9599545  50.7098909  16.9604881
   3.1516893  50.6291433  16.4541157   4.1209157  51.6523596  17.0060261
  41.0519416  14.2315288   7.1008833  41.1540563  13.5984035   6.3902815
  40.4677780  13.7997814   7.7242430  60.2093561   3.7209078   8.4943112
  60.6490095   3.2875009   9.2258080  59.8722990   3.0031248   7.9581936
  75.6028317  32.1888920  36.9450291  75.4937731  32.0133062  36.0104092
  76.0288797  31.4034267  37.2881802  12.0858867   8.1514021  21.1944969
  12.1937330   7.7474542  20.3334339  11.4257820   8.8312383  21.0591419
  36.7055845  23.6070657  57.5379944  36.2236881  23.3296943  58.3171415
  36.3125181  24.4466233  57.2995138  84.3828188  13.5748811   1.5722330
  84.4778286  14.4275661   1.9966610  83.5660516  13.2215448   1.9247587
  28.4050186  26.6523596  35.3491314  29.0779359  26.5246816  36.0178002
  28.2889278  27.6014372  35.3043183  64.2291312  56.1055036  10.9230717
  64.5937602  55.3059717  10.5435570  64.5207940  56.8035932  10.3367050
  82.5708805  12.6035114   3.6435516  82.4646412  11.6549679   3.7157019
  81.6791545  12.9377313   3.5468395  20.6007934  81.0301781  57.9814196
  19.8839486  81.5682697  58.3173227  20.2527738  80.1384926  57.9846001
  11.2388570  28.2904716   7.4563940  11.3052185  27.4570366   7.9224547
  10.4540546  28.7040945   7.8158863  82.2304535  82.7721214  60.2129841
  81.3206959  82.6908112  59.9266958  82.2154808  82.5141144  61.1346340
  63.3074706  78.5157489   7.9237755  63.2527178  78.3564137   6.9815167
  62.7694266  77.8273629   8.3147534  19.5939024  40.0705095  39.9443730
  18.9185579  39.7237058  39.3613918  19.7155817  39.3869634  40.6033047
  44.4526966  36.2731357  19.2583378  44.8221309  37.0478101  19.6821602
  44.0177543  35.7974478  19.9659928  86.9885979  68.1407591  28.7493141
  86.2092243  67.6686521  28.4561928  87.5887285  67.4545046  29.0410717
  33.1300354  70.0005293  65.6530428  32.7804494  70.7275820  65.1378584
  32.3982549  69.7243118  66.2047958   9.3497880   6.9120117  22.2328098
  10.1179655   7.4552961  22.4088104   8.6170061   7.4077841  22.5981529
  30.3979404  23.1840749   6.0890968  30.6003959  23.4250732   5.1851280
  29.4527204  23.0331178   6.0907753  62.0653926   9.9199053  62.0012196
  62.6006846  10.0457330  61.2177284  62.3202623   9.0576311  62.3294838
  25.4618120  67.2061443  64.2949724  24.5615435  67.2914362  64.6087742
  25.6608033  68.0569077  63.9040279  57.4736946  11.9308087  58.2477045
  57.6073735  12.2532651  59.1389847  56.8923967  12.5755403  57.8444099
  27.9016957  73.4434770   5.6026896  27.0028891  73.7432669   5.7387169
  28.1687569  73.0937170   6.4527329   7.6266201  31.9545074  35.5217465
   8.3848150  32.5291248  35.4159744   7.9860766  31.0696121  35.4586418
  27.8953242  66.0866356  42.9309273  27.3607373  65.5701685  42.3278427
  28.4585452  65.4439592  43.3621931  24.7507103  60.2751203  10.4737290
  24.0488870  59.8033949  10.9222229  25.4672391  60.2981134  11.1079891
  81.7584024  31.9742628   9.0711411  80.8799182  32.3163315   8.9053352
  82.0397363  32.4151464   9.8728283  31.1472501   7.3803040  67.1139669
  31.0861864   6.4279839  67.0392513  31.1580362   7.5463960  68.0565834
  38.5359543  38.7116143  67.7783060  38.6615550  39.3012807  67.0348358
  37.9114430  39.1673848  68.3426523  40.2194786  74.9565458  53.7724638
  39.3850422  75.3554153  53.5257721  40.7220888  74.9296761  52.9582834
  15.5017335  43.6869474  38.8301476  14.7404678  43.7236353  38.2510479
  15.2697475  43.0330511  39.4895657  83.4004705  26.9428346  51.4021635
  83.6538189  27.2629926  52.2679281  83.9282387  27.4583432  50.7922840
  -0.1413069  22.1395871  32.5100088   0.6784143  22.6196286  32.3923278
  -0.4805575  22.0237252  31.6224742  30.1095271  75.3030729  40.1169205
  30.3914189  76.1091518  39.6844792  30.6959295  75.2168131  40.8685350
  75.5548309  42.4639555  34.1145619  74.8442684  43.1052252  34.1038998
  75.7958172  42.3888345  35.0378807  45.3023665   7.1746346  55.8373642
  44.4451421   6.7860791  55.6629610  45.8378821   6.4442155  56.1471033
  60.8037346   0.4056355  67.8200722  60.0420087  -0.1181319  67.5717402
  60.4516476   1.2822625  67.9743147  80.4217301  68.3151670  14.2014988
  79.7387706  67.6562639  14.3266018  81.1763440  67.8203245  13.8822468
   5.5174954  12.8295370  18.8790424   5.3459127  11.8940063  18.9866264
   6.4600880  12.8835912  18.7214668  26.3991690  73.3632326  21.8608737
  26.8951631  74.1406155  21.6041636  26.5710688  72.7288485  21.1650014
  30.0886198  71.0887884  23.1222447  29.5502596  71.3852309  23.8560780
  30.5804614  70.3453444  23.4709747  68.7569421  37.3821828  56.2006330
  69.3667763  36.7947385  55.7542658  68.8691514  38.2241914  55.7594252
  62.7839422  77.4590349  70.9337997  63.5912991  77.8124905  71.3072681
  62.2209597  78.2237244  70.8132505  82.5971399  32.8553243  18.8885697
  83.0123959  32.7580734  19.7455032  83.0583106  33.5882803  18.4807308
  58.0609196  19.4106004  50.5504322  57.5894301  19.7099683  49.7730589
  57.9801386  18.4570977  50.5271482  23.1819923  39.8740907   5.7628544
  22.8140123  39.0373560   6.0469206  22.6017864  40.1643034   5.0590284
  79.4357976  80.8378315  66.3991737  79.3719080  81.4920998  65.7034111
  80.1897159  80.3011036  66.1547279  36.8914485  63.3765221  69.9357271
  36.6258121  62.8426838  70.6845140  36.7814422  64.2793322  70.2341747
  62.0632134  31.4183279  11.1295994  62.6157762  32.1760460  10.9378441
  61.2285022  31.7949816  11.4082058  34.9001741  73.4036732  64.7991037
  35.3841543  74.2050743  64.5997238  34.2531919  73.3336830  64.0971422
  63.7992382  52.6229095  63.7275600  64.3985462  52.9100943  64.4164610
  63.2254696  53.3748293  63.5804653  36.0189997   1.4791295  53.6659622
  35.6131428   1.8274400  54.4598103  35.2842384   1.1629102  53.1402588
   4.5284565  32.2089763   6.2457379   3.6750586  32.3786302   6.6446884
   4.5739491  32.8185793   5.5091627  36.5083122  75.4811239  64.3603277
  37.4645734  75.4430008  64.3417025  36.2636590  75.7850409  63.4862518
  19.9455106  82.2214317  69.5708227  20.4085803  83.0297279  69.7909594
  20.0382900  82.1432400  68.6213446  70.3912704  15.3276727  49.2505169
  70.0262659  15.8032987  49.9966908  69.6631687  14.7989175  48.9241505
  79.5041095   0.5665584   1.2668808  80.2825962   0.4774662   1.8166550
  78.7700854   0.4662843   1.8730028  83.7393253  81.6193818   3.8441952
  83.7344616  81.2730621   2.9518564  83.3724945  80.9138082   4.3769510
  71.4859889  52.1618219  11.8985756  71.5633605  52.8456064  12.5639160
  72.3732279  51.8141790  11.8081005  68.1163953  46.6008516   9.3542107
  68.1570206  47.3181673   9.9866970  68.5574840  45.8717867   9.7902592
  42.3370988  37.1113058   9.9804505  41.7456539  36.6445728  10.5708607
  41.8540914  37.8992029   9.7311409  71.1766481  56.4961529  61.2435246
  70.8321142  57.1968603  61.7971849  72.1274567  56.5773582  61.3183498
  58.0292559  77.9791641  41.1021185  57.5746250  78.6080980  41.6624689
  58.6013031  78.5164261  40.5540848   5.5646355  41.6921182  33.2785137
   6.1426814  41.4343878  32.5604160   5.8814414  42.5558420  33.5427960
  65.5660289   1.1109826  54.6473646  66.3327473   0.5400845  54.6967840
  65.1991766   0.9447095  53.7790298  34.2401416   6.5706392  15.0587567
  34.5642240   5.7839485  15.4973038  33.8645084   7.0996376  15.7625301
  24.7180707  42.0721193   6.7698963  23.9966114  42.4705168   7.2567280
  24.3705328  41.2315126   6.4718540  58.4188890  64.2445183  39.6004820
  58.0219316  63.5251331  39.1094232  57.8095055  64.4081211  40.3202820
  27.1414478  16.4346071   8.9603146  26.4267166  16.5447279   8.3332070
  27.2616441  15.4870220   9.0225132  56.7037123  80.6968497   3.1950482
  57.3856061  81.0231708   2.6078756  56.6554802  81.3504313   3.8927134
   2.3774886  44.9789333  70.8063984   2.7076936  44.7281885  71.6691399
   3.1605095  45.2179718  70.3104448  55.8007050  75.9681559  68.4061241
  55.0409317  76.2260008  68.9281321  56.4983892  76.5584230  68.6908293
  17.4196362  28.1861067  65.0257587  16.6948926  28.6265397  65.4696035
  18.1195211  28.8387442  65.0044250  14.2771506  60.1700783  50.3328180
  14.5238721  61.0501528  50.6171131  13.9199042  59.7559595  51.1183834
  66.2105635  17.3430073  58.3102560  65.2816966  17.5723577  58.2812548
  66.3757494  16.9067121  57.4744368  31.5555239  10.6681085  59.6020031
  31.9862604  11.3641846  59.1058445  31.5355468  10.9927881  60.5022335
   5.7873261  34.6470475  63.4382486   6.4369702  35.1473927  62.9444408
   5.3633672  34.0927219  62.7831078  27.2678876  10.2833581  71.7705393
  28.1733513  10.0078213  71.6275501  26.9195938   9.6468627  72.3948717
  35.2352224  73.8849386  43.9480257  35.7506595  73.1209972  44.2067766
  34.7300730  74.1089407  44.7296143  17.6727097  40.2803003  24.5497425
  18.1672221  39.5467283  24.1842850  18.3117204  40.7618709  25.0750931
  13.9751499  29.8241900   1.7668780  14.2851048  29.8088251   2.6723726
  14.2161148  28.9665722   1.4166506  49.6545356  40.0290934   4.8704966
  49.3978684  40.9052904   5.1579531  50.3702085  40.1796861   4.2529495
  77.8392575  62.4416974  66.1848688  77.1119533  62.5647429  65.5748510
  78.4510253  63.1469038  65.9735441  66.8749539  78.9529505  54.1349363
  67.3008005  79.1933450  54.9577951  66.3084588  78.2163817  54.3646812
  78.4886346  82.7318624  29.6276045  78.3191035  82.1135175  28.9168739
  78.9157663  83.4750841  29.2016792  23.7890434   7.5726831  56.9188309
  24.7240353   7.7753663  56.8881321  23.7098122   6.7372966  56.4583063
   5.1995666  45.0137594  51.0949612   4.3923266  44.6482709  50.7329988
   4.9037726  45.6807354  51.7145395  22.4668615  67.5094770   4.5040424
  23.0634021  66.7652224   4.5843847  22.2689568  67.5579261   3.5687788
   2.9228490  42.0652465   9.4394024   3.4269088  42.0227868  10.2520188
   2.3743742  41.2809542   9.4565113   0.5673522  31.1791062  20.4495239
   1.0385148  30.4393554  20.8329391   1.2215541  31.8754077  20.3910828
   8.1875211  10.4214263  68.6688280   7.5992018  11.0079765  68.1933594
   7.6411742  10.0393283  69.3556643  83.7463155   0.8947272  51.3101816
  82.8687266   0.6251081  51.0393047  83.6754540   1.0257372  52.2557211
  62.3977559  38.4820836   9.1234501  61.8621629  37.7472742   8.8244064
  61.9320219  38.8227468   9.8871716  23.8189255  55.5589269   7.7663239
  23.9641940  56.4830338   7.9691942  23.2480883  55.5692385   6.9980343
  56.7142861  68.4657787  23.0417832  55.9285682  68.9625620  22.8135498
  56.6473859  67.6618074  22.5266274  56.8670388  66.6607490  16.6811991
  56.8129707  66.0704449  17.4327636  56.1603267  66.3761058  16.1017442
  32.4327632  48.0055051  17.3991020  32.2262605  47.3087733  18.0221184
  31.9438731  48.7642901  17.7176293  87.2853484  21.6636300  43.2177925
  86.5575981  21.8512917  43.8105774  87.1191214  20.7730150  42.9089165
  61.8329266  37.4697208  55.5680323  61.8826655  37.0506024  56.4271593
  62.3912767  36.9319701  55.0065184  45.2706442  78.9659372  46.7463017
  44.3971310  78.7811318  46.4012623  45.4686973  79.8495501  46.4360809
  28.9061291  68.6207937  21.6797741  29.5588270  68.6255955  22.3799141
  29.0894740  69.4137548  21.1759575  27.8224182  10.7747471  62.0767212
  27.5112772  11.5660298  62.5163746  27.1428585  10.5756497  61.4326763
  13.8989604  20.3413105  39.6988630  13.3603346  20.4122829  40.4869461
  13.3614635  20.7251263  39.0060306  66.0379713  30.9136878   3.8961037
  66.5545504  31.7179107   3.9471157  66.3132613  30.5038046   3.0760773
  11.4996636  26.4525342  70.8422613  11.6848063  25.5217505  70.9671497
  10.5919933  26.4776611  70.5393839   3.2299032  72.4262546  28.7158497
   2.6260986  72.2379826  27.9973705   3.6753883  73.2306074  28.4497746
  78.8259891  44.8162842  65.8600378  77.9182151  44.5538759  66.0127449
  78.7595877  45.6649542  65.4223299  61.9127919   2.4202915  10.4343422
  62.2868408   3.2934948  10.5519779  61.5567939   2.1944662  11.2937077
  66.4792029  68.8549402  56.8222857  67.1778605  68.3743969  56.3782263
  65.9830985  69.2652908  56.1139584  38.8165908  74.6897553  17.1303852
  37.8998416  74.9339603  17.0032414  39.0204941  74.1273593  16.3831528
  35.6095934   6.5083271  37.0630145  35.7329297   5.6942225  37.5511289
  36.4975190   6.8035519  36.8613625  17.2796953  50.3593016  65.0318336
  18.1089735  50.2332163  64.5707130  17.5304544  50.7259226  65.8797407
  69.9580589  54.3332815  48.9880705  70.8386877  54.6494913  48.7862396
  69.6727887  53.8920307  48.1879807  68.8225756  71.8616536  47.7592087
  68.7398825  72.8138176  47.8119230  69.5922587  71.7182067  47.2085333
  51.4606851  74.2768358  25.4768475  50.6076973  74.2419122  25.9097679
  51.5071528  73.4641312  24.9732788  13.9062023  54.7298717  60.6912994
  14.5324087  55.2513218  61.1934805  13.8714182  53.8903761  61.1498547
   2.9176217  39.2833591  47.5961637   2.6459157  38.3957076  47.8295803
   3.0652851  39.2479157  46.6510868   6.1909539  34.8882818  56.6571951
   5.7595742  34.8746276  57.5115681   6.6383022  35.7340217  56.6282415
  22.5673281  61.9766210  45.4646977  21.9060152  62.4720167  44.9814995
  22.1260016  61.7119263  46.2717827  33.0556130  10.5287421  69.0221167
  32.6757026   9.6771264  69.2381001  33.9912152  10.4245079  69.1953564
  34.5088952  65.6287168   3.6105354  35.4476833  65.6295942   3.7973698
  34.1781058  64.8449205   4.0492542  37.2554629  56.5065764   7.9535635
  37.9821705  56.2540852   7.3840197  37.1645617  57.4502884   7.8217419
  56.4126205   0.8886584  39.8146844  55.7733488   0.2212039  40.0638103
  56.1908531   1.6464943  40.3557348  75.6257871  16.5397167  62.3158216
  76.4667323  16.3030243  62.7069998  75.8507028  17.1571457  61.6198111
  56.9492119  41.9095874  10.3864201  56.3562196  42.6576874  10.4566963
  57.7350014  42.1814524  10.8606156  30.9007430   0.7451934  47.8290224
  31.4365053   1.4762354  47.5211763  31.4617276  -0.0233733  47.7249479
  29.6762848  33.7586427  55.5938339  29.6910501  33.2835436  54.7629929
  28.8090396  34.1626859  55.6233168  77.5527542  76.9144868  12.7185066
  77.5434225  76.7741798  13.6653145  76.8064421  77.4909638  12.5544365
  45.1576298  65.1290249  30.9262093  45.5631988  65.6526302  30.2351387
  45.8859640  64.8751949  31.4930733  59.4880263  18.4154125  37.3871906
  58.9099718  17.7794643  37.8086861  60.0621866  18.7198110  38.0899819
  38.4996223  19.1763198  62.4891138  39.0355587  18.8563323  61.7634344
  38.3045745  18.3944750  63.0057430  36.2492323  12.7257752  70.5122089
  36.4865446  12.4123716  71.3849592  35.3148723  12.5330389  70.4343748
  87.7648653  35.7892680  62.3371553  87.3616222  35.3450561  63.0830145
  88.7060274  35.6817293  62.4745655   0.1993210  82.1292880  55.3604650
  -0.4932397  81.8684713  55.9675598   0.3915150  83.0378551  55.5924129
  22.5479436  20.3307319  72.0457888  22.4305606  19.5105588  72.5251293
  22.7590609  20.0581670  71.1528301  61.5162723  75.1989149  14.3711289
  61.4361732  76.0903620  14.0318115  62.1500128  74.7776626  13.7904843
  10.0946076  76.5624657  49.2431545   9.8384792  75.9819254  48.5264921
   9.7392804  76.1452988  50.0279760  50.8442211  27.4949765  55.6445217
  50.4953051  28.3815551  55.7365465  51.7233324  27.5433803  56.0200834
  87.8007508  49.7333574  53.2253838  86.8960786  49.8147964  52.9234457
  87.9205619  48.7951708  53.3726454  13.0440205  77.4055790   4.8656090
  12.1662801  77.3004125   5.2326830  13.6010843  76.8542837   5.4151400
  29.9350518  72.0320534   4.4994648  29.6416067  71.1660622   4.7826250
  29.3093015  72.6383971   4.8957165  16.2078166  20.8842874  67.7353001
  16.9824338  20.4221940  68.0557203  16.5584028  21.6121840  67.2219896
  80.6105343  48.5834312  68.0335522  79.6708325  48.4216404  67.9497862
  80.7297799  49.4759607  67.7088976   2.5006884  11.5422273  69.1999817
   2.7819204  12.4534500  69.2825222   1.6308492  11.5949607  68.8039637
  15.9866107  22.2927952  30.5186033  15.1290512  22.5726485  30.1984406
  16.2541509  21.6010928  29.9134588  70.6252592  79.0959929  20.4486855
  70.7397335  79.4683408  21.3230332  71.2045496  79.6141504  19.8899658
  83.7272695  56.8343687  59.0226126  83.0548742  56.4764023  59.6022463
  83.3925572  57.6948977  58.7702465  30.9938717  18.4651804  65.7524490
  30.7326317  17.6299655  66.1402655  31.9359016  18.3775318  65.6070948
  23.0363154  51.8111086  57.9003096  22.1595716  51.4553595  57.7553940
  23.4855318  51.6891575  57.0639086  54.4407814  34.1283952  15.7558926
  54.4464486  33.3419912  15.2102097  55.1764100  34.6490275  15.4333695
   4.0559942  36.4338422  64.8123121   4.7363198  36.3404274  64.1454840
   4.5370328  36.5895104  65.6250858  64.6712236  11.1518617  17.5341805
  64.5724629  12.0796009  17.7481373  63.9755903  10.9768577  16.9003781
   1.8680651   4.1045805  12.2566898   2.7376659   4.4718548  12.0981510
   1.8738849   3.2667633  11.7938145   5.6306751  16.4162155  22.5286968
   5.3927834  17.3245140  22.3425873   6.4995439  16.4728399  22.9263027
  57.9348843  35.6297814  17.2659882  56.9911664  35.4709302  17.2461231
  58.0346578  36.4125018  17.8078564  19.5213139  33.5139394  68.8480377
  20.4509091  33.4504414  68.6288309  19.1078150  33.8359952  68.0470800
  76.8851402  41.9474745  64.0879059  77.7309397  42.2781706  63.7854195
  76.7705491  41.1199379  63.6206961  18.6034811  23.4543729  45.4444504
  19.1259956  22.8254414  44.9467993  19.1130960  23.6136603  46.2388992
  14.5654857  10.8282673  70.9563398  14.4993627  11.1479151  70.0565147
  15.2931881  11.3228011  71.3333273   9.9673432  36.0369635  51.4541483
  10.5095696  36.6163707  50.9188795  10.4877961  35.2388620  51.5457630
  87.4575675  63.9383936  59.6841192  86.6883102  63.9856386  59.1164541
  87.1660996  63.4294748  60.4406071  21.5883970  47.6956367  38.2823181
  22.1357012  48.1906557  37.6726890  20.9019494  47.3159504  37.7338099
  69.5281814   0.6788536   9.3467816  69.7867416  -0.2078251   9.0954216
  69.9603723   1.2447830   8.7071140  44.0809577  50.0403618  23.5102375
  43.2806235  50.4474943  23.1786640  44.5307176  49.7234737  22.7269562
  54.7804672  79.2547744  68.3480549  55.5666096  79.8008662  68.3492422
  54.6863110  78.9724779  67.4382877  44.5134306  16.7156291  46.0312271
  44.9814177  17.5176740  45.7989645  43.6745644  16.7873740  45.5758286
  16.9676977  74.7780560   5.2044495  16.9437473  75.6857871   5.5072411
  17.4727958  74.8098325   4.3919857   9.7131071  71.5728453  67.0871973
  10.2747975  72.2547868  66.7188406   9.1650496  72.0318916  67.7237082
  10.4994946  71.1820649   3.1822642  11.1818533  71.0796689   2.5188406
   9.8268824  70.5479192   2.9339083  25.2329230  65.2940512  67.3534155
  25.3512836  66.2359619  67.2308493  24.5320749  65.2230501  68.0014896
  77.9443298  10.6307932  32.7973564  77.3689733   9.8818489  32.9531582
  78.4686027  10.3761907  32.0380505  82.1081839  10.9395500  34.3305977
  82.8084574  11.5341850  34.5994099  82.0817099  11.0163351  33.3768566
  14.6950155  56.8935107   0.4298456  13.8133245  56.8257533   0.7962616
  15.1600855  57.4755107   1.0308607  21.8911386  39.9749494  29.6643543
  22.4147558  40.3566504  30.3688836  22.3995471  40.1418114  28.8706851
  21.8464923  36.2823439  57.6255894  22.0376539  36.0039091  58.5212231
  21.9997406  35.5011773  57.0940542  14.6404481  31.4438462  71.6153574
  15.4082918  30.9977555  71.9726419  13.9519894  31.2911582  72.2626162
  59.9321669  55.8013045  23.4842499  60.6143182  56.4350735  23.7061508
  59.1293471  56.1772453  23.8453396  61.4409917  79.0787553  10.9042938
  62.1267288  78.4771632  11.1942585  61.8617146  79.9385332  10.9024628
  44.4713497  28.5130358  61.7732191  44.1317892  29.0031362  61.0243988
  45.0066900  27.8215313  61.3840389  30.6129013  58.6471521  10.6350144
  31.4448620  58.1828426  10.5428799  30.8322941  59.5653807  10.4770382
   8.0674696  46.1069059  53.4052753   8.1102532  46.6110182  52.5927019
   8.0288273  46.7685795  54.0958786   0.6221724  21.5726328  61.0890388
  -0.1188807  21.0451245  61.3870430   0.3172991  21.9765353  60.2765465
  32.4638509  71.8769621   5.1613625  31.5293177  71.8284820   4.9600418
  32.8977846  71.7340111   4.3202313  72.4997156  78.1814383  14.7857674
  73.2878893  77.9107689  15.2566727  72.6843470  79.0777348  14.5050629
  68.6595014  42.5567055  39.3541908  69.3940571  42.4124384  38.7576604
  69.0055648  42.3342085  40.2184629   8.5244852   6.6629118  67.3105001
   7.9805648   5.9642446  66.9468451   8.0008906   7.0271879  68.0242109
  13.9650846  23.2755232  47.5438643  14.3714762  23.6232948  46.7500544
  14.4041443  23.7358236  48.2591105  13.3175373  47.6076460  64.8858833
  13.7335479  47.1390009  64.1623211  13.8384116  48.4044313  64.9861336
  10.8202553  44.4233847  52.9239130  10.7472956  44.4709301  51.9706821
  10.3076267  45.1670647  53.2407475  85.8507419  12.4674773  62.7035427
  85.3382471  12.0553088  62.0080566  85.1971081  12.7860487  63.3260441
  16.5832121  76.1523428  43.0467081  16.3249666  76.4094260  42.1615839
  16.8432696  75.2349225  42.9633856  24.5216574  72.9548429  29.2072685
  24.7047167  72.1149968  28.7861069  24.0914070  72.7215217  30.0298794
   3.6501536  38.7457013  39.7050643   4.5055714  38.4336233  39.4099402
   3.1543821  38.8845158  38.8981128  10.3154500  15.4560562  30.4448231
  10.0291545  14.5443149  30.3901108  11.2511261  15.4020305  30.6392868
  38.9353657   5.0297123  60.3757954  39.8869705   5.0260139  60.4790735
  38.6259532   5.6568885  61.0293579  79.0700064  75.8382097  61.2510443
  79.7125993  76.4575902  61.5969849  79.5842586  75.0659016  61.0158491
  12.9983735  39.0654182  53.2613373  13.8872623  39.1347551  52.9130554
  12.5290918  39.8013639  52.8684092   5.8224088  59.0631104  41.5798664
   6.7572045  58.9763594  41.7665815   5.7722425  59.1104412  40.6251574
  63.6529582  48.3801191  10.5505570  64.3416541  48.1605451  11.1780270
  62.9961341  48.8451140  11.0688217   3.8212517   5.6208694  44.1018009
   3.9977002   6.2883145  44.7648335   3.0386329   5.1697606  44.4184065
  84.6577442  43.7830496  71.1546946  83.8889578  43.6012173  70.6141949
  84.6764636  44.7369909  71.2313080  76.8824070  71.3481544   1.2207945
  76.6428678  72.0839237   1.7842682  76.2088077  70.6890224   1.3882502
  82.4787675  11.2433000  31.5046127  82.4468122  11.9666620  30.8785542
  82.3430548  10.4595276  30.9721573   8.6224937  39.8783422  31.8339872
   9.3970084  39.8188496  32.3932910   8.7365222  40.6982517  31.3533902
   8.6210543  47.2415304  25.4024792   8.7470090  46.8535662  26.2684202
   8.2738483  48.1157160  25.5798817  39.9620192  51.2147986  31.8466576
  39.6543925  51.8316041  31.1824711  40.7410651  50.8151518  31.4598759
  84.6951256  81.2819746  66.9166756  85.1640687  80.6306659  67.4383259
  84.4302354  81.9498285  67.5491571  41.5226024  74.0668701   6.6281946
  42.1125155  74.8030971   6.7900713  42.0746129  73.4045862   6.2123879
  82.1242540  78.3302807   9.7948750  81.5493315  77.6725482   9.4036110
  82.4707764  77.9082774  10.5810555  62.9145353  74.5807861   0.9455736
  62.4818890  75.0087737   0.2067383  62.6576321  73.6615037   0.8737906
  23.5445476  44.7757387  50.6308365  23.7441897  45.2007198  49.7967052
  22.5970507  44.6413422  50.6104374  27.0263243  33.6748624  64.3170738
  26.8625069  33.3649921  65.2077913  27.9521561  33.4859014  64.1642237
   4.4397249  71.3690470   7.9865988   3.8887920  70.7887505   8.5119160
   3.8382187  72.0365976   7.6567515  61.5980475  61.3892781  10.1969250
  61.2412970  61.8903612  10.9303291  62.0727055  60.6671535  10.6085880
  64.8495770   4.6137699  30.3713870  64.0959597   4.5524177  30.9583521
  64.6540737   3.9976653  29.6653938  16.3581824  10.5585206  40.9557962
  15.4168141  10.4105711  40.8654261  16.6197729   9.9976331  41.6860104
  79.6275088  11.4716685  62.9531574  79.0483078  12.2002399  62.7296829
  80.5102274  11.8283570  62.8540993  78.1417578  49.1999720  12.4848183
  78.5534065  49.7438549  11.8132694  78.0501430  49.7805809  13.2402809
  15.6621130   2.0399614  30.0705441  14.8563535   2.5564667  30.0849445
  15.7615001   1.7260833  30.9693440  30.3759074  23.8844466  71.0970640
  30.9623790  23.1699085  71.3455009  29.6075320  23.4470987  70.7302427
  83.5176915  36.6229057  69.9520636  84.2256552  37.1048784  70.3795242
  82.7201352  37.0757318  70.2260780  76.2374418  66.8655609   4.9707754
  76.0699766  67.0449733   4.0455731  76.9164484  66.1909174   4.9648436
  20.2423835  11.7321706  67.7045822  20.0099826  12.6606297  67.7181530
  19.4442725  11.2814415  67.9804373   8.1800193  36.1927009  66.3312626
   8.9183939  35.5911350  66.2355852   7.4235886  35.6230903  66.4712191
  63.8052867  14.6670290  21.0464771  64.4214354  14.8172565  21.7634304
  63.1811313  15.3898092  21.1116512  71.0259502  60.3745900   5.6404837
  71.9704931  60.2622508   5.5334528  70.8611267  61.2800847   5.3775271
  35.7804394   9.8085469  69.6291065  36.2340045   9.1234452  70.1201725
  35.9493208   9.5969129  68.7109995  51.4664221   2.0428592  24.5148373
  51.0702562   1.2607077  24.8989248  51.6951132   2.5893483  25.2666879
  18.9287193   0.1228758  18.3174618  19.7195585  -0.4159693  18.2962521
  19.2378528   1.0093828  18.1309899   6.0115044  34.7747009   0.8860739
   5.4566806  35.4478352   1.2801464   6.7427223  35.2603053   0.5043133
  55.2995489  10.3884216  35.2097328  54.3701421  10.5318685  35.0312431
  55.5348222  11.0817571  35.8263024  14.9485064  66.7561245  57.9169989
  15.4251647  65.9459829  58.0978394  15.2622592  67.0314312  57.0556068
  85.2083483   0.4278195  40.8303356  84.4488499   0.7471532  40.3430748
  85.8471096   1.1382195  40.7707691  48.8352578  61.0445761   2.0766838
  48.5258596  60.4333066   2.7451571  48.9896684  61.8610619   2.5518091
  32.7094698   2.5268710  65.7736731  32.0195007   2.4378680  66.4311314
  32.9893208   1.6286920  65.5970621  40.8055449  13.9174712  49.5573282
  41.3370609  14.4135904  48.9347601  41.1185694  14.1988289  50.4170275
  46.7437837  73.0444673  55.9068203  46.7780707  73.1044140  54.9521112
  47.6460157  73.1950876  56.1888170  40.1752203  73.2791280  58.6588390
  39.9458950  73.7865638  59.4373902  39.9787991  73.8628291  57.9260739
  50.8932631  39.5718803   1.0249909  50.5139630  39.8805882   1.8478306
  50.1980179  39.6967769   0.3790291  27.2312825  62.7725672  29.5884617
  26.3352894  62.4526976  29.6938713  27.7812997  62.0408438  29.8682697
   0.8962400   0.7009884   2.4179800   0.4625375   0.2394243   3.1356819
   1.8285878   0.6485697   2.6282461  21.4696383  37.3220849  71.8762636
  20.8038473  37.6880574  72.4585152  21.0157728  36.6261530  71.4009571
  76.6065894  10.6141277  13.1971272  76.5866802  11.5608211  13.0571087
  75.9634553  10.4608055  13.8893040   6.7325146   4.7536512   3.5233362
   5.8036978   4.9565931   3.4122332   7.1606619   5.1757141   2.7784975
  77.1105538  19.4227739   4.8360975  77.4952327  20.2392193   5.1549633
  77.7845882  18.7621113   4.9955710   5.1667899  35.4723930  53.4019518
   5.2403367  34.5404100  53.1964445   6.0609287  35.8056116  53.3263731
  25.2378201  35.8854103  49.8572254  24.8186541  35.0277948  49.9281263
  25.0708723  36.1597872  48.9555168  85.9400855  24.0015503  20.8852966
  85.4489742  24.7263284  21.2722595  86.8572245  24.2631717  20.9667977
  25.1372695  38.6062789  59.3739700  25.2421141  37.7358675  59.7581911
  24.2824841  38.5769939  58.9441872  57.8517383  31.8996500   6.6651018
  56.9292944  31.7549496   6.8757923  58.2475298  31.0293804   6.7121323
  67.5805447  77.6711819  42.1977234  68.0535112  78.5003900  42.2680664
  67.7404759  77.2325900  43.0333614  52.0332401  71.3195466  16.7439850
  52.4508922  70.7347797  17.3763188  51.4455431  70.7522486  16.2449749
  46.1335068  62.4481534  15.1584919  45.5008119  63.1622146  15.0807484
  45.6202977  61.7075180  15.4814537  24.5488997  76.0694908  29.4798763
  24.6389582  75.1323842  29.3068131  23.6905175  76.1550330  29.8947151
  17.0259702  51.1174250  70.1600647  17.7315748  50.7096291  70.6621218
  16.2760186  50.5358982  70.2850771  15.4933441  36.8893600  48.4166098
  16.0660625  37.6240039  48.1963253  15.5210781  36.8422151  49.3722439
  50.0374120  70.1315044   0.6123407  49.3362742  70.3214978  -0.0109903
  49.5833605  69.8269509   1.3980396  34.1496395  76.5807365  15.1106747
  33.8361784  77.2722100  14.5277222  33.7207981  76.7601990  15.9474095
  43.5623550  16.9605422  59.0773201  43.2999468  17.8734124  59.1958189
  43.9389467  16.7082155  59.9203777  59.4253462  51.9648825  14.1342075
  59.5393865  52.8834080  13.8902004  59.7433942  51.4744418  13.3762177
  27.0406342  58.3732080  58.2523870  26.6028857  58.1990004  59.0856123
  27.1325397  57.5117254  57.8454065  26.7174273  43.7134847  17.9444702
  26.2409883  42.9174556  18.1802090  26.4103591  43.9241325  17.0626743
   0.9393961  33.6091852  64.1436625   1.4746271  34.3620944  63.8928938
   0.0445061  33.9481831  64.1656828  36.4442985  79.1785430  21.8955811
  37.1176045  79.4071363  22.5363930  35.6340533  79.1380070  22.4036034
  15.8642846  70.4449080  19.4257363  16.6024678  70.2724956  20.0101956
  15.4132955  71.1899732  19.8228748  66.2292245  32.5990129  61.2044287
  66.2290552  32.1074462  62.0257664  65.8126572  32.0117188  60.5737209
  67.6931296  13.6683126   2.6181610  67.0138322  13.0497785   2.8868635
  67.4365054  13.9376636   1.7362173  34.6379655  52.8619241  18.8285645
  35.0887888  52.1391331  19.2650993  34.9512433  53.6464094  19.2787560
  24.4037532  67.8566407   7.4289902  25.2735474  68.0663370   7.0888193
  24.3477433  66.9027971   7.3717459  27.1188450  38.4083343  66.0160828
  26.8017125  37.5330281  66.2385607  26.3312340  38.9521265  66.0023594
  58.2946780  66.3744402  55.7747650  57.5780872  66.2829494  56.4027405
  57.9285219  66.9082403  55.0696278  78.1097911  44.1440531  21.8907078
  77.9755245  45.0485368  22.1737583  78.9317952  44.1659399  21.4007385
  28.8787348  76.5103617  60.1789284  28.4991009  76.5897193  61.0540342
  28.3229286  77.0595506  59.6260262  78.4300147   8.5628458  13.6146076
  77.8487216   9.3232294  13.6266716  79.2497097   8.8937994  13.2474526
  24.5075798  43.1741285  59.5234728  24.7670674  43.9122057  58.9719868
  24.9737144  43.3153343  60.3474951  37.4184262  82.6819323  13.0384739
  37.7225660  83.1737088  12.2756584  38.2175576  82.3306035  13.4311493
  46.0501509  59.7636246  23.3913811  46.8714970  60.1194440  23.7305172
  46.0217243  60.0538741  22.4796875  78.0627152  30.9814130  25.3201683
  78.1855675  30.2442085  25.9182270  77.2520300  30.7786189  24.8533734
  36.9273119  48.6688726   1.0269697  37.8223436  48.3389567   0.9475620
  36.4982849  48.0561190   1.6242130  11.4851403  19.8458087  60.9960461
  11.6051662  20.1655245  61.8902493  10.9414315  20.5114245  60.5746555
  18.0518222  36.4388633  59.3589449  18.2135010  37.2822356  59.7818089
  18.0606568  36.6350603  58.4221077  41.0298204  24.4978094  65.4688263
  40.3773355  23.7986445  65.5096579  41.7746544  24.1596413  65.9659147
   0.8880891  21.5464020  23.1081605   1.7575958  21.2408042  23.3666182
   0.5829787  20.8946705  22.4769831  43.1913846  77.2669719   6.7557152
  44.1148608  77.0530199   6.8885573  43.1777077  77.7763985   5.9454497
  56.0316627  28.2736121   4.1846283  56.9324487  28.0768274   4.4417151
  56.0956519  29.0950524   3.6974199  37.9603410  20.0594974  58.1087160
  38.2926846  20.4100037  57.2823238  38.5331202  20.4366827  58.7764692
  39.1751814   0.2551392  37.5330162  39.1007304  -0.5310700  36.9921231
  40.0506210   0.5933621  37.3447514  15.0752032  13.6320364  63.8750887
  15.5432451  14.3326509  63.4208775  14.7484064  13.0684662  63.1737852
  38.8961458  25.3836107  63.7347841  39.3506885  25.4345512  62.8939342
  39.5652199  25.0856853  64.3510723  83.0522459  67.7257918   5.3839405
  82.5530737  68.5234450   5.2084168  83.4421032  67.4966978   4.5402821
  83.9160982  39.2537928  48.3521318  84.8723808  39.2358518  48.3142710
  83.7118659  39.1793251  49.2843199   7.3533242  63.4410404   2.1215351
   6.7416423  63.8012217   1.4793881   7.1217602  62.5140666   2.1791943
   4.3530169   5.5910110  64.0341377   4.1921923   5.0427669  63.2661581
   5.2229130   5.9618241  63.8857794  78.5298412  74.9733518   5.6979187
  77.5959700  74.8127722   5.8333119  78.5915821  75.9169768   5.5496176
  52.4455051  59.0579966  49.9160624  51.8897484  59.8296907  49.8071861
  53.2273380  59.2509630  49.3986320  30.8027121  69.7743129  26.7159088
  30.6712688  69.4303416  27.5994404  31.4173388  70.4991816  26.8300636
  28.4412694  22.9284930  44.5887089  29.3664169  22.7597857  44.7672367
  27.9984975  22.1149492  44.8302317  60.1581090  69.7332333   2.7355869
  60.0992101  68.7950538   2.5550850  60.9674709  69.8302554   3.2373388
  28.4764075  33.9455342  59.3685007  28.5808802  34.8499250  59.0728712
  28.0126667  33.5115242  58.6523962   0.2081425   7.8814502   9.6229370
   0.9384806   7.9424902   9.0072163  -0.0916378   8.7842651   9.7292050
  85.1252304  21.5965315  12.0986183  85.6594191  20.8153339  11.9550808
  85.3993212  21.9197317  12.9568966  66.9554775  46.2246542  -0.0159542
  67.8741806  46.4744337  -0.1150934  66.9857090  45.3273844   0.3160484
  69.0750328   4.8276132  22.8947020  69.2971268   3.8965362  22.8960419
  68.2939294   4.8867339  22.3445964  62.4117489  76.4839914  58.4742880
  63.0251283  76.5680984  59.2043018  62.5741185  77.2577330  57.9346657
  37.1478551  75.6628441  10.1297672  36.7061447  75.1189994   9.4775780
  38.0751239  75.6085395   9.8985584  81.0762867  18.9315999  52.8536606
  80.8025262  19.8415029  52.7380562  80.2872732  18.4196615  52.6758718
  60.5785506  72.4748753  39.9477490  60.9349196  73.3294557  39.7050007
  61.2612002  72.0749782  40.4865463  72.9567144  78.6314109  54.4167042
  73.2087849  79.4893119  54.0750933  73.7052677  78.3546829  54.9452162
  79.7813909  62.5912522   4.9055775  80.3646438  63.3197616   4.6926888
  79.9697416  61.9308924   4.2387303  56.3631418  14.0335536  55.7563353
  55.9511569  14.7746968  56.2004137  55.7103255  13.7429285  55.1194715
  72.7875648   5.3588625   5.7224520  71.8384395   5.4669901   5.7832964
  72.9077647   4.4517608   5.4414757  58.6607354  55.4115461  16.1163719
  58.0715077  56.1648368  16.0764321  59.4816940  55.7673894  16.4564331
  67.0657638  57.2867537  66.8430471  67.7625015  57.0904112  67.4693394
  67.1830896  56.6428375  66.1445951  83.2213102   3.0304714   6.6188295
  82.9924999   2.6725860   5.7610424  82.3993192   3.3854910   6.9572409
  44.9374817  20.8646007   2.6045473  45.4168545  20.7799860   3.4287270
  44.3939887  21.6436620   2.7224787  34.1659921  29.6433460  25.4462727
  33.6402445  28.9889716  25.9062870  34.9902933  29.6728538  25.9319504
  33.4757613  64.1249155  28.6077030  32.7827810  64.7372817  28.3606823
  34.2882701  64.5851539  28.3973702  22.6253183   9.9951645  22.5934418
  23.0002935  10.0246950  21.7132481  22.7415044   9.0870853  22.8729447
  60.2192586  70.1485895  18.9948185  59.9160092  69.5658087  19.6909817
  61.0017150  69.7202014  18.6477192  35.4114342   9.9223810  34.9182391
  35.9549975   9.3676567  35.4777503  35.5142283  10.8022201  35.2809358
  82.7215539  22.0555444   4.3492087  83.0178962  22.4537178   3.5307511
  82.3878489  22.7892824   4.8654516  15.5397320  40.6516171  60.3606224
  14.7456002  40.9002256  59.8875713  15.2517879  40.5315685  61.2655544
   8.4494114  21.4524841  68.2339525   7.5877172  21.8627334  68.1603956
   9.0355474  22.1686339  68.4785128   0.7793808   6.9338763  42.8372717
   0.2893266   7.4157995  43.5034800   0.4030808   6.0538846  42.8529119
  26.7278075  18.7298596  47.1813393  27.1056175  18.8034558  48.0577374
  25.8581018  19.1214871  47.2617817   6.7131145   2.5361534  10.1290997
   6.7108662   1.6821476  10.5614193   7.1093257   3.1275221  10.7690437
  70.0514839  12.4917837   3.5111578  70.5654429  12.5564047   2.7062328
  69.1867374  12.8242536   3.2705124  19.6897805  58.5560226  63.4541988
  20.5449367  58.6028957  63.0267143  19.6147287  59.3826151  63.9310074
  17.6422174   2.3702045  35.8642967  18.1998975   1.9930597  35.1838596
  17.2614057   1.6128679  36.3088902   5.3727388  45.8113956  68.1558275
   6.2314570  46.1774874  68.3675194   4.8839071  46.5461397  67.7851200
  11.1844563  25.5283785  21.9510531  11.2172508  24.9623775  22.7222848
  10.4777646  25.1651812  21.4172864  75.1051079   4.8914238   1.3686760
  75.6376324   4.8594661   0.5739267  74.7863029   5.7931467   1.4072712
  25.3915699  12.3391338  20.0695999  25.8379037  11.8877598  19.3531712
  25.2206142  11.6533752  20.7151516  29.4750142  15.3608215  65.6561279
  28.6888528  15.8993852  65.5659580  29.8238969  15.5886853  66.5178633
  29.7583365  20.0459337  53.8103771  28.9661646  20.4713631  53.4821939
  29.8207211  19.2344952  53.3064890  18.4336622  17.4589391  12.9853066
  18.9323719  17.1844955  12.2157581  19.0379436  18.0157562  13.4762486
   0.8774002  11.7164703  13.2125862  -0.0210946  12.0465322  13.2118328
   1.0471470  11.4818664  12.3002442  33.9322329  19.1208243  35.2050757
  33.2929111  19.8305225  35.1432014  34.5000696  19.3728030  35.9332919
  11.4855969  50.6011343  38.7549067  11.0341775  51.3158751  39.2039084
  11.7464077  50.9741020  37.9128218  44.6979141  66.8834066  67.4551201
  44.9595070  67.1043062  68.3489895  45.5105209  66.6128349  67.0276928
  27.3774433  55.9827566  43.2235146  27.1110272  55.5252934  42.4260283
  26.9539881  55.4968452  43.9311886  65.0566833  71.7258428  43.2527168
  65.0160067  71.7439865  44.2088802  64.8752730  70.8146166  43.0225189
  51.8699408  39.6436381  66.4649343  51.3045216  40.3440380  66.7904568
  51.8495750  39.7422743  65.5130482  73.9294784  70.6753587   0.1167782
  73.1518381  70.1791452   0.3722675  74.1991728  71.1265968   0.9167059
   9.7770078  17.4023290  15.2760513  10.1415713  18.1225963  14.7617157
  10.2689989  16.6320225  14.9917896  56.4097970  53.7117504  42.9888542
  55.6106298  54.1662775  43.2552536  57.1100204  54.1611420  43.4621056
  64.6870511  78.2156061  21.6900261  63.9677709  77.9861783  22.2784432
  65.4694598  78.1716918  22.2397049  31.4699173  56.6551733  54.1149807
  32.1031928  55.9929705  54.3918943  30.6569433  56.4082718  54.5558262
  32.5817718  78.4624313  13.1761082  32.1836915  78.6570047  14.0245827
  33.1952055  79.1822790  13.0286415  63.0154848  42.7809429  67.1129370
  62.4502230  43.5527086  67.1459055  62.4483538  42.0824575  66.7862558
   2.7271280  58.5938120  58.8202858   3.3541548  58.7276602  59.5310307
   2.7305695  59.4211388  58.3388853  18.8271427  36.7125607  64.2252636
  18.5140884  37.4988627  63.7780952  19.7741020  36.8355846  64.2913342
  70.0034635   6.0253236  60.0644684  70.2571504   6.9435117  60.1583242
  69.5005720   5.9977910  59.2504787  53.7459295  58.8460623  22.3800190
  53.3813446  59.6491371  22.7520092  53.0903356  58.1749760  22.5699433
  22.1425915  41.6992188  71.0174370  22.8041530  42.3709393  70.8520174
  21.7066908  41.9849443  71.8203020  36.3683224  19.2387211  65.4746199
  36.9447064  18.4748709  65.4979801  36.5671182  19.6633458  64.6401119
  14.6306849  54.8671436  46.3034105  13.9205575  54.2399597  46.1670542
  15.2786112  54.3869686  46.8190193  60.7667153  82.1803759  18.1119927
  60.8162587  81.3408541  18.5691364  61.0488694  82.8240012  18.7618931
  65.6068557  66.3121151  12.5747307  65.9723513  66.9821547  13.1523903
  65.2032178  66.8056511  11.8607815  71.5885466  73.5663031  25.9323319
  71.5527695  74.4829987  26.2055023  70.7047670  73.3753370  25.6181629
  77.3692720  67.1423935  23.0481537  76.9082134  67.9535650  23.2618340
  77.2839706  67.0615100  22.0981987  31.2402735   8.4629533  29.7574949
  30.6170382   7.8308961  30.1157093  31.8581619   8.6209390  30.4712772
  62.4001782  82.1294593  49.0036495  62.8001135  82.3420380  49.8469170
  63.1331962  81.8523787  48.4539803  29.5821629  64.1158365  27.3398026
  29.1826128  64.2597317  26.4819630  28.9827729  64.5358585  27.9566868
  72.6329184  13.9240468  48.7135935  71.9037199  14.5176268  48.8929319
  72.2231579  13.1528199  48.3217525  73.4100502  59.7300111  20.4685219
  73.2027023  60.5637084  20.0464066  73.3563679  59.9162792  21.4058884
  17.1488404  21.4084792  55.3138351  16.8223059  20.5252123  55.4854298
  18.1006825  21.3109565  55.2870798  63.0459840  77.8517339  64.4482136
  62.4518959  77.2320881  64.8716879  62.5564567  78.6739048  64.4231129
  28.8952661  36.6195512  63.4608650  29.0164828  35.8758378  64.0511417
  28.0545068  36.9965601  63.7201309  26.1745429  48.3909178  54.0089035
  25.9280443  47.6270103  53.4874487  26.7127562  48.9195395  53.4197330
  16.4768231  46.0199451  49.8771667  16.3292539  46.5876627  50.6335783
  15.6658149  46.0782528  49.3720961  21.6453433  37.9447770  52.6662683
  21.2594724  38.1187344  51.8077374  21.1083984  38.4497380  53.2769537
  13.1484151  45.6809425  59.4295216  12.8998554  45.4283571  60.3187084
  13.0903435  44.8695898  58.9249802   6.1110198  34.2268419  66.1061573
   5.8841050  34.1798997  65.1774263   5.2744943  34.1341639  66.5620804
  83.7994161  23.7052107  70.7006502  84.2695937  22.8944230  70.5062628
  83.0765882  23.7192106  70.0733089  21.3098073  34.0988541  47.1810389
  20.8196640  33.3268356  47.4638414  21.6460156  34.4795656  47.9923725
  13.3950734  40.9086037  45.7855701  13.9563501  41.4010048  45.1866198
  12.5303519  40.9300661  45.3756571  16.3599260  26.2602182  11.3534649
  15.9588916  25.9806677  10.5305107  17.0886190  26.8205925  11.0865887
  55.2827351  58.2587432   6.6542586  55.8460944  58.2721626   5.8805140
  55.3448789  57.3609065   6.9802340   6.5317070   3.8082895  28.0075240
   6.3841015   4.2455161  27.1689081   7.4155492   3.4475696  27.9372716
  63.7622230  81.8996047  21.6748531  64.1894095  81.9868420  22.5269898
  62.8270882  81.9672011  21.8676861  20.2881289  32.7430487  54.0542507
  20.0854874  33.6123872  54.3998194  21.2225246  32.7784896  53.8495970
  18.2926774  76.4985561  71.4891958  18.7155354  77.0037508  72.1836042
  18.9426672  76.4654684  70.7873058  62.4199343   3.5860789  53.0214071
  61.7022800   4.2079675  52.9011440  63.0471182   3.8081083  52.3332453
  76.3027017  80.6545757  12.3480900  76.9929617  80.8294486  11.7084129
  76.5456932  81.1779808  13.1117829  87.5338994  27.2018762  11.5136440
  88.1606518  27.8053804  11.1146458  86.6772805  27.5788875  11.3128861
  23.1021357  58.9140892  53.9213371  22.7756548  59.0704060  53.0352163
  23.9317870  59.3900537  53.9583492  76.2860893   1.9519611  10.9292038
  76.4330850   1.9149919  11.8743237  75.5775283   2.5864740  10.8216484
  36.5921932  77.9361438   6.8700798  35.7905703  78.2402204   7.2957237
  36.3776564  77.0582794   6.5545567  27.5146008  49.5855093  67.7807617
  28.2296515  48.9633036  67.9141617  26.7983389  49.0557671  67.4306536
  46.2869041  58.6550390   8.1720932  45.5811935  58.2312607   8.6605843
  47.0677572  58.1456529   8.3889492  82.7911394  55.5745517  14.7068318
  83.5789507  56.0819565  14.9021061  82.5333183  55.1990293  15.5487068
  25.1075435  23.7234640  50.3024292  25.5762839  24.0824366  51.0558605
  24.1874743  23.9227438  50.4756117  33.0102944  32.3277164  66.7283678
  33.7382293  32.8734350  67.0259190  32.8346944  32.6280522  65.8366346
  88.2297621  19.3826671   9.7760304  87.3331557  19.3633028  10.1106175
  88.6933909  18.7255855  10.2951821   9.1790783  60.7262421  56.5082598
   8.8617569  61.2411833  57.2501278   9.1778028  59.8231554  56.8255281
  76.7321180   9.7040172  29.5281513  77.3361836   9.0002390  29.7648819
  76.6419552   9.6327444  28.5778816  62.7792121   9.0869470  31.7835529
  63.4604661   9.0079780  32.4513062  63.2597293   9.1751667  30.9604176
  64.1747206  75.4575466  25.1739605  63.5573595  75.9343647  24.6192082
  63.9135473  75.6786274  26.0679062  84.1049524  71.7617153   4.3347557
  84.3797275  72.6786159   4.3299301  83.5545393  71.6807245   5.1136788
  75.8114110  27.7265259  16.8166645  76.7510103  27.6788994  16.6402634
  75.6775747  27.1405979  17.5616558  68.1341150  30.7153773  72.0968390
  68.2388535  31.0329485  71.1999512  68.1297115  29.7617555  72.0142841
  35.7841444  15.8814359  59.6895552  36.1771846  16.7506349  59.7685814
  36.5301895  15.2820218  59.6708584  21.8520141  17.5963116  31.0738063
  21.5858817  17.1804643  30.2537584  22.0603919  16.8658066  31.6561913
  20.8564305  37.1809864  61.9357300  21.4617896  37.8506970  61.6175175
  19.9945748  37.4799323  61.6457891  44.2984717  59.2048620  11.6640385
  44.8847573  58.7057458  12.2327145  44.3055611  58.7273597  10.8344753
  10.9650004  42.4050045  69.5007563  11.6993105  43.0069542  69.6219063
  10.5474544  42.3603821  70.3609324  67.9131835  50.7285367  16.7599209
  68.5437911  51.1910539  17.3118694  68.3547705  50.6385450  15.9154423
  22.0057845  44.4117308  65.2434397  21.2019730  44.3994045  65.7630253
  21.9834828  45.2531576  64.7876596  13.3717513  53.2601070  66.1969280
  13.6570656  53.6820078  65.3864765  12.5852501  52.7737474  65.9497356
  47.0237637  21.2687945  43.4170151  46.9495010  20.4534841  42.9210472
  46.3963938  21.8601251  43.0011272  74.9027215  18.0100723   3.5121306
  74.6415196  17.3299642   4.1329821  75.5302416  18.5474439   3.9955338
  53.6444998  26.7553234  60.1381969  52.8927326  27.1626854  60.5684614
  53.3220673  25.9011412  59.8507166  73.8147228  61.7306565  26.0180863
  73.8210028  61.2572824  25.1861580  73.2013386  62.4521207  25.8785160
  25.9102750  74.4026566  51.5835238  25.6942368  75.3350115  51.6000986
  25.1440859  73.9862442  51.1888266  44.2677116  32.2832322  54.3584299
  44.3801641  32.6962280  55.2145958  43.3680105  32.4928093  54.1077328
   5.0557222  60.2686750   7.2959002   4.6133604  59.4561921   7.5417097
   5.7909002  60.3349422   7.9052933  21.9491346  36.5450378  17.2756107
  21.8179185  35.7722708  17.8250225  22.5308330  37.1069427  17.7875908
  28.9299154  40.3871202  65.5596638  29.2810011  40.1721382  64.6955156
  28.3069444  39.6848369  65.7465792  82.0042345  35.8760571  38.7208652
  82.4289569  36.0271573  39.5652652  82.3597559  36.5562105  38.1488252
  41.3718527  58.8747834   4.9669607  42.0228260  59.5759891   4.9947889
  41.1055951  58.8314616   4.0485581  26.8306716  81.9546937  14.9799069
  26.9887335  82.2949361  15.8605202  26.2370296  82.5905083  14.5804508
  40.8277767  62.8212498  12.1367462  40.4456323  63.4864854  12.7091606
  41.6474240  62.5774096  12.5668057  87.0882632  28.0613708  67.4891186
  87.8433193  27.7959919  68.0141830  86.5709321  27.2618532  67.3923206
  54.1716337  65.0293255  71.6377163  53.8418055  65.8632326  71.3029814
  53.6751938  64.3657637  71.1586905  72.3673914  10.6843181  23.7658890
  71.5066503  10.3889414  23.4690579  72.1885906  11.4834591  24.2615040
  18.6630607  28.9240861  70.6443691  18.2977021  29.4624043  69.9422598
  18.0424428  29.0193081  71.3668633  66.3114517  71.3244413  17.0543488
  65.7894152  70.9559583  16.3416584  66.3203471  70.6399607  17.7234085
  42.8121090   4.7823638  48.5926771  43.1903458   4.9859339  47.7372646
  42.1810865   5.4849619  48.7488699  37.7917921  60.9392380  18.3586891
  37.0660286  60.3883742  18.6520298  37.8409599  61.6380118  19.0110119
   7.7909434  51.7208767  41.0710907   7.6488680  50.9329557  40.5464745
   8.4599268  52.2100925  40.5921745  10.9153485  56.8448448  49.4116020
  10.6274831  56.7760468  48.5013056  11.7568302  56.3890648  49.4317913
  44.5494919  66.8784283  41.4599903  44.7349840  67.3692273  42.2605713
  44.0515678  66.1164497  41.7561157  42.1943705  67.2623276  36.3106735
  42.3904174  66.8078660  35.4913719  42.7719205  68.0256366  36.3052948
  30.4348898  29.4166946  68.9193630  29.5622635  29.2479920  69.2747402
  30.3313947  30.2127671  68.3980274  23.4713817  36.1739445  53.8505840
  24.2921805  36.0347700  53.3781910  23.0137682  36.8443561  53.3432674
  13.9323962   6.0198808  58.6723042  13.5307336   6.8639684  58.4663534
  14.7377264   6.2451351  59.1380692  44.5817423  35.3813457  66.5547466
  44.6491909  34.4265270  66.5536118  45.4880714  35.6855345  66.5071154
  21.3137197  19.3154442  61.4339590  21.4775348  18.6047590  60.8140230
  22.1852946  19.6331644  61.6698503  75.3755627   6.6984888  36.9135483
  75.4812465   7.6414915  36.7878063  74.4679306   6.5238996  36.6646488
  21.4429235  29.6846819  51.5192795  21.6426754  30.6021810  51.3334560
  21.9086576  29.1959739  50.8406830  48.4200209  70.3861355   5.8870323
  48.3039420  69.4367217   5.9240730  49.2989664  70.5061196   5.5274637
  26.1627674  19.9277127  43.7631273  26.2799478  18.9781284  43.7350416
  25.7194591  20.1387429  42.9414368  84.9211107  13.5937496   9.6075543
  84.9456511  13.2157322   8.7285050  85.1811324  14.5065113   9.4831093
  29.4250298  37.0615888  67.1279478  29.3375206  37.4987578  67.9749775
  28.8415885  37.5483298  66.5457869  40.7641380  74.4918560   0.8566673
  41.3049715  74.7888278   1.5884693  40.1413970  73.8814019   1.2513455
   4.8321360  36.5940094  47.9346037   5.2308095  36.9371152  47.1348715
   5.3390706  36.9895506  48.6436844  13.9659762  36.1269450  35.5110407
  14.2566943  36.7871475  36.1402035  14.3831515  36.3805962  34.6877193
  61.9589584  64.5185112  10.1950272  62.2201412  63.9724373  10.9365280
  62.2181099  64.0146827   9.4235142  62.5667286  44.6199799  60.9145880
  63.1726646  45.2612400  61.2858820  63.1301928  43.9160252  60.5933619
  56.4214373  39.8331332  64.9934912  56.5130949  40.7154226  64.6337700
  55.8151150  39.3932986  64.3975449  85.7683335  52.7414274  68.6603975
  84.9925909  53.2739115  68.4845734  85.8475117  52.1732187  67.8941727
  12.6224811   0.4486843  41.7089184  12.7796657   0.8313318  40.8457287
  13.3155592  -0.2034859  41.8116196  18.8818510   2.4549289  25.1120670
  18.2105310   2.0622392  24.5540722  19.7065456   2.0990844  24.7811707
  41.0463953  31.8157768  66.0699224  40.2737617  31.9007730  66.6285276
  41.7608643  32.1804142  66.5922308  73.0684148   1.4364048  10.1599320
  73.6095618   2.1746107  10.4400070  72.9628371   1.5610691   9.2167767
  58.0557238   9.0190502   2.8070171  58.5026361   8.2254692   3.1015213
  58.7628457   9.6107765   2.5499828  32.9253721   2.4505968  46.5539885
  33.2366180   3.2938749  46.2249851  33.5086393   1.8066990  46.1522055
   8.2284051  39.3993425  49.8313761   7.4900824  39.9682808  50.0491381
   7.8639251  38.5145521  49.8544598  64.0648597  58.1107901  29.9397381
  64.2111342  57.2005914  30.1973637  64.9386042  58.5016571  29.9346836
   2.1861782  74.5816921  24.0401943   2.4141493  73.6529468  24.0813549
   2.9805555  75.0093554  23.7203606  50.8052938  63.0401276  10.0692852
  51.2975519  62.2920965   9.7311123  50.3449171  62.6973485  10.8353050
  14.0265043  19.2475029  23.5741623  14.5955904  19.7174640  24.1836746
  14.4294412  18.3835312  23.4879692   4.1211071  79.4411324   6.5898760
   4.6522464  79.2666315   5.8129128   4.7312059  79.3519877   7.3220404
  14.5552690  34.6901079   6.2590798  14.2423160  33.9165779   6.7280682
  14.0127666  35.4062267   6.5893706  66.2008858  17.7880204  63.2886410
  65.3611422  17.3509610  63.1470871  66.8558073  17.1235073  63.0747843
   0.6707372  41.8434673  25.9229096   1.4351835  41.6112366  25.3957279
   0.4206314  41.0267297  26.3549050  57.5159183  78.8509926  48.0334330
  56.9158612  79.0635535  47.3186016  58.1187385  79.5936748  48.0689621
  37.3141997  80.7488345   5.6446560  37.2878294  79.7978448   5.5390413
  36.4267176  81.0380648   5.4326351  67.7838366  63.2170652   4.9218758
  67.1518057  63.3149694   4.2097099  67.4307387  62.5083612   5.4597338
  32.6860428  15.8416939  63.7266159  32.7489114  16.7534530  64.0111732
  33.5730243  15.6167471  63.4457350  54.1789818  11.0745859  64.3067837
  53.3124018  11.3333654  64.6203184  54.2161417  11.4019597  63.4080744
  62.8667944  76.1216711  32.6543816  63.1122177  76.7790102  33.3054646
  63.2900708  75.3173898  32.9547222  35.6396532  34.9417472  61.6749096
  35.0177121  35.3586245  61.0785580  36.4496899  35.4391193  61.5622377
  40.5252171  24.5544934  71.2432337  41.4524698  24.6330905  71.0190535
  40.4695940  23.7458038  71.7523098   7.0167780  18.6024904  57.9725981
   7.5751120  19.2903650  57.6102161   6.2258172  19.0607691  58.2564926
  49.6767991  80.4839801  38.3091076  49.0393632  81.1466073  38.5752495
  50.5112403  80.9520983  38.2807549   9.9515779  23.8669344  17.8532036
  10.4290731  24.2453142  17.1149166   9.0313156  23.9184805  17.5949581
  25.5779624  46.7958975  67.0686007  25.6116533  45.8518744  66.9139481
  25.6770039  46.8870354  68.0162907  81.8698655  31.8032118  52.4374493
  82.6242839  32.1501919  51.9613369  81.4750753  31.1733671  51.8344029
  51.3980341   6.3974208  50.8036804  50.7545805   5.9595942  50.2464485
  52.1851492   6.4537883  50.2619219  51.6662264  13.1582642  23.6387134
  51.6172791  12.2605753  23.3100963  51.5599728  13.7045419  22.8599191
  79.3219624   3.7811085  30.3918369  79.7194467   4.4461389  29.8297222
  79.7376667   3.9086719  31.2445648   1.3073947  29.9952269  36.7039871
   1.7793371  29.3964887  37.2827911   1.8852976  30.1034546  35.9486413
  74.5737951  58.0209326  28.2040890  73.6713236  58.3112155  28.0717667
  74.8351066  57.6577996  27.3578747  23.1060791  32.5963855  62.3231077
  23.0525231  31.6469574  62.2137785  22.3257828  32.8236437  62.8287935
  13.5560567  25.2657696  10.2432163  12.7634532  25.7842727  10.1047714
  14.2487581  25.7678743   9.8139294   3.1155910  61.6593503  24.0640934
   2.6337614  61.9598197  23.2935150   2.5230159  61.0404991  24.4908341
  11.7753696  57.9624796  39.0873289  12.4326432  57.5365257  38.5370684
  12.2839785  58.4904861  39.7027612  17.2575104  30.3704667  48.3632231
  16.7832720  31.0323238  48.8664913  16.5835750  29.7468710  48.0927229
  40.5561846  27.1987950   0.0420101  41.1253219  26.4886545  -0.2546684
  40.9516447  27.4962686   0.8613690  83.1692134  30.0457855  10.3681381
  82.4246941  29.7345587  10.8829792  82.7732859  30.4738136   9.6090229
   0.6221847  48.6046028  59.2998457   0.0224476  47.8654099  59.4005585
   0.3133508  49.2517185  59.9339533  63.2707310  79.7216320  53.0539560
  63.2489920  80.4345322  53.6923456  64.0521193  79.8942137  52.5287151
  84.4116276  81.8248843  45.7315643  84.0249174  81.3653539  46.4768990
  84.2014521  82.7463578  45.8830555  44.8383522  82.2847748  58.0438948
  45.4349375  82.8956413  58.4765053  44.9400330  81.4662170  58.5295582
  71.8369447  27.6717468  16.6769131  72.1711682  27.1502586  15.9471329
  72.0095919  27.1373125  17.4520310  45.8024979  70.9369850  70.4412651
  46.2945843  71.5085030  69.8518181  45.5438662  71.5061283  71.1661243
  47.9152155  68.4696341  64.7552872  48.8707066  68.4745598  64.8122215
  47.7314615  68.3963585  63.8187504  62.0258181  81.2055134  15.2692326
  61.5258568  81.5256618  16.0200794  62.6543491  80.5892061  15.6451901
  45.3165245  78.8430309  56.7063665  46.0464525  79.2451143  57.1772861
  45.7253838  78.4046173  55.9601307  36.0141087  60.2646017  69.4783592
  35.8897185  59.7276831  70.2609682  35.1315928  60.3851080  69.1278172
  63.2952642  60.4885864  61.5592098  63.0158281  60.1352072  62.4037647
  63.6681795  59.7378778  61.0970306  46.4624834  55.2796030  69.6635103
  46.3515568  54.7948551  70.4814053  46.9959831  54.7046757  69.1148138
   3.3264167   4.4207140   6.3830670   3.6949761   4.1697117   5.5360754
   2.4543603   4.0261503   6.3912018   8.7522974   3.5888192  44.8200560
   7.8720655   3.5965344  45.1960421   8.6229648   3.8291547  43.9025879
   1.8959751  57.1049928  24.5308884   2.1611728  57.0474242  23.6129578
   1.1637535  56.4932607  24.6074684  10.1407464  27.4206205  16.7655953
  10.1516135  26.5696426  16.3274677   9.9007208  27.2210832  17.6704796
  61.9445746  71.1376976  27.0656784  62.2772496  71.9693350  27.4032219
  61.0492199  71.3325309  26.7888935   6.5253909  18.5081049   3.4908064
   5.9306295  17.7625986   3.4088953   6.0120590  19.1750665   3.9467486
  32.9059958  64.3628740  69.4932222  32.6836300  63.8866949  68.6931992
  33.5145473  65.0434303  69.2055702   2.6084335   2.8323503  34.0050038
   2.8938897   2.5110622  33.1497105   3.3926208   2.7865549  34.5519837
  12.3555954  22.1537348  14.3670948  12.1042640  22.9667850  14.8052891
  12.5457675  22.4159857  13.4663780  71.4444082   4.8911473  68.2828379
  71.6468637   5.1558301  69.1801596  70.5760782   5.2573964  68.1152248
  50.2576464  24.7276589  55.7749510  50.0317281  25.6564710  55.7249212
  51.1560028  24.7171304  56.1052227  33.8787270  65.0843048  48.8368797
  34.2812467  65.7147884  49.4341183  34.6183705  64.6649456  48.3972216
  21.4825320  22.6394677  45.6251526  22.2493505  22.0674372  45.6568050
  21.7569089  23.3779788  45.0815058  56.9531631  41.9781303  60.3930092
  57.7071047  42.5488758  60.2445173  56.6655064  41.7279911  59.5149899
  18.9919972  65.7949352  43.4633684  18.2337439  66.3731623  43.3800507
  18.9810348  65.2688551  42.6637745  20.9598184  67.8486347  71.0082006
  20.3432322  68.3852100  70.5100632  20.4597855  67.0679808  71.2464762
  32.2375857  76.9921302  17.1652039  32.0128297  76.5835999  18.0011566
  31.5911683  76.6478275  16.5489014  10.0772603  46.0185953  12.0551689
   9.7162731  46.2094827  11.1894425  10.7745607  45.3841635  11.8893440
   3.0554373  27.2420736  12.5652512   2.6794465  27.6254841  13.3576306
   2.9038270  26.3016172  12.6590450  11.1194682  72.9120636  34.3125772
  11.7007554  72.5661802  34.9898529  11.7096317  73.2189083  33.6242580
  26.4376879  73.4421206  69.3924236  27.3947477  73.4584475  69.3940353
  26.1836672  74.3188477  69.1042280  69.7718941  27.9051109  41.3925846
  70.4268656  27.2079988  41.3568886  70.2520107  28.6974045  41.1517723
  10.5352647  32.1465059  46.0695179   9.7188075  32.0192714  45.5863674
  10.7914693  33.0477615  45.8737381  71.5030353  80.9055494  29.4304569
  71.8465822  80.1012110  29.0415486  71.9568365  81.6089057  28.9661511
  36.0042453  30.4434991  63.4401464  35.6901217  30.4111958  62.5365305
  35.2509332  30.1735449  63.9653873  41.1048542  23.2227703   7.6399000
  41.7025362  23.9009948   7.3252257  41.6125892  22.4130197   7.5875576
  37.9861307  77.8717089  67.0269632  37.3404860  77.1800470  67.1717978
  38.8233376  77.4106693  66.9744349   5.6081476  82.7240227   3.3586128
   5.0718631  82.1379470   2.8246220   5.0594129  83.4971522   3.4904917
  29.9835308   2.9266163  14.4697769  29.7685678   3.8510414  14.3454559
  30.1209266   2.8373953  15.4128559  81.0428892  26.1103721   2.1757658
  80.5220471  25.3119417   2.2621735  81.1824308  26.2045093   1.2334831
  22.3783023  10.2561184   1.6606482  22.5043638   9.4497152   2.1607025
  21.8123348  10.7948108   2.2135742  71.2383030  43.4974428  23.1352432
  71.6443656  44.3588777  23.0389031  71.9685493  42.8809973  23.0808266
  23.0778551  34.0937233  56.2359142  22.9918981  34.3187094  55.3095102
  22.9758239  33.1423283  56.2617970  18.6422386   2.8287980  65.0797129
  19.5508089   3.1206319  65.0050640  18.1233873   3.6145207  64.9074841
  85.1772937  48.9373350  61.1689377  84.8606184  49.1516399  60.2914286
  85.6524503  48.1138897  61.0576248   8.0330832  18.3836218   5.8286007
   8.3140023  17.4692007   5.7946499   7.6148469  18.5373064   4.9814327
   5.1062138  49.8629995   3.9229496   5.1439745  49.2146917   3.2197436
   5.9952815  49.8844095   4.2769726  24.8333509  29.4158836  26.7858990
  24.9053533  28.4686037  26.9029816  24.2098529  29.5217033  26.0673721
  88.4564276  60.4049444  53.4593821  88.2401984  60.9161758  54.2392015
  87.6115530  60.2339077  53.0432510  32.0503910  22.6987930  10.8346565
  31.5553100  23.4476324  11.1668785  31.3908346  22.0199724  10.6917771
  52.4545138   6.3341233  46.2584829  51.5567153   6.1372754  46.5257740
  52.3696320   7.0806596  45.6654358  10.9296286  47.0082521  61.5842104
  10.2079844  46.4748335  61.2511539  11.4315581  46.4120245  62.1399212
   5.4381926  26.3461300  15.5161961   5.3083236  27.2429558  15.2078636
   4.5645268  25.9557863  15.4923638  25.8730268  82.4327946  58.6577129
  25.2635098  81.9726944  59.2347956  25.4260087  82.4623013  57.8118181
  32.0600295  49.2012644  40.2468634  32.0487022  48.6336613  39.4761944
  31.1752057  49.1352415  40.6059790  40.4154873  70.5329990  59.6903944
  40.1469946  71.3338375  59.2400551  39.6535444  69.9568653  59.6292114
  28.9440687  18.8843580   3.9900311  28.0413539  19.1862293   3.8889702
  28.9495952  18.0105873   3.5992296  73.7570255  11.6424653  44.2525387
  73.3731811  11.8998811  43.4143066  74.2754763  10.8638570  44.0495253
  50.6048393  75.3035116  65.0064850  51.3225985  75.4382944  65.6252623
  50.9089947  75.7094622  64.1947460  28.5869551  69.6037102  62.5840521
  28.8108373  70.5053759  62.3536015  29.4319797  69.1679144  62.6947165
  73.5922335  44.5718523  56.3674362  74.3964313  45.0526949  56.5631016
  72.8890358  45.1540800  56.6551121  20.5187726  48.5239029  60.9763479
  21.1212564  49.2677021  60.9750938  21.0864997  47.7557087  60.9147453
   4.4907174  66.0451889  68.3927774   4.3291187  66.9237709  68.0489540
   3.6444947  65.7651186  68.7416315  45.4463291  55.3305006  27.4039865
  45.9113979  54.5170259  27.2085285  45.0349379  55.5762291  26.5753722
  19.1197975  25.1024576  13.0949886  19.2667015  24.5353313  13.8519676
  19.4512279  25.9577509  13.3685978  79.5298944  35.9615608  36.0693176
  79.9126921  36.8386360  36.0901268  80.2242766  35.4054876  35.7159813
  44.6828086  25.9203239  13.4764107  43.8830669  25.3956266  13.5129936
  44.4357784  26.6989942  12.9775341  70.5938785   0.5071446  65.9034491
  69.9611061   0.0333878  66.4432526  70.9190195   1.2049481  66.4722919
  54.8568242   4.6125123  48.6472511  55.5025189   4.6666810  47.9427147
  54.5161813   5.5033013  48.7289572  44.8159409  70.0097322  49.4431591
  45.0858784  70.9231949  49.3485403  45.2544260  69.7117281  50.2401304
  74.2867279  57.8384972  64.8248577  75.0348043  58.3740807  65.0889826
  73.5366154  58.2434177  65.2602959   7.0478685   5.0182720  11.9572552
   7.3898227   5.2035280  11.0826309   7.8206713   4.7869631  12.4725254
  15.8276565   2.4150940  18.9037045  15.4755933   3.2578655  18.6173065
  16.5070589   2.6425834  19.5384415   8.2189519   3.1460901  38.4069164
   8.5441716   4.0132900  38.1652077   7.4566348   3.3213802  38.9586266
  13.5693445  57.7102612   7.6775129  13.6763611  58.5528122   7.2360523
  13.6656036  57.9134332   8.6079415  18.6512756  38.6734581  66.9508410
  18.2418787  38.5617352  67.8088284  19.4984663  38.2351565  67.0308065
   3.1859550  39.3073630  65.1546907   2.8185314  39.4252539  66.0306692
   3.1616426  38.3614612  65.0100756  59.1737931  79.2044233  21.4575489
  58.2371323  79.1306995  21.2746246  59.2224281  79.3531798  22.4018677
   1.3584192  50.8501096  19.9906071   1.2303193  51.7482610  20.2957924
   0.8898027  50.8113046  19.1568669  54.3861001  23.7833783  71.1309814
  53.6616509  23.3609960  70.6694603  54.0729921  23.8805482  72.0302868
  49.5101087  12.2853753  62.4233580  48.9470201  11.5587327  62.6900816
  50.2869909  12.2018144  62.9762602  18.6200309  76.5405226  59.9606085
  18.2514548  75.9542322  60.6213999  19.4452584  76.8414593  60.3409624
  35.9723359   3.0145261  35.3690243  35.6364965   3.1829450  34.4886398
  36.9184004   3.1381795  35.2921963  82.4562073  70.9289074  59.9241686
  81.7233753  71.1526966  59.3504810  82.1806240  71.2255096  60.7915258
   6.3675435  29.8104330  10.4028519   6.1259563  28.8865562  10.4686363
   5.9768064  30.2158733  11.1769112  12.1432039  78.6684799  57.5880766
  12.1558782  77.9224777  58.1876993  11.4517042  78.4593248  56.9601345
  37.4161356   7.0494267  48.3798981  36.5198188   7.3330209  48.1998348
  37.9049044   7.8633210  48.5019827  77.6426862  25.1809927  16.7961033
  77.6123248  24.2396637  16.6251953  76.7558382  25.4014250  17.0809563
   4.5915968  14.7976537  24.7498139   4.8195560  15.2994152  23.9671906
   5.4278071  14.6498485  25.1915558  39.7015102   8.4515520  26.9276531
  39.3147428   8.9265009  27.6632221  40.6459100   8.5482069  27.0501431
  69.7278929  61.0245752  40.6844521  70.3109312  61.5986061  41.1812258
  69.5280409  61.5170956  39.8883891  15.5276496  12.9117151   2.5956543
  14.8175294  12.5446792   2.0691116  15.5838735  12.3347946   3.3573874
  66.2701702  63.2606459  59.2567635  66.5901661  63.4610367  60.1363564
  66.9719601  63.5516644  58.6745024  84.1720353  33.1134649   2.6024159
  84.4373594  33.5619159   3.4053620  84.0672837  33.8150068   1.9596871
  58.8053799  75.5967951  69.9300718  58.5803747  74.8896551  69.3254519
  59.6558952  75.9119034  69.6242046   7.4444516  52.1345850  18.3976372
   7.6472504  51.1998316  18.4341057   8.2006962  52.5268980  17.9612644
  81.8501251  12.4248311  46.9012403  81.8004721  12.0562551  46.0192490
  81.8692797  11.6618535  47.4789381  77.3947351  18.8675687  43.7438107
  77.7535503  19.7526071  43.8084412  77.7771204  18.3993051  44.4859314
  33.2016587  78.3708906  49.1710043  32.6504922  78.9883137  48.6901331
  32.7733707  77.5233793  49.0504837  58.9316908  36.3071485  13.6422451
  59.3295234  36.3494821  14.5118244  58.7073412  37.2147794  13.4370525
  74.1884422  52.6492977  54.1848278  73.8201046  53.0352545  54.9795580
  73.9182663  51.7315722  54.2168188  73.1236783  73.5873365  32.0779920
  72.1951857  73.8050556  31.9959617  73.5721138  74.4321012  32.0391703
   6.4703104  51.9695616  64.1846514   5.5370256  52.1565771  64.2857981
   6.9095251  52.6993513  64.6213675  69.6683748  24.6187683  17.2009094
  70.5575426  24.7808405  17.5161083  69.2550142  24.1122766  17.9000767
  17.8041132  29.7537037   8.4791573  16.9391687  30.0631090   8.2101257
  18.2721002  29.6063562   7.6572617  43.3584118  66.0486269  53.5526085
  43.5060644  65.7886982  54.4619322  43.7614250  65.3510809  53.0356550
  60.6362343  60.5715561  47.7350760  61.3811159  60.0659752  48.0603027
  59.8680258  60.0784254  48.0230093  23.7327154  63.2318063  31.4989098
  23.8670690  63.7045713  32.3202999  22.8252370  63.4202619  31.2597569
  42.2466421  66.7052269  39.0270281  43.0754948  67.0294619  39.3793201
  42.2139502  67.0509052  38.1350255  22.5420816  55.4923101   2.5981672
  22.5787933  55.9101816   1.7377766  22.9664810  56.1171003   3.1861790
  31.4263637  26.7992111   9.2439182  30.8157880  26.0990997   9.0131195
  30.9018953  27.5987097   9.1994961  39.2929180   9.3272873  20.8837040
  38.9411123   8.4697529  21.1226471  38.8848074   9.5273348  20.0412949
  57.3742390  75.1980877  62.8617430  56.6910505  75.7288074  62.4520826
  57.0121288  74.9584198  63.7147760  33.1717022  46.7709966   1.5750225
  32.5220974  46.6263529   0.8870371  34.0084322  46.5542265   1.1637791
   4.2771644   1.5349429  19.6960552   5.0893748   1.1319392  19.3892487
   4.4992921   1.8991416  20.5529411  28.3402498  19.0363975   6.5375336
  28.8635643  19.7420498   6.9175728  28.3516605  19.2099710   5.5962761
   3.9521780  22.8001401  65.9856749   3.7907400  23.7407586  65.9121799
   4.3938150  22.5683591  65.1686859   6.5394232  64.6931314  53.3540821
   6.7626211  65.4524612  52.8157234   7.0833227  63.9857340  53.0076742
  66.9189964  13.9310356   7.7768286  67.5332312  13.3347746   7.3485525
  66.5034376  14.4048973   7.0564182  13.8829172  67.7731276  39.8288488
  13.4641457  68.5700750  40.1540184  13.2154274  67.0942593  39.9279833
  44.8065431  64.5228048  11.0339459  45.2100046  65.2887674  10.6255921
  44.0917547  64.2851301  10.4433354  43.3833892   5.3893371  27.3561390
  43.7326868   6.0005327  26.7075546  43.0103929   5.9496208  28.0367191
  43.8805397  64.5883699  14.5255192  43.1511314  64.0194269  14.7714718
  43.5270174  65.1443907  13.8311871  50.4360723  67.5660276  65.5667305
  49.9484015  67.3145866  66.3510704  51.1852503  66.9704914  65.5493259
  60.1439389  19.4067379  23.1225784  61.0709326  19.3693872  23.3582123
  59.7321489  19.8810859  23.8448342  45.3326416  59.1414595  47.0427418
  45.7359600  59.9879456  46.8503332  46.0718918  58.5435390  47.1533394
  65.7904808  30.9609886  13.4616573  66.5895925  31.3415619  13.8260945
  65.1435147  31.6642900  13.5167511  62.9001672  22.4210401   3.3162649
  62.6452119  21.8858047   2.5647648  62.1569879  22.3606344   3.9164885
  14.0468652  47.0923181   3.8170965  14.5370109  47.2453733   4.6249064
  13.5586984  46.2857004   3.9823158  28.2730317  80.2864933  63.0845022
  28.3695889  80.8823967  63.8273382  29.1468787  80.2443314  62.6961136
  70.2580786  55.0079727  59.3180943  69.4262362  54.7830343  59.7348404
  70.7011604  55.5685902  59.9549770  56.6878319  71.9273281  63.4692430
  57.5263023  72.3845387  63.4047604  56.5605402  71.5373564  62.6044035
  18.9371975  25.8781811   4.5879896  18.4105213  25.5728956   3.8493117
  19.6934278  25.2915235   4.6016176  54.3393230  54.7473097  38.5728168
  55.0404549  55.0802135  39.1330147  53.6198092  54.5596838  39.1755891
  11.2353305  26.4561554   9.5880612  10.7191543  27.2172542   9.8535927
  10.5844096  25.8033701   9.3303688  68.3088493  62.1319103  50.8934116
  67.7602673  61.3787460  50.6742525  67.7595425  62.8920889  50.7020521
  51.4977217  64.4558477  71.2532425  51.6357756  65.0596714  71.9830132
  50.7559776  63.9158916  71.5261793  19.3657072  52.3484369   2.8580435
  19.4005067  51.5633341   2.3115738  20.2417238  52.7278562   2.7882584
   7.1355970  48.2815500   9.3804939   6.5006192  47.5875231   9.5576008
   6.6021593  49.0631338   9.2362602  68.1448572  13.0258080  20.1888323
  68.3237713  13.8825128  20.5765033  67.2680610  12.8005692  20.4998469
  66.2690210  75.9757233  58.1956625  67.0260620  76.4285660  57.8240967
  65.9497404  76.5643930  58.8795900  27.8290374  14.5506235   5.5861910
  28.4197576  14.3959757   4.8490580  28.3546169  15.0458093   6.2145098
  81.3199680   5.0454041  55.2751160  80.3856438   5.1854321  55.4289532
  81.6321628   5.8787248  54.9224710  46.1317873  77.3322105  54.5798683
  46.0247231  77.9168320  53.8295460  45.4656887  76.6564274  54.4539213
  15.3017828  60.1342630  65.2092791  15.4244730  59.4921255  65.9084511
  14.6151754  59.7594547  64.6576262  11.6112335   9.4001814  14.3031033
  11.9241388   9.8054405  13.4943398  11.1640127  10.1074072  14.7679241
  87.3968206  53.4704538   4.7403296  87.3676620  52.5988527   5.1349075
  87.1390115  54.0621229   5.4472168  73.0439186  63.9792871  63.9441347
  73.6112213  64.6007729  64.4003725  72.9600668  63.2425594  64.5494699
  63.7440443  64.1138649  68.3275795  64.0233278  63.9953470  67.4197340
  64.4939137  64.5255423  68.7570524  69.8903179  52.3724365  50.8891201
  70.7898712  52.4490023  51.2071991  69.7959471  53.0898905  50.2625513
  57.2099733  66.8621635  68.5273170  56.5097380  67.4956369  68.3704233
  57.1190882  66.2244415  67.8193045  49.4940233  75.5505848  51.3481569
  49.8569202  74.6868038  51.1521530  49.1961002  75.8829737  50.5014038
  49.3115289  43.2425066  12.5848301  50.2254446  43.5213514  12.6417072
  48.9150960  43.5536237  13.3986290  36.3847327  61.2548399  46.9083834
  35.4528952  61.2819958  46.6911936  36.6975904  62.1422291  46.7326117
  48.0870145  27.9110333  65.2819395  48.8544565  27.4321076  64.9690580
  48.1981211  27.9471013  66.2319851  53.1325865  66.2631035  35.2738118
  52.7280712  67.1301985  35.2466178  54.0734863  66.4367723  35.2458525
  43.6229753  63.2862234  69.5486879  43.7731171  62.8828907  68.6936951
  43.3264065  62.5656796  70.1046562  44.9366045  82.2611046  55.2073860
  44.5613670  82.3331833  56.0850191  44.2711210  81.7966747  54.6997738
  29.8133588  69.5940590  59.1406965  30.4995990  70.2455473  59.2851639
  30.2569866  68.7521029  59.2433405  81.9958578  11.8074842  20.2006062
  81.5589867  10.9985777  19.9340733  82.9264556  11.5838094  20.2142723
  11.2350996  47.7931925  14.1256436  10.6676538  47.4317785  13.4447487
  10.9081609  47.4086328  14.9389370  56.8928297  63.0269762  37.5957783
  56.6924722  62.1583887  37.9445561  57.3957307  62.8552385  36.7996510
  63.1076431  42.2286129  53.8318634  63.7297153  42.3314047  53.1116581
  63.4535074  42.7864933  54.5285511  66.5357637  69.8760271  64.8457479
  65.6479168  70.0016022  64.5107985  66.8163395  70.7508421  65.1144695
  19.5780284  11.3370844   6.3287647  20.1062686  10.5390402   6.3465794
  19.9866302  11.9093271   6.9782360   7.7057733  22.6120469  52.3074532
   7.6439848  23.5384747  52.5401497   7.4248352  22.5755021  51.3931370
  64.6580458  10.1303208  52.9297876  65.2759123   9.5838296  53.4154034
  63.8979101  10.2032816  53.5069370  69.0776818   1.0912415  70.3198051
  68.5621159   0.7051274  71.0278559  69.2525857   0.3615758  69.7254705
   4.1101207   2.6846883  69.9618483   4.1574945   2.4029633  69.0482759
   4.1065111   1.8697450  70.4639292  65.4178333  62.0682907  62.3621798
  64.9066734  61.2781906  62.1870041  64.9123001  62.5385189  63.0251741
  83.3012979   4.7928616  57.0452023  82.5721805   4.8120686  56.4253187
  82.8884714   4.8877713  57.9035664  37.3024900  27.2275301   4.7247418
  36.5776928  27.8494640   4.7887381  36.8786771  26.3718410   4.6583088
  24.6077926  16.0797020  22.7503498  24.7171075  16.3599249  23.6590679
  25.4475267  16.2779756  22.3359020  13.8166196  22.5427099  23.5030850
  13.6589248  22.2786995  22.5966271  14.4435318  21.8996330  23.8342388
  85.5094910  63.9380693  51.9500303  85.5152225  64.8467016  52.2510099
  86.0612679  63.9413595  51.1678743  82.4865072  26.8207929  60.2362967
  82.4812858  26.0206792  59.7109175  83.3572071  27.1931931  60.0968933
   3.8210716   7.1054837  57.0523357   3.0355777   7.1434495  57.5980377
   4.4794740   7.5944898  57.5459051  14.3285615  15.7768579  40.3933724
  13.4488971  16.1474224  40.3219803  14.9132450  16.5302368  40.3109081
  46.7858131  18.0635973   8.7657936  46.7171152  18.9415355   9.1409405
  47.6446636  17.7490516   9.0480621  51.5872090  77.0739936  21.5991314
  52.3677032  76.7893099  22.0745381  50.8555048  76.7719935  22.1373089
  65.5892532  12.5658891  69.7462893  65.9333794  12.7507874  68.8724327
  64.6477836  12.4543378  69.6142864  59.8397010  16.9447038  63.4501743
  60.6145208  17.4040696  63.7740135  59.8173111  16.1297700  63.9517784
  23.2999427  45.6895777   3.5782345  22.9477317  46.5244146   3.2696541
  22.6240976  45.0484701   3.3581217   8.4990110  12.0323178  18.3334339
   9.4380655  11.9629094  18.1613910   8.1103220  11.3140103  17.8342474
  10.1060541  30.3778597  12.7555760   9.9904401  29.9596115  13.6087711
  10.1217778  31.3152786  12.9485329  68.7311697  72.9480171  55.5888462
  67.9399252  73.0701733  55.0642109  69.4461107  73.2089996  55.0083494
  39.1058993  62.4241829  63.1357336  38.3894730  62.3760605  62.5027609
  39.8161268  61.9253922  62.7319813  66.1491571  40.5866190  15.8730133
  66.8874673  40.9983392  15.4240044  65.4005359  40.7451006  15.2979668
  45.8968027  21.6382929  17.0087822  45.8150251  21.7213770  17.9588612
  45.0110776  21.7879720  16.6781433  22.6387596  54.1172457  48.5244846
  22.5163174  53.3328009  47.9898024  23.5509729  54.0718889  48.8109112
  17.2472818  37.8252836   1.0623749  17.8305013  37.5507828   0.3547485
  16.3703783  37.6020475   0.7502278  54.8265171  47.9422951  49.4670725
  54.7154379  47.9098701  50.4172516  54.2766523  47.2315884  49.1372538
  69.3561602  63.7685156  43.4983206  70.1510954  63.2626581  43.6668777
  69.5951796  64.3593931  42.7842045  36.5087326  46.3197847   2.3511131
  36.2443597  45.7292791   3.0565508  36.3894756  45.8066602   1.5519150
  49.7991889   0.5213925  49.5377922  50.6285589   0.7040402  49.0961838
  49.8376100  -0.4128364  49.7427034   7.8673973  81.0977196   3.0743130
   7.2419443  81.8010091   3.2487543   7.5194778  80.3440880   3.5509928
  54.3498135  61.5077400  49.1904640  54.4053411  61.7144442  50.1234245
  55.2540588  61.3329935  48.9296293  56.4745331  66.5944624  49.9140120
  56.7368555  66.6776800  48.9972258  55.8261347  65.8903265  49.9146414
  16.3309724  21.1059852  11.0882958  16.4139230  21.7956396  11.7468842
  15.8360775  21.5124412  10.3768929  39.4565256  15.7312484  24.3517979
  39.3052061  16.6532560  24.5597370  40.3760870  15.5836673  24.5728310
  43.0447967   3.0509468  24.7386177  43.1226165   3.5795494  25.5328186
  43.4427888   3.5880132  24.0534886  50.3346205  75.4477978  46.9939995
  50.7958794  76.0886240  46.4528799  49.7810936  74.9681091  46.3777685
  15.7382400  15.4818340   3.1194027  16.6303165  15.8248945   3.0670174
  15.8054836  14.5875831   2.7847059   0.7795831  64.1203070  53.8674259
   1.4460871  63.6399317  54.3585968   0.7991239  63.7308502  52.9932547
  24.2098577  23.2849165  12.2552975  23.8428314  22.8258701  13.0108078
  23.4547145  23.6965175  11.8350895  88.3414398  54.7560449  14.2330750
  87.5004612  54.7314211  13.7765892  88.5422693  55.6883474  14.3150242
  12.9869182  54.1755529   4.4282683  12.4220045  53.9101454   5.1539810
  12.7296455  55.0785967   4.2423542  27.4218702  36.7830682  14.6516645
  26.7418861  37.4230814  14.8619843  28.2348180  37.1902204  14.9509513
  81.6811405  35.9986921  14.1889580  80.7747899  35.7519098  14.0049561
  82.0729385  35.2096458  14.5632942  67.7339957  59.2769857  25.9211262
  68.0271439  59.2186876  25.0117882  68.0386041  60.1350256  26.2164314
  44.5498180  49.1730928  42.0925522  43.9158249  48.5272503  41.7808342
  45.2867699  48.6513329  42.4101877  81.4958487  32.3882290   1.3743504
  82.3241173  32.5447508   1.8278940  81.6949831  31.6958185   0.7441576
  30.1780677  76.0767174  52.4320793  31.0291958  76.4876461  52.5835609
  30.3803444  75.2816200  51.9389868  51.8837833  56.2405825  49.5774031
  52.0628452  57.1548653  49.7970867  52.4798679  55.7393694  50.1339102
  65.0314580  25.5398222  32.0408447  64.2511020  25.6051393  32.5913056
  64.9097012  26.2134739  31.3718136  37.8600550  62.6534176  41.2274027
  37.6563334  63.5293102  40.8994627  38.5242605  62.3202515  40.6240320
  57.3950451   8.7496278  55.3096199  58.0917447   8.2373330  54.8992586
  57.8380220   9.2515466  55.9937859  86.0920923   6.4431569  44.2153072
  85.4468840   5.9566018  43.7022734  86.4194601   5.8083245  44.8525286
  25.1864393  54.5474001  24.5907887  24.9830778  55.0817152  25.3584965
  24.4051845  54.6104379  24.0413292  86.2310611  77.5969835  10.4520519
  85.5123482  76.9721933  10.3554924  85.8761345  78.4229799  10.1234444
  86.3227306  16.6973015  27.6269253  87.2055922  17.0379778  27.7708920
  85.9673367  17.2420879  26.9246872  10.5701382  10.5228849   3.1840475
  10.8094175   9.9599643   2.4477776  11.2585790  10.3747936   3.8323935
  61.6107321  53.0508614  66.5234089  61.9315052  52.4990702  67.2367525
  60.7256222  52.7295256  66.3514757  17.7549942  64.0226694  22.0470913
  16.8671377  63.9817091  22.4024304  17.8573663  63.2031389  21.5632256
  77.6251698  69.7296190  36.0099959  78.1688881  70.0609159  35.2952647
  76.8370056  70.2720976  35.9826326  17.7421625  62.0433374  24.7500427
  17.4645765  62.9539819  24.8495300  16.9247253  61.5475031  24.7034176
  13.0491199   2.6350972  50.3088760  13.2709207   2.8241631  51.2206268
  13.5970106   3.2328317  49.8001909  13.3791866   6.1789796  62.3153162
  13.0101671   7.0437047  62.1355581  12.9832687   5.6080243  61.6569185
  27.4168468  67.1590090  68.5090494  28.2618666  66.8466425  68.8324738
  26.7769361  66.5598536  68.8934469  82.8956757   1.1388584  11.0464867
  83.5185657   1.5531154  10.4493054  82.2978030   1.8436237  11.2956627
  33.3798620  65.9249258  56.3025570  33.7805387  65.2335453  56.8295193
  34.1201612  66.4347267  55.9734726  26.7066755  66.6480039  22.2437008
  25.8416643  67.0099925  22.4359520  27.2947206  67.4025701  22.2762592
   9.8527057  15.0177427  27.1937283   9.5052726  14.3605324  27.7967175
  10.7110174  15.2424284  27.5529488  48.9279699  58.7813902  50.4510117
  49.4116306  59.4640160  49.9858999  49.4596052  58.5963535  51.2251902
  25.7214649  49.7922464  17.1862419  26.6416748  49.8444601  16.9279392
  25.4608686  50.7020994  17.3293694  30.2470350  74.0229845  60.0925398
  31.1829281  74.2045736  60.1783323  29.8364329  74.8873472  60.0698996
   9.4850905  37.3848720   1.7311533  10.1384647  38.0476232   1.9549807
   9.9595578  36.7540642   1.1896809   0.9055462   6.6120717  37.9528451
   0.2417841   7.0647714  38.4731460   1.0185136   5.7682988  38.3904719
   1.9282825  14.9552103   0.1833876   1.0237868  14.9403949  -0.1295082
   2.0955927  14.0589567   0.4748877  24.0978803   8.9206597  32.2329903
  23.8676157   9.6933457  32.7488995  23.3878221   8.3008477  32.3999977
  42.3065996  80.2607727  55.4050398  41.6568756  79.5793390  55.2325821
  42.6352501  80.0619602  56.2817955  68.8919926  66.6022968  44.2130995
  69.1389561  65.6781292  44.1790819  68.1510735  66.6745234  43.6113930
  57.4668111  18.3676526  57.2626209  57.9813852  19.1664979  57.1473360
  56.5624704  18.6733434  57.3329639  30.6868799  43.2330271   8.5069092
  31.4461525  43.4291025   7.9580076  30.0174816  43.8544508   8.2206162
   5.0117333  25.6824632  35.2444180   5.9514911  25.5139061  35.1760491
   4.6632464  25.4485842  34.3841274  15.8672225  67.9773521  55.6586123
  15.7481825  68.9193058  55.7802010  15.3899753  67.7776098  54.8532724
  49.3571758  22.7079535  49.7159815  49.3616486  22.2886324  50.5764341
  49.2524385  23.6405325  49.9045515  12.6497991  47.2390505  25.4531391
  13.3655555  47.8160234  25.7196434  12.9570062  46.3593717  25.6722935
  57.9064996  43.6791273  15.4681786  57.7373750  44.1126295  14.6316918
  58.7620695  43.2651754  15.3547390  11.2169321  21.0726352  34.0903862
  10.5558641  21.7637916  34.0513523  10.7472141  20.2774473  33.8388451
  31.1060452  80.8986092  59.5167494  30.4116392  81.4176178  59.9225283
  31.1646247  81.2345314  58.6223459  17.5049503  37.8976722  14.7015865
  17.9484565  37.3278471  15.3299435  18.1762559  38.5240312  14.4309242
  68.4149218  53.3337784  38.5760427  68.5007191  52.4771214  38.9943838
  68.7844849  53.9481306  39.2102575  -0.1678286  32.0176599  37.7851987
  -0.5557070  31.3560674  37.2124147   0.7742681  31.8562219  37.7339458
  24.3601472  32.6783701  16.4814766  23.5232885  32.7339407  16.0201557
  24.1966445  32.0694538  17.2016915  44.8832853  16.3720365  10.4485901
  44.1695411  16.0799165   9.8816116  45.5813081  16.6244360   9.8441990
  85.0427454   5.9448525  54.4035912  84.7525232   5.1615426  54.8709536
  85.3489941   6.5349481  55.0922346  33.0331326  69.4791746  53.1234598
  33.4712625  68.6329412  53.0331373  32.9402447  69.7978306  52.2256517
  33.2978702  62.9999065  33.9599109  33.5897541  62.2215176  33.4854198
  34.0928054  63.5194778  34.0797448  44.9712229  81.2938786  31.7880726
  45.3343773  80.8419514  32.5497270  45.4202127  80.9007072  31.0397053
  53.0675888  68.4241676  38.8653874  53.9291048  68.0104637  38.9189696
  52.4496603  67.7139997  39.0387630  22.6466043  32.9404445  13.0805977
  22.4472053  33.0092331  14.0142639  23.5356338  33.2858034  12.9994686
  19.7045088  58.9908934  68.0797672  19.9456573  58.0889082  67.8688192
  19.0276337  58.9070368  68.7513590  57.2366619  56.6936731  43.0415583
  56.4608240  56.6818094  43.6020613  57.7558374  57.4291658  43.3667278
  29.6827483  65.4929543  35.6460166  30.2909040  65.5044889  36.3851023
  29.5249104  64.5635319  35.4802060  20.8743930  61.6482306  47.4391890
  20.6237316  60.7260132  47.4931335  20.2537441  62.0990133  48.0117464
  48.2863045  74.5140219  65.7833529  49.0445662  75.0822926  65.6479168
  47.7447701  74.6477795  65.0054836  56.2367821  69.5706081  55.8222485
  56.2863493  69.5902443  54.8665380  55.8757877  70.4243851  56.0609531
   4.5928564  16.3408372  49.1307449   4.4484319  17.2835156  49.2128372
   3.7802782  15.9456346  49.4466066  51.2091494  62.2466326  65.9954548
  50.2965832  62.3821259  66.2506008  51.7102098  62.7985048  66.5959644
  13.3517463   6.2158485   8.2719620  12.9449899   5.9150930   9.0845688
  14.2601450   6.3984867   8.5121353  57.7849483  34.8255610  57.9320526
  57.4387169  34.5156264  58.7688875  57.3168612  34.3115735  57.2740650
  83.9871597  71.4492798  27.2441316  84.4965267  70.9942198  26.5735388
  83.0829906  71.1803007  27.0817518  82.5491588  14.9503991  65.8437157
  81.8792599  14.4593427  66.3194609  83.2453173  14.3130872  65.6842518
  20.2249105  45.6315370   9.9989899  21.1219604  45.6615587   9.6663769
  19.6829565  45.5259462   9.2170914  79.9290340  28.5926244  38.7674475
  80.2313726  28.5119149  39.6720505  79.6724909  27.7041337  38.5204816
  49.5239687  55.5279684  48.1999397  49.9275112  55.1834822  47.4032545
  50.1920795  56.0989189  48.5792494  69.7988367  82.7831841  68.1391239
  70.1458073  83.6328125  68.4111023  69.3550968  82.4455070  68.9171314
  75.3627174   0.5916783  67.7193117  75.0862663   0.0927541  66.9506216
  75.0482624   0.0785729  68.4636784  32.3314292   5.7532163  28.9453991
  32.2974498   5.6692501  29.8983009  33.0696733   6.3404270  28.7828739
  36.5584095  12.7235552   8.9633186  36.2309749  13.4889789   9.4357021
  36.7770679  12.0937057   9.6501358  88.1068550  11.0194202   4.5971878
  88.3869897  11.9328066   4.5381983  87.1933089  11.0668035   4.8790081
  54.1910028  27.7769327  49.0667582  54.2858076  27.6998019  48.1173897
  53.4794474  27.1754122  49.2860603  56.7970037  60.2421141  38.0990434
  57.4811172  59.9524307  37.4954629  55.9776306  60.0259066  37.6539493
  63.6938429  57.3265553  39.3390203  62.8773403  57.3387814  39.8384285
  64.1848755  58.0810881  39.6642876  31.6981132  53.3782430  39.5381840
  32.4979122  53.7865396  39.8696240  31.2776954  54.0627809  39.0177162
  30.8449991  59.9798818  22.9651459  31.4583929  59.7510763  22.2668465
  29.9818714  59.7898241  22.5975521  83.7525272  62.8618145  70.5200577
  84.3189335  63.6217070  70.6541204  83.9354229  62.5820255  69.6231174
   8.3335693  36.9850965  15.5476101   8.8143594  37.6002689  16.1013611
   7.4975855  36.8612047  15.9970673   8.3089342  33.4422967  58.3918953
   7.8022136  33.8461396  57.6873541   8.7040987  32.6687810  57.9897022
   1.2643280  12.0996663  60.5078363   0.9408989  12.8616807  60.9884167
   1.6116275  11.5191266  61.1850309  14.8789539  19.1348264  65.9402657
  14.4060554  18.4589574  66.4258671  15.2734365  19.6845147  66.6173649
  54.5853376  51.2246275  52.4252462  55.2669001  51.8435574  52.1632671
  54.2529583  50.8710098  51.6001940  10.1431186  32.7606054   0.8184822
   9.5450647  32.4721094   0.1290377  10.4176290  31.9521280   1.2511929
  54.2093532  12.0806882  14.0201807  53.6906355  12.1766183  13.2214558
  53.6231964  11.6393182  14.6348739  79.1317957  40.5682942  65.1977634
  79.7950523  41.1195847  65.6129837  78.3391493  41.1048886  65.1993179
  19.7654268  70.0587940  55.5139732  19.5961782  70.9863901  55.3492117
  19.4156191  69.9036503  56.3913536   4.7639391  66.3781404  49.1113281
   3.8848802  66.0298824  49.2603397   5.3439447  65.6277370  49.2406273
  12.7004297   5.4870220  23.9401158  11.7807920   5.2386137  23.8463696
  13.1548507   4.9821420  23.2656963  49.2998457  55.7573366  29.9888992
  49.8244047  55.7293129  29.1887212  49.9391079  55.8836412  30.6900573
   6.9779213  55.8837457  25.0659664   6.8606980  55.6664606  24.1411503
   7.0379169  55.0355669  25.5055340  60.4658659  64.0767046   2.6860006
  60.1879938  63.5060831   3.4025295  60.8786638  64.8230596   3.1204899
  87.0535915   0.3012654  50.0115442  86.4623087   1.0485932  49.9214506
  87.7776068   0.4955766  49.4163370  69.3337059  70.2299643  52.4881411
  68.5674381  69.9120331  52.9656219  69.8448133  69.4419718  52.3035431
  64.1693783  77.1321774  46.0953569  63.7931013  76.2539768  46.1537886
  64.3894482  77.3590565  46.9988632  61.4376504  17.8289409   2.9775818
  62.0521886  18.3284994   3.5151823  61.3679559  18.3301397   2.1650704
  36.5969515  80.1665211  47.1197128  36.3033915  80.3609276  48.0098057
  37.5102639  79.8988152  47.2218323  70.4389446   2.7313230  46.7964745
  70.4081838   3.4494492  47.4285936  71.3728063   2.5833127  46.6473818
  20.4154642  43.4504839   5.9968432  21.1643322  43.6708112   6.5508135
  20.0743015  42.6367231   6.3678320  22.7647264  42.4704977  30.4407223
  21.8416412  42.3735948  30.2067192  22.8982313  43.4163519  30.5021103
   4.9449904  43.9184900  11.5442475   5.4987629  44.1093202  12.3013123
   4.7316368  42.9894777  11.6316422  18.3621509  68.7666174   0.4924877
  17.5480611  68.4455915   0.8803375  18.9621980  68.8539263   1.2331350
  25.8216579  31.3426109   7.7554949  25.9125288  30.4724737   7.3671158
  24.9363143  31.3512655   8.1192597   1.4192398  44.7972341  23.4640320
   2.3216779  44.6718069  23.7574680   1.3840253  45.7111593  23.1816776
  41.1642647  72.8536510  17.8653347  40.5122614  73.0617666  17.1961439
  41.7086458  72.1748638  17.4664307  43.7371881  43.9464327   6.8756731
  43.5423095  44.5618864   6.1689432  44.6927459  43.8920255   6.8892010
  52.0174520   6.7096898  65.7893276  52.5840681   6.0932729  65.3254271
  51.7853229   6.2577340  66.6005516  38.5626888  72.8397751  63.2991552
  39.3833351  72.9670858  62.8231668  37.8896451  72.8328466  62.6185751
  78.1000917  14.5155236  36.0245228  78.7290686  14.6766564  35.3212070
  77.4429148  13.9413545  35.6312251  62.3929453  76.7324638  61.4272499
  62.2701979  76.1812878  62.2001457  62.4968910  77.6170254  61.7779398
  18.1090410  33.5886951   4.3098171  18.7095554  34.1814752   4.7617252
  18.3382661  33.6751409   3.3845003  55.8317812  25.4399153  22.6994141
  54.9709661  25.8503147  22.6169117  55.7588060  24.8841902  23.4753521
  70.9697628  48.9039898  48.2317543  70.4428434  48.6369133  47.4785948
  71.5195322  48.1436539  48.4211540   8.3276755  50.1579428  63.4152460
   7.7549279  50.8656836  63.7107038   8.6428076  50.4465961  62.5587416
  72.3442524  11.2625596  51.5556097  72.2786205  11.7528626  52.3750734
  71.6644352  11.6385743  50.9964180  11.8000545  19.6992776  65.4697943
  12.7556028  19.7193238  65.5223417  11.5065994  19.9727342  66.3388968
  59.2766953  43.7049484  51.1121225  59.6488857  42.9849768  51.6213846
  59.7495031  44.4808245  51.4132929  56.2851160   5.6266400  46.1586761
  56.9775694   5.1551530  45.6956005  55.7983463   6.0763547  45.4679918
  67.0500224  34.1769406  58.1743813  67.4812549  33.6946389  57.4689388
  67.7239077  34.2698476  58.8477898  42.3338134  24.0802761  28.2577522
  41.8449552  24.0751405  29.0806873  41.6620023  24.1597791  27.5805672
  71.7240620  79.4936371  36.6860175  71.7340279  79.8658562  35.8042121
  71.5398073  80.2384472  37.2583222  76.3490312  39.6907803  62.6049805
  75.8302276  38.9333054  62.3342276  76.4724319  40.1961324  61.8014717
  53.0233019  12.1242425  39.3004084  52.4375718  12.5101373  39.9517465
  52.7361386  11.2138841  39.2295408  60.6221628  58.2593679  52.3291159
  61.4753771  57.9443502  52.6274872  60.0809765  58.2691050  53.1185818
  20.9859331  23.3952375   4.0224417  21.7215164  23.3312555   4.6315821
  21.3417728  23.8602110   3.2652052  46.0887718  75.0633526  32.6812792
  45.1863766  74.7684288  32.8034949  46.5707302  74.2696905  32.4487972
  33.9109087  17.7525032  65.4033422  34.6263361  18.3884168  65.4065037
  34.0789366  17.1991515  66.1661005  75.6883863  42.8608274  53.0854034
  75.8511284  43.0473137  52.1607590  75.6687561  41.9052315  53.1371689
   3.2194877  36.3553810  55.8640957   3.9979267  35.8915448  55.5556774
   3.4541595  37.2815967  55.8067894  30.5555010  55.8638477  38.3245063
  30.4431510  56.3769865  39.1246915  31.2765312  56.2930918  37.8639698
  86.7741928  66.9748571   6.5109682  86.7195592  67.1787015   5.5773222
  87.3729430  66.2295762   6.5587682   1.1783797  64.1816071  45.7828522
   1.3210208  63.3294454  46.1948061   2.0569522  64.5464232  45.6767797
  39.2083047  81.4430083  58.1053066  39.0471325  81.6642465  57.1880770
  38.6547313  80.6793238  58.2683229  25.9769287  42.9734972  30.3350552
  26.4769670  43.5709428  30.8911617  25.3091576  43.5263603  29.9292763
  53.9598513  29.6234322  55.4383755  53.1853628  30.0330424  55.8238840
  53.9630747  28.7348652  55.7942820  53.0623579   2.2537041  54.2484665
  52.4818373   2.3683147  53.4960747  53.5058832   1.4215165  54.0842009
  52.4351495  60.5341469   8.8826569  52.4629014  61.0214089   8.0592259
  53.2937782  60.1152765   8.9421471  82.4453619  20.2747893  46.7792559
  83.2030612  20.1103377  47.3405743  81.8405345  20.7694530  47.3321772
  53.8044972  77.2300854  53.7152100  53.8274757  77.9140159  54.3844938
  53.9089910  77.7006349  52.8882313  23.4311724  25.9980965  53.7631512
  24.1752934  26.5702701  53.5757160  22.7146840  26.3579345  53.2402849
  64.5263855  49.7124579  58.0174398  63.9982233  49.1253737  58.5583735
  65.3614954  49.7783831  58.4805584  67.0769065  38.2545148  10.4394539
  66.8173616  38.7519475   9.6639355  67.2795933  37.3802807  10.1064881
  44.6191864  28.2201182  23.9426525  43.9213210  28.8643442  23.8235386
  44.6011799  27.6966094  23.1414993  27.7550960  22.1834111   5.8356619
  27.2962260  21.3944793   6.1242092  27.7057290  22.1532702   4.8802111
  33.3354237  53.8733457  12.8467091  32.5806620  53.5446190  13.3350762
  33.3692884  53.3267211  12.0616635  15.9624314   7.4872124  60.1002407
  15.6266367   6.9741219  60.8352280  16.3992798   8.2342100  60.5093718
  51.6865199  67.4913381   1.3486632  52.0021718  66.6864251   1.7594011
  52.4056023  68.1136822   1.4574679  30.7136270   8.9550589   1.3170965
  31.6595732   9.0126919   1.1825760  30.6123914   8.3459710   2.0485314
  35.8735108  14.7500408  32.4240375  35.0340509  14.2928088  32.3742700
  35.7210636  15.4639471  33.0431747  58.2011812  42.2891427   4.3517788
  58.3914154  43.0190651   4.9410637  57.5641625  41.7565819   4.8280390
  31.3061786   6.5126777  34.7685027  32.1289206   7.0006013  34.7330356
  31.4768672   5.7997304  35.3839731   2.3567750  16.2572563  56.1832142
   1.9813630  15.9445918  57.0063400   2.7591714  17.0964444  56.4069796
  32.7904058   0.2316233  69.4565868  32.0565057   0.3575595  68.8551235
  32.4941063   0.6187335  70.2803516   7.7844310  32.9152060  53.9054060
   7.4524480  33.0408835  53.0164623   7.2237730  32.2338176  54.2763567
  32.4113011  22.8026271  48.8290215  32.1305609  23.4021401  49.5203972
  32.8670907  23.3605099  48.1987429  86.8009087  41.5372809   0.9612759
  87.3068615  42.3303321   1.1382301  86.3877698  41.7009390   0.1134737
  45.9240389  23.2466173  56.2910557  45.6620979  22.8775382  55.4476118
  45.1010466  23.5080194  56.7040730  35.9486389   6.5341508  52.9843235
  35.0156569   6.4974552  53.1951141  36.3056445   7.1837735  53.5899401
  25.8072090  33.3161259  54.4292641  26.0184216  34.2488909  54.3896580
  24.8636699  33.2773495  54.2728615  28.5828428  21.1015486   0.5585344
  27.8376267  20.6354235   0.1795729  28.6432585  21.9102393   0.0500067
  18.0180895  20.7192469  26.2852526  17.7474904  21.6337132  26.3674688
  18.9669693  20.7600379  26.1661005  17.4909365  33.6292744  24.9969101
  16.5875757  33.5060239  25.2884245  18.0220377  33.4016228  25.7600212
  51.7482010  73.2251963  66.9813108  52.5748924  73.3756331  67.4397659
  51.1690466  73.9183316  67.2981310  18.5439665  72.5578144  55.5880165
  17.7938158  72.9545918  55.1452112  18.6983521  73.1195220  56.3475418
   2.4766585  59.2350721  16.2643194   2.2894295  59.5376492  17.1529269
   3.2324564  58.6560106  16.3627410  83.6185730   6.7456979  37.0060563
  84.0639809   7.3108566  37.6372766  84.3175814   6.2134308  36.6261744
  20.9492469   4.2767027  49.2402840  21.5191340   3.5254398  49.4047928
  20.2508759   3.9304543  48.6847448  83.8035065  25.6181693  65.8830738
  83.7229687  26.5422630  65.6468582  84.4751307  25.6029058  66.5649271
  85.5316887  72.8759387  31.5338326  86.3359795  73.3924386  31.4830756
  85.8080421  71.9819251  31.3323426  14.4951236  20.2080512  53.8496685
  14.5389616  20.4649019  52.9286146  13.7671518  20.7173181  54.2059517
  24.9613523  25.4628420  63.0900097  25.1872802  26.1423326  62.4548101
  25.5426574  24.7328663  62.8768206  85.7201077  56.8878412  49.9656153
  86.5198559  56.4979410  49.6126127  85.5393097  57.6287270  49.3871450
  39.9548898  72.0535114  34.8305845  39.1363547  72.5472596  34.7811246
  39.7486387  71.3030842  35.3878570  19.1526508  33.9068198  39.1375065
  19.5354378  34.7805047  39.0576172  18.2089090  34.0615869  39.1778994
  82.2191027  17.1201766  34.6856880  82.1561906  16.3381541  34.1373134
  82.1538672  17.8502595  34.0700936  71.8265346   5.6789458  50.5498266
  71.3166097   5.5937606  49.7442484  72.5626460   5.0785470  50.4319525
   5.9373491  62.4102949  11.0807427   5.7813685  63.3458136  10.9514912
   6.7928236  62.3668956  11.5079601  48.3549493  69.9264478  12.5969227
  47.7533501  69.6887587  11.8913563  48.7527769  70.7470821  12.3061951
  71.3863137  35.3183246  36.5497017  71.1994937  36.1204171  36.0618734
  70.7455435  34.6857309  36.2249351  10.1329190  64.3068412  54.9254942
  10.2837236  64.9738875  55.5952215  10.7035572  64.5619729  54.2005730
  30.5193601  35.1678627  12.6344402  30.7398934  36.0990577  12.6127060
  31.3522016  34.7284316  12.8062161  31.0334969   4.4057348  56.5425539
  31.6647577   4.4931319  57.2567701  30.1796579   4.4147670  56.9751167
  37.2114574  30.6515967  11.4635952  37.1523147  29.6970772  11.5039166
  37.9418635  30.8213936  10.8686932  71.0265491  62.3031786  31.5992999
  70.2845333  61.7066529  31.6982985  70.6278036  63.1508842  31.4027500
  51.4031641  71.1697522  52.6909828  51.4267830  70.5042747  52.0033693
  52.2832576  71.1568156  53.0671501   9.4896770  30.9152532  60.9657001
   9.2950934  31.8504024  60.9035301  10.4176831  30.8482456  60.7408810
  29.8344779   0.4182179  38.4271646  30.1789069   0.1206029  39.2692018
  30.2663040  -0.1403630  37.7808332  83.9032626  32.4430704  50.4483747
  84.8184261  32.2293687  50.6301403  83.8011995  32.2810888  49.5105171
   9.8606712  10.0039363  47.6349592  10.5595124   9.4802666  48.0269098
   9.3140513   9.3674159  47.1742201  60.6801067  72.0790151  58.2397985
  60.8579552  72.9326633  58.6346197  59.8310166  71.8213132  58.5987759
  63.5589936   9.8027891  68.1826782  64.4876984   9.7839749  67.9516220
  63.1381443   9.2446095  67.5288057  11.2148499   2.4205905  45.4527283
  10.4735899   3.0041671  45.6146097  11.9263017   3.0044067  45.1896191
  25.9879923  22.8438449  38.1015444  26.2998796  23.6305094  38.5488868
  26.5241671  22.1362925  38.4594822  10.7605658  69.6266785  27.1948600
  11.0235939  68.7154213  27.0657897  10.8635292  70.0300684  26.3329387
  25.9549880   1.3198833  32.5235391  26.8080735   1.4753902  32.1182036
  25.7607937   2.1317615  32.9919124  53.5530710  14.9793923  46.6488314
  52.9103947  14.2715037  46.6946411  53.1462097  15.6360567  46.0835981
  79.4433992   5.1707696   6.3267859  79.7110670   6.0084413   6.7047985
  79.7975223   5.1851772   5.4376181  12.0324445   4.6303034  60.2993107
  12.5458527   3.8763711  60.5895376  12.6275182   5.1216090  59.7329712
  29.6936636  56.4116751  22.3321255  29.7669374  55.6368290  22.8893288
  30.2250751  56.2049328  21.5633019  12.4137688  35.6405711  59.9092054
  12.5375724  34.6917200  59.9333572  11.5809691  35.7849646  60.3584576
  43.6850434  65.4275297   1.0162981  43.3746510  65.8144521   1.8349417
  44.5136421  65.0083398   1.2485369  21.9986653  27.2840428  61.7881250
  21.5547514  26.4726615  61.5414810  21.6380286  27.5027013  62.6474047
  34.5894599  15.3060544  43.0863333  33.6429739  15.1637161  43.0979919
  34.6896672  16.2324631  42.8673410  51.8340997  66.1467186  13.8523972
  52.5223855  66.6188660  13.3838117  51.3064007  65.7452634  13.1620347
  60.9254626  79.6112850  49.4700956  61.1157013  78.8882035  50.0677538
  61.6839985  80.1902249  49.5454836  69.0478931  50.2978519  39.5585942
  68.4187553  50.2209070  40.2758789  68.7875674  49.6174887  38.9376545
  44.5965273  50.0954130  32.5109816  45.1092178  50.6826237  33.0664659
  45.2354557  49.4692829  32.1704459  73.5773590   8.1673920  58.3565283
  72.7476660   7.8718656  58.7313652  73.3261827   8.6474931  57.5674486
  72.6739763   4.8195406  19.7363003  72.4431883   4.4098421  20.5700405
  72.0446966   5.5341240  19.6382816   3.8022631  32.6441550  62.0407581
   4.6103403  32.1342659  61.9836998   3.2009110  32.0856309  62.5333643
  40.3068273  70.7647537  44.3688877  40.1798051  69.9928902  43.8172348
  41.2142341  70.6996940  44.6665676  38.0163943  51.9474291   9.2612560
  38.2883363  51.2586813   8.6547001  37.3038100  51.5548252   9.7655495
  13.3332789   2.3452722  60.9257841  14.2704105   2.3522869  61.1206388
  12.9558837   1.7630744  61.5852165  36.2368321   6.6298878  41.7396927
  36.7022276   6.7667437  40.9145212  35.3442907   6.4051276  41.4768600
  20.7372785   7.9018009  43.4839058  21.5456820   7.3955399  43.5639811
  20.4218960   7.9932618  44.3830156  84.9734946  41.2897945  25.6862076
  84.5533606  41.0526746  26.5129383  85.2335807  42.2035299  25.8031376
  19.1839349  21.2998605  69.1208220  19.1789174  22.1900845  68.7690973
  19.4500244  21.4047408  70.0342941  87.3622518   0.7948945  61.6463661
  87.2028434  -0.1134370  61.3899374  86.5429255   1.0761110  62.0536184
  18.4639060  31.8816137  30.0437331  17.9697263  31.1824059  29.6158028
  17.9429090  32.6702476  29.8925591  20.8087540  18.7294912  65.3262854
  21.2621164  18.7501693  64.4835091  20.0601149  19.3145013  65.2099466
  68.1777111   6.3684964  36.1911440  68.4297910   5.7914585  35.4702330
  68.6062756   7.2010529  35.9926128  19.8383129  14.5885515  55.5989075
  19.0218735  14.2289734  55.9458447  19.7609615  14.4865203  54.6503115
  83.3081693  34.0009451  32.7004647  83.9161581  33.7417221  32.0080876
  83.6855590  33.6345100  33.5001731   4.7651574  43.3005142  55.1500320
   4.1278720  44.0120602  55.0883532   5.6085402  43.7422609  55.2490234
  66.2870233  67.6714157   6.4692600  66.8738430  67.5288914   7.2119339
  66.5577286  68.5157822   6.1087044  34.9787736  12.6039553  35.7008886
  35.3986502  13.1504011  36.3652158  34.1789579  13.0773425  35.4719090
   0.1745851  75.5954900  69.0495539   0.5265815  75.6912324  68.1645870
  -0.0176924  76.4905789  69.3289757  32.3922873   2.0047191  12.7004004
  31.6394639   1.8429954  12.1317756  32.0178866   2.4037714  13.4857750
  54.0851549  73.3281848  68.3184004  54.2834182  74.2628756  68.2611561
  54.8128302  72.9592112  68.8189793  27.5682545  25.1467562  45.9254408
  28.0645490  24.4786549  45.4526186  26.9936466  24.6505189  46.5083694
  83.7334953  68.3538464  69.9630737  83.3170948  67.4919906  69.9561024
  83.0782638  68.9332798  70.3518677   7.0673139  35.8086970  34.5467901
   7.0600445  36.7516664  34.3824911   7.8318221  35.4880908  34.0682817
   3.2957953  12.6705444  50.4191160   3.7613896  13.3406079  50.9195805
   3.8572058  11.8972230  50.4741144  41.8808222  30.4716420  14.6307385
  42.2979975  29.6108556  14.6659839  42.5284433  31.0672760  15.0076210
   2.1455124  24.0172601  40.6507587   1.4590672  24.1205978  41.3098049
   2.5105989  24.8958063  40.5453968  22.8750777  15.4317784  52.4070644
  22.8169227  14.8820937  53.1885338  22.0595407  15.9329057  52.4054956
  76.3731907  29.3139549   8.8759335  75.9855638  29.8505445   8.1845196
  76.6158663  29.9404760   9.5577057  28.1517339   3.6270016  29.2236233
  28.8573074   3.9056510  28.6398816  27.8944802   2.7658266  28.8943362
  13.6890822  61.3496636  18.6640843  13.4777086  61.6601085  17.7836426
  13.2841843  61.9911336  19.2478665   3.4128776  19.6286881  17.4148333
   3.1437594  20.4809713  17.0721626   3.1309912  19.0025556  16.7479527
   9.5461214  25.5949330  63.7011671   9.0745783  25.0028610  63.1152201
   9.3161619  26.4711833  63.3920765  23.8309979  40.4356861  46.4947367
  23.5099173  40.7518196  47.3392487  24.5806575  40.9974194  46.2980080
  51.3100771  69.0084949  51.0550880  50.6575576  68.3698228  51.3423967
  51.9224534  68.5018459  50.5216694  75.8085745  48.8284825   2.7632864
  74.9538153  49.0280138   3.1451328  75.7025688  49.0117918   1.8298014
  22.6407807  26.3718950  13.0555828  22.4128871  25.7363533  12.3770722
  21.8063473  26.7738210  13.2972630  81.5100258  28.0430793  12.3516377
  81.3993614  27.1086310  12.1761616  81.7732780  28.0846082  13.2709892
  83.1740508  72.3399451  45.5307102  83.1890474  71.4724424  45.9349918
  82.4076376  72.7685288  45.9117079  29.1883302  13.9060128  68.9739990
  29.3459058  14.8276579  68.7691355  29.1639328  13.8740122  69.9303532
  52.8847221  44.3716052  54.7521162  53.6278943  43.8334373  55.0247002
  52.1354912  43.9979890  55.2161121  87.0850631  31.5957522  45.3479624
  86.2042594  31.9685030  45.3863525  87.6605215  32.3521900  45.2344704
  75.5429714  52.3781549  12.9723175  75.5091255  53.0720888  13.6307629
  75.7972019  51.5958010  13.4617336  11.3444662   5.0619304  52.8618050
  11.6657507   4.5204753  53.5827971  10.3911829   4.9996656  52.9218578
  65.6248140  23.9860845  47.8369427  65.2375269  23.2505679  47.3623276
  64.9490499  24.2509341  48.4609795  62.3641327  29.1366076  70.9196758
  63.3033279  29.2815828  70.8051205  62.2204092  29.2304015  71.8613625
  63.6997629  50.7320550  49.8534298  64.0496025  50.9586790  50.7151079
  64.4447885  50.8267859  49.2599726  60.3376443  60.9712437  58.2973289
  59.4125959  61.1423257  58.1205559  60.4077033  60.9960440  59.2516375
  38.9228773  27.5468826  55.7933569  39.1323590  26.6128993  55.7886076
  38.5136771  27.7048945  54.9425793  64.1584318  63.2922243  13.0209931
  64.9679344  63.4564875  13.5046871  63.4617179  63.5386633  13.6293419
  45.5513906   7.7918303  68.5149527  46.1411142   8.2308048  67.9019594
  45.0500727   8.5021746  68.9153576  16.0451722   1.7086869  62.0402241
  16.1797905   0.7834094  61.8353558  16.7899609   2.1542189  61.6364622
  81.9000080   9.5162171  47.4447823  82.2697821   9.0110779  46.7206717
  80.9793958   9.6327364  47.2099876  83.2217363   6.1645019  61.4949131
  82.4328628   6.6414082  61.7527342  82.9216680   5.5490023  60.8260727
  29.0888973  62.2026901  69.2528842  29.4350377  62.6208572  70.0412722
  28.3629246  62.7649526  68.9825962  29.1829034  47.0467065  71.2429875
  29.5924404  47.7699975  70.7682653  28.8685935  46.4575703  70.5571596
  25.3753948  15.3383923  44.6634340  26.1242771  15.9344983  44.6714878
  25.7636666  14.4652593  44.7192526  87.5886236  74.8658743  59.5816278
  88.1148110  74.2751464  59.0427399  88.2310019  75.3789881  60.0718260
  78.8717076   2.2274974  59.4776440  79.0117785   1.3099658  59.2436600
  79.1006288   2.2756143  60.4058218  23.5405970  16.1176491  56.4724350
  23.9566374  16.9710743  56.3507557  23.5748172  15.9670174  57.4170876
  22.2729921  49.1074561  18.6870487  23.0070030  48.7386303  18.1956967
  21.5848672  49.2306726  18.0331906  16.9939406  80.4734668  27.5849700
  16.8356354  81.3027403  28.0360532  17.9004032  80.5340323  27.2834992
  20.7128673  80.9963511   2.5478514  20.1264875  81.7057465   2.2848948
  21.5865504  81.3076113   2.3111494  21.9172025  35.7406378  49.6901655
  21.0514879  35.4291224  49.9542332  21.9577503  36.6398644  50.0157118
  27.3182661  51.8569067  48.9330387  27.5102074  52.5607040  48.3133173
  28.1478102  51.3889602  49.0284824  11.4732010  66.6728428  42.8629112
  11.0655720  66.4532700  42.0251417  10.9465916  66.2095001  43.5142374
  18.6626637  14.9129677   7.9676950  19.0694618  14.0492547   7.8987992
  17.8603899  14.7607064   8.4670997  19.6117282  30.0480485  66.0247326
  20.0715590  29.8207831  66.8329000  18.9433444  30.6763792  66.2980413
  17.5719440  13.3922279  56.4297628  17.4759054  12.5146735  56.0597515
  17.1502149  13.3380425  57.2873402   4.7335485  24.7334290  63.5908604
   3.8551223  25.0829649  63.7406111   5.3090948  25.4953480  63.6576128
  57.4926666   8.4453970  62.7253962  57.2808388   7.5916159  62.3480129
  57.7375177   8.9853418  61.9739056   9.6609980  26.2916827  60.5336905
  10.4879844  25.8141160  60.5989265   9.2216146  25.9072590  59.7751427
  41.0388041  18.6520171  45.7261562  41.8080664  18.9433563  46.2156343
  41.3746595  18.4425175  44.8546410   4.9593377  19.1907859  50.4141665
   5.2345103  19.3158436  49.5059395   4.0691984  19.5413876  50.4451752
  13.7865526  82.1403822  64.9644947  13.7943489  83.0960207  65.0185871
  13.0260403  81.9375140  64.4197989  45.4523712  47.8094070   7.5526674
  45.2481847  47.7706866   6.6183003  44.7579818  47.3003303   7.9708727
  12.6765895  27.6459146  37.5023937  12.9578495  27.6980972  36.5889382
  11.9800997  28.2983613  37.5761938  78.6282394  76.6889790  41.3751793
  78.8884769  76.9695792  42.2525454  78.8338290  75.7544109  41.3517857
  52.6445198  22.1818924  69.6423483  53.1479406  22.6575089  68.9815998
  53.2098055  21.4517283  69.8944283  15.7765794  27.8152752  59.3294239
  15.8246779  28.4737420  60.0224876  16.6699135  27.4795008  59.2556429
  85.8164220  51.2581778  65.5316639  85.3473029  50.8666897  64.7948503
  86.4314547  50.5801821  65.8114672  83.3485872  13.4746170  50.7574606
  84.0872380  14.0809155  50.8124828  82.8924146  13.7251461  49.9541092
   8.2618243  73.3072480  38.7646937   8.4298713  73.8784715  39.5141578
   8.9915545  72.6877955  38.7673044   2.9928011  14.5273530  70.0736284
   3.4593558  14.6054471  70.9057713   2.2711977  15.1523018  70.1440525
  36.9464254  15.5313241  47.6047325  36.3323379  14.9779439  47.1221352
  36.8594384  16.3946307  47.2005463  31.7037010   5.0201136  37.2836304
  31.9891810   5.3275913  38.1439734  32.1813726   4.2012411  37.1513081
  13.7647040  71.2026718  30.9910321  13.7107069  71.2141445  30.0354242
  12.9089148  70.8817831  31.2754440  32.0794850  53.7598621   1.6206988
  32.9119169  53.6834000   2.0870073  31.8987154  52.8739594   1.3064869
  30.6714463  20.7439852  44.2184019  30.7778192  21.4428139  44.8638105
  29.9740982  20.1933193  44.5743561  85.8349245  45.9948494  12.2939118
  85.2407329  45.2974235  12.5709732  86.6429632  45.8279117  12.7791317
  19.8145902  16.9667459  40.2186108  19.2949903  16.2076974  39.9538589
  20.1469755  16.7384589  41.0867310  16.6301375  53.4756850   3.2200297
  17.1761768  52.7947067   3.6128910  16.1905592  53.0389725   2.4904497
  41.5660804  43.6844364   8.2146938  42.3831778  43.6359516   7.7184733
  41.6067403  42.9410334   8.8163002   1.2738253   1.9139451  69.3189383
   0.8510286   1.3722283  68.6525917   1.5715435   1.2902090  69.9811649
  57.9342001  53.0785345  11.3116844  58.1123250  53.6392974  12.0666989
  56.9792192  53.0274533  11.2712677  82.6326214   2.3843189   4.0935667
  83.3069716   1.8273826   3.7045820  82.2606574   2.8629728   3.3527811
   9.9402207   0.0993130  11.9763350  10.5479372   0.6648971  12.4528086
   9.2286330  -0.0631364  12.5955975   4.4835670   8.3399626   2.6908358
   4.6629174   8.3143278   3.6307343   5.1157959   8.9691158   2.3434361
   9.3386704  13.2182407  29.0023136   9.5741838  12.3421228  28.6970544
   9.0153080  13.0826640  29.8929811  54.9221659  24.7028637  52.9607630
  54.2240620  24.1579580  52.5975037  55.3329563  25.1068783  52.1963978
  66.8105602  41.4419460  67.1647787  67.2805786  41.8278646  66.4256048
  67.1326399  40.5416775  67.2097111  67.1697467  33.4081416   4.4384821
  67.2885888  33.8219957   3.5835941  66.8385094  34.1090624   4.9999293
  49.1400957  45.2338362  67.5237656  49.9965858  45.0002956  67.8817034
  49.0586853  46.1728382  67.6907301  42.5463288  71.8821048   1.7038067
  43.4325128  71.5649294   1.8779047  42.1148281  71.8682431   2.5581177
   2.5676030  11.8594038  64.6615458   2.5959718  11.5103078  63.7707281
   2.2855495  12.7677548  64.5539570  21.6292143   6.3307887  47.5188875
  21.7261577   5.7647687  48.2846928  22.2745872   7.0252299  47.6510954
   9.8477477  38.3063316  66.9858408   9.0670097  37.7617669  66.8851948
   9.7385812  38.7261367  67.8391171  22.6503372  31.5162778  57.1975565
  23.3216691  31.4574337  57.8773212  21.9310308  31.9928551  57.6119280
  79.4949088  69.4571200  55.1496410  79.3012104  68.6033729  54.7625637
  80.4497586  69.4805494  55.2124357  30.0891972  28.7413549  64.3699837
  29.3361330  28.1550765  64.4434929  30.6989074  28.2773042  63.7962770
  30.0938249  46.5845251  32.5150418  30.0287271  47.3573828  31.9540715
  30.2222657  46.9376945  33.3953857  77.3154753  79.4938396  38.0158432
  77.4727171  79.0180873  38.8314255  76.3714521  79.4219660  37.8748234
   3.9050373  11.9307506  40.2928400   3.5859659  11.0983276  40.6414032
   3.6621282  12.5769293  40.9559250  79.2199776   9.8259521  46.9199371
  79.0816686  10.6143308  46.3949966  78.4227809   9.3113506  46.7938614
  38.5651469  31.4513564  64.5487833  39.4753504  31.1890221  64.6863985
  38.0580878  30.6591654  64.7264242  56.2998145  35.9503870  14.8480995
  56.7378180  36.6892599  15.2705391  56.9077223  35.6711577  14.1634758
  79.1631494   2.6756378   3.2157286  79.1986786   2.5483747   4.1637667
  79.9838267   2.3032614   2.8931578   6.8583114  80.4104587  60.8784723
   7.0629866  81.1009502  60.2479506   7.6898677  79.9563992  61.0147667
  51.8912180  10.3762527  22.0630654  52.3634965  10.3351303  22.8946217
  51.2418802   9.6754165  22.1214970  60.7516049   0.5071016  23.2864388
  60.9745452  -0.3970770  23.5077675  61.5958555   0.9542223  23.2267864
   8.8058865  26.5122986  71.3451767   8.9766639  27.2326756  71.9519091
   8.7202114  25.7416534  71.9064236  83.9578805  63.0822208  45.0410318
  84.0965615  63.9089754  44.5790005  83.4873305  62.5332883  44.4137478
  12.5258882   6.7331405   5.5391844  12.9637535   5.9750219   5.1521881
  12.3397405   6.4682146   6.4399584  49.7640331  17.4784704   3.0630453
  49.3618019  16.9590278   3.7591942  49.1149480  18.1525369   2.8616436
  39.7843766  25.9978938  48.2612419  40.2078629  25.7628345  49.0868521
  40.2386904  26.7907453  47.9762554   7.9003495  47.1618700  68.3754873
   8.3114022  47.3286009  67.5272703   8.6195290  46.8738651  68.9376831
  25.5900669  23.1482315  35.5978131  25.8241320  23.0164886  36.5165567
  26.3222480  22.7737141  35.1080394  51.8274424  82.3506027  37.8357911
  52.6230059  82.8756175  37.7482152  51.6053377  82.1008697  36.9388318
   5.0883728  31.2392378  44.6952248   4.3033943  30.7214689  44.5164633
   4.7883889  31.9347811  45.2804279   8.0080068  24.4081664  61.6605139
   8.5298824  24.9944544  61.1126614   7.1234775  24.7723913  61.6261768
  31.8664312   7.9711223  37.4967885  31.2886739   7.4824828  38.0830145
  32.4692321   7.3128259  37.1510911  27.2322130  15.3649867  39.5684266
  27.3465300  14.9888110  40.4411554  26.9693828  16.2709820  39.7306752
  22.8856421   5.8157986  32.4671960  22.1090198   5.2655417  32.3656797
  22.9744029   5.9326619  33.4130788  49.3674326  25.3012395  67.1355295
  48.5180330  25.3364706  67.5754261  49.6401596  24.3870926  67.2141838
  64.7719918   2.5413128   1.9576700  64.3992673   1.6648241   2.0529087
  65.5448375   2.5355907   2.5223930  20.7866955  52.5189066  71.4892387
  20.9964561  53.4518433  71.5323925  20.6791663  52.3405600  70.5549669
  13.7470045  59.3091904   9.8785885  12.8908624  59.0808700  10.2406891
  14.0175428  60.0829064  10.3729637  76.2613938  70.5420604  27.7357531
  76.9460235  70.0188771  27.3188686  75.5993638  70.6571320  27.0540595
  21.7978048  38.0505872  35.3952742  21.9935536  37.1385360  35.6099200
  22.2910047  38.5592771  36.0388756  15.0389290   4.7142246  56.4935970
  14.4595635   5.3917170  56.8422699  14.4824076   3.9391795  56.4172983
  81.4836632   2.7778288  19.9032982  81.7144166   1.8743749  20.1195248
  80.5336962   2.7611347  19.7870453  85.3011856  79.8521542  28.1925416
  85.8082114  80.6411403  28.3840084  85.1160870  79.9080256  27.2550726
  16.4453936  15.3609240  66.1111641  16.3092828  14.8697603  65.3009367
  16.7664945  14.7097421  66.7349339  58.0463602  73.5740915  56.2098265
  57.8292752  74.0495601  55.4079294  58.6908939  74.1283259  56.6498613
  18.7701762  39.0166044  54.7974014  18.8314223  39.9674129  54.7055054
  19.1022444  38.8391495  55.6774426  62.8920109  79.1757566  67.0655680
  63.5062514  79.5965877  66.4640331  63.4310506  78.5682163  67.5720882
  12.8027964  24.1937566  41.1940956  12.8536963  25.1004386  41.4967012
  13.6961043  23.8613701  41.2821293   6.5232855  54.9431944  34.8349261
   6.9009185  55.6311750  35.3829312   5.5971962  55.1746702  34.7641444
  57.5385189  28.7754560  63.7613583  56.8026781  29.0319753  64.3172073
  58.2450581  29.3718696  64.0089989  12.9922116   9.9866915  45.5685234
  13.8573503  10.1838195  45.9275627  12.4021769  10.5897713  46.0206175
  75.6122320  82.6489877   1.3012322  75.8274238  81.7800568   0.9622963
  75.6586378  82.5532721   2.2525032  42.3942464  43.2078073  28.2451065
  41.6876738  43.8236356  28.4393891  43.1891435  43.6567848  28.5328396
  66.2652159   3.5704431  44.7828054  66.8283463   3.2005510  45.4627323
  66.5129423   4.4941729  44.7429752   2.0192872  25.1318026  63.6626720
   1.9622603  25.6571674  64.4607782   1.2946820  25.4418993  63.1195164
  42.0586491  18.8294888  69.8339224  42.4038601  17.9906082  70.1394415
  42.8363752  19.3613875  69.6652222  39.3109088  51.9967567  14.4195564
  38.8285696  52.2323536  13.6270435  39.0121799  52.6247119  15.0773342
  23.3714890  21.5411520  61.5298748  24.2671490  21.6032434  61.8617964
  23.0920029  22.4504113  61.4232445  74.5667206   1.1777874  15.8857830
  74.2967759   1.8432184  15.2528866  73.9018653   1.2174221  16.5732678
  20.9538460  23.8383150  29.8755980  20.8370137  24.1826820  30.7610321
  21.5578175  24.4521236  29.4576406  17.9983163   3.8368779  41.4781141
  18.6509502   4.1288048  40.8416605  17.1941781   4.2877078  41.2205362
  26.5921744  56.1156641  21.2025459  26.2613522  56.4182590  20.3568371
  27.5424816  56.2083684  21.1350639  19.2788744  25.8812428  54.8336840
  18.4769344  25.9831858  54.3211126  19.0116692  26.0618091  55.7349205
  81.6595285  69.1959118  10.9806355  82.5389259  69.5724272  11.0142716
  81.0735147  69.9488806  11.0571678  57.0245955  73.4553811  60.6886578
  56.9929586  74.2771020  61.1785603  56.1626650  73.0619910  60.8248663
  13.1106865   2.8062436  55.7771349  13.1937647   1.8541658  55.7234907
  12.9194069   2.9784033  56.6990948  15.1903141  28.8736057  54.0110588
  14.5695269  29.3871307  54.5279217  14.6637130  28.1673694  53.6366892
   9.7392757   3.8518902  26.3005932  10.1916034   4.0615030  25.4834660
   8.8223393   4.0660187  26.1285122  22.5907642  78.8326195  69.4009590
  22.5876028  79.7392172  69.0938711  22.5548393  78.3085683  68.6007643
  85.6738430  22.3928499  23.6729980  85.6457707  22.6913571  22.7639675
  86.4011324  22.8784442  24.0622020  32.0017385   4.0317684  40.3115511
  32.8628492   3.6323571  40.1882935  32.1908474   4.9348563  40.5663061
  60.3215092  42.2608959  15.3028019  60.8329504  42.7586158  15.9407147
  60.3707092  41.3557343  15.6101998  83.4048969  10.5202186  53.1028605
  83.2986653   9.9613684  52.3330355  84.3449646  10.6958866  53.1434202
  16.1388600  32.9086208  36.4981508  16.2224483  33.7489891  36.9487357
  15.5161905  32.4127173  37.0297480  55.8465259  78.3249973   2.2741421
  56.3044398  79.0581034   2.6853617  55.1264422  78.7321805   1.7925699
  21.0104489  13.2230723  40.7532024  21.1741734  14.0952122  41.1120844
  20.8356285  12.6774788  41.5200138  77.7739208  67.9562901   8.7325771
  78.2416933  67.9297398   9.5672711  77.4208563  67.0727896   8.6276730
  35.6475258  18.8302577  40.7188416  36.5790415  18.8553524  40.9376574
  35.2205992  18.5336781  41.5225887   8.4330375   0.9882637   8.2313641
   7.5123580   1.1687036   8.4211548   8.5428197   0.0601717   8.4383209
  78.5071295  49.5297270   7.6276739  79.2157619  49.0899025   8.0973824
  77.7084654  49.2215292   8.0559071  27.3166299   5.7442319  62.4297762
  27.8947401   6.4980489  62.5471687  26.5005755   6.1177659  62.0969677
  49.6404934  11.2215149  59.8996449  50.4583263  11.6596460  59.6642256
  49.6135330  11.2622368  60.8555984  76.6559887  23.9540243  41.3388062
  75.7272196  23.7335634  41.2679529  77.0457268  23.6104059  40.5349016
  81.8482748  29.8255324  45.0109768  81.6626111  30.6219673  44.5135307
  80.9960470  29.5498157  45.3484964  51.7351716   9.0946697   5.0337513
  50.9289878   8.9820956   4.5301350  52.4075859   8.6591052   4.5099409
  13.9560306  32.0771718  35.1095247  14.5252240  31.3160300  35.2231622
  14.5408130  32.8293920  35.2013183  26.1181154  47.1909915   3.8653429
  25.1636126  47.1376132   3.8173111  26.4124563  47.0292019   2.9690083
  23.3692455  43.5722065  67.4138784  22.9431581  43.9439964  66.6415691
  24.3044114  43.6107731  67.2133541  39.3224078  50.4516332   7.5493725
  40.1358276  50.2287101   8.0020149  39.3204861  49.8937349   6.7715700
  73.3731178  33.6635280  51.5672493  72.6119378  34.2078519  51.7686176
  74.0293112  33.9202976  52.2151041  17.9453838  28.6974192  61.9037390
  18.2647502  28.9434433  62.7719021  18.6432457  28.9668989  61.3065767
  44.8189068   0.1307336  47.0956659  45.6574154   0.5742780  46.9675970
  44.2551994   0.7943366  47.4932766  24.7171879   9.4147509  35.6301284
  25.6643939   9.4830537  35.7499957  24.3731570  10.2432513  35.9639883
  47.6281023  20.8033347  68.5968924  47.2024345  21.2620640  69.3211937
  47.8649998  21.4964008  67.9806376  48.6227274   6.3059247  30.8477807
  47.9214478   6.5836972  30.2584767  48.1743002   6.0733950  31.6608477
  26.1012387  50.3296089  61.2236071  25.5580091  51.0522270  61.5381765
  25.9852529  50.3387451  60.2735043  28.2457972  32.5386071  25.7671928
  28.4731746  33.1656480  25.0806427  27.7485752  33.0511761  26.4045906
  32.6528907  32.9211903  60.0824451  32.4756026  32.2365427  59.4374180
  32.1617055  33.6799812  59.7674751  83.8875971  61.2724426  58.5398483
  83.5049448  60.4355481  58.8033152  84.8098908  61.2022331  58.7861729
  68.7553933  30.3823113  65.8064890  68.6599687  31.3345528  65.8255386
  69.3706992  30.2175069  65.0920153  32.3805714  38.0854583   2.4100877
  33.1775856  38.5992718   2.5404561  31.7835975  38.3921027   3.0925989
  29.4014239  40.1642179  62.8596115  28.9029694  39.9284220  62.0771933
  30.1681137  40.6288624  62.5241613   0.6579860  43.6565781  68.9258289
   1.2703006  44.0684080  69.5354986  -0.1175127  43.4696913  69.4548893
   1.1288507  67.9289880  69.7410917   0.7427151  68.7950352  69.8718357
   1.8403227  67.8850415  70.3799248  83.7722860  65.2678826  49.5198154
  84.6452747  65.4005399  49.8893118  83.7647543  65.8018544  48.7254286
   1.4259300  37.5865340  29.3672085   1.8488951  38.3135104  29.8241949
   1.8036734  37.6041579  28.4878731  17.0444524  13.2785380  32.5863194
  16.5889692  13.5721540  33.3753419  16.9774187  14.0177894  31.9819641
  21.4424641  82.6469596  55.0540829  22.3820765  82.5247369  54.9183512
  21.0564072  82.5167318  54.1879225  20.3188372  12.3771703  61.9937181
  21.2738633  12.3595762  62.0557594  20.0175643  12.0717490  62.8493929
  20.1316476   5.2284408  40.5218077  20.8536005   5.7279718  40.1403809
  20.5372334   4.4174463  40.8284378  80.0223723  19.8556316  65.1168060
  80.3406039  20.4926848  64.4771814  80.6481400  19.1330290  65.0668764
  53.1309108  76.0275546  68.9248657  52.6418511  76.8421224  69.0411901
  52.9608230  75.5297843  69.7245693  17.9863107  25.3627110  34.2767167
  17.1380854  25.3440762  33.8335490  17.7754760  25.2425003  35.2026367
  16.4919264  75.3946242  40.1203346  16.9659359  74.5756236  39.9761581
  16.9817526  76.0463396  39.6187687  80.7271610  71.3340750  42.4418259
  80.2217923  70.5661681  42.7085781  80.1134501  71.8574825  41.9264269
  66.0007112  54.0899991  20.2962978  66.8416613  54.5010327  20.0960835
  65.7261532  53.6916457  19.4703682  84.8858939   4.6657463   0.1720579
  85.1679335   3.7612768   0.0355824  85.4312359   4.9804922   0.8930071
  40.3174549  58.5362552  26.2219914  39.6915441  59.2097245  25.9557160
  40.0758379  58.3281277  27.1245106  30.8155680   6.4236557  64.1552544
  31.6206264   5.9867167  63.8774109  31.0350585   6.8151444  65.0007105
  43.4938138  70.2570032  13.6068066  43.7782078  69.3489908  13.7110527
  43.9003044  70.7208442  14.3388279  28.4201109  63.9327000   9.3870457
  29.0946821  63.2588791   9.4716080  28.9069854  64.7389029   9.2160996
  68.7611094  63.6539221  68.4826374  68.4471896  62.7697611  68.2930517
  68.2085088  63.9547396  69.2040110  72.3646341  74.3974188  63.4111929
  72.6946817  74.7510764  64.2371655  71.7984603  75.0870195  63.0645990
  31.8746805  21.6759634  52.4331093  31.3981771  21.0962558  53.0273485
  31.8915367  22.5200200  52.8842354   0.4420700  67.8117870   1.5481051
   0.1278200  66.9128631   1.6451271  -0.2694712  68.2669734   1.0978325
   5.0205100  30.0374269  66.7608356   5.6728971  30.4640222  66.2052822
   5.3887147  30.0858307  67.6430559   1.3631848  14.6367395  44.2055702
   2.0886374  15.1128590  44.6096230   0.5893025  15.1623249  44.4082928
  42.8302860  27.0474505  54.4506693  41.9223642  27.0102835  54.7515440
  42.7651644  27.0803666  53.4962511  27.8090096  30.4469824  59.4704533
  26.9660926  30.7672119  59.7916698  28.4110975  30.5818343  60.2022552
  47.6594973   5.8135498  33.2930970  48.5217524   5.6539202  33.6768508
  47.4573135   6.7194921  33.5268116   2.1415765  35.8036235  63.0854273
   2.7203233  35.8290437  63.8474274   2.5722367  36.3627770  62.4388170
  21.3875246   4.4648844  37.2222733  20.8392262   3.7126642  37.4453568
  21.5972352   4.8668194  38.0653048  69.3838358  40.3554153  55.5906963
  69.4132614  41.2883329  55.3784895  69.5994568  39.9157834  54.7682190
   0.9360147   8.7656504  55.4967451   1.1088599   9.1446853  54.6349478
   1.5117987   9.2477411  56.0902882   9.9298519   5.7239705  19.9623144
   9.1314006   5.5582625  19.4610667   9.6519798   6.3053751  20.6701183
  74.6184652  70.1550602  21.3758286  74.0929144  69.4065689  21.0933598
  75.0690716  69.8480676  22.1625527  50.4674864  13.4821534  66.2927914
  50.3929615  13.7771022  67.2003603  49.6144009  13.6793733  65.9060383
  44.5083427  10.4674089  45.2086830  44.0071583  10.7327950  44.4375658
  43.9528561  10.7084858  45.9499979  50.4080503  35.7486169   0.9260328
  49.6187919  36.0809879   0.4984434  50.1277464  35.5395155   1.8170651
  55.3179152  78.7106413  51.7971087  54.8112876  78.6275262  50.9892368
  55.9039519  79.4504014  51.6372681  62.3768180  31.5819072   0.4920824
  62.3449128  30.6621836   0.2287920  61.5620892  31.7212467   0.9748181
  62.5293310   2.0985695  16.4375504  62.1730317   2.2451730  17.3137863
  62.7520580   2.9736801  16.1200531  34.0430546  16.9974220  54.3493748
  33.7704444  17.3297489  53.4941149  34.9516559  16.7246497  54.2218351
  56.8233681  22.5678968  70.6974030  56.0183001  22.9480338  71.0489559
  57.5111103  22.8750682  71.2880707  32.0454431  25.1019478  58.9326048
  32.0892239  24.5039082  58.1865072  31.4591122  25.8016157  58.6446571
  19.5108921  76.1447933  50.6079578  18.7049944  76.6200897  50.8100843
  20.2090962  76.6959950  50.9613895  72.6468418  60.5488971  68.3966446
  72.7811787  60.2434876  69.2938137  72.2822461  61.4284471  68.4951115
  71.8528366  40.5348682  50.5628061  71.0086823  40.7139063  50.1485825
  71.6282797  40.2274990  51.4410591  14.0763123  79.8753568  66.3413048
  14.1517765  80.7372141  65.9317446  13.5597450  80.0303715  67.1321058
  31.9751382  35.1605248  58.9149046  31.0582495  35.4315162  58.9608479
  32.1290612  34.9929476  57.9851389  65.4055708  67.8997897  17.4568470
  65.5041712  68.6431741  18.0517300  65.9578984  67.2155427  17.8349598
  18.1280935  10.8655882  13.5702169  17.1947086  11.0736084  13.5283673
  18.3372009  10.8895946  14.5039880  52.8360097  17.6361175   9.0726860
  53.4478544  18.0273004   8.4490975  53.2849555  17.6924844   9.9161919
  19.5365047  44.4191885  62.0062828  18.8241386  45.0269318  61.8077517
  19.0971112  43.5938358  62.2111130  70.6359451  70.4749178   8.2703980
  70.3088682  69.9875497   9.0265186  70.9047239  71.3208507   8.6287125
  41.2904453  21.9254231   2.5377816  40.7067251  21.7578912   3.2776707
  41.9982338  22.4542356   2.9060552  14.1004457  66.7956661  21.9472511
  14.7143402  66.0616850  21.9725235  13.7137403  66.7544602  21.0726078
  38.4404683  12.2618628  53.7670755  38.8053703  13.1155324  53.5340023
  37.7420306  12.4619997  54.3902636  56.2585926  30.2476311  69.6146822
  56.5930796  30.0245881  68.7460041  56.1617184  31.1997485  69.5968390
  19.9221742  16.2063456  57.8658342  18.9850938  16.1488175  58.0523920
  20.1119518  15.4234886  57.3487759  75.7126968  50.6073527   8.5494526
  76.5363329  51.0912167   8.4883316  75.0517576  51.2171714   8.2215698
  14.6757395  62.7533606  65.4820347  14.9371702  61.8652180  65.2389526
  13.9982254  62.6301029  66.1468744  65.3309315  28.2076846  13.1744774
  65.3289955  29.1303562  12.9197128  64.4777100  27.8791665  12.8910740
  58.8904255  56.5038310   8.5938938  59.3146198  55.6747173   8.8149460
  59.5988219  57.1473466   8.6110409  29.7826695   9.8600888  71.2315083
  29.6825981  10.5484223  70.5739260  29.8969197   9.0574682  70.7226086
  52.2918194  39.8185285   4.2404659  52.6310604  40.5087308   4.8103483
  53.0628913  39.4878324   3.7796839  53.3328009  17.1657014  65.1662016
  52.7826548  17.6030183  65.8160639  52.8425455  16.3788891  64.9278593
  53.4640503  17.2427535  48.4154892  53.4946680  16.5247726  47.7831936
  52.5386190  17.4831784  48.4602547  11.4396179  38.1269884  45.4731035
  11.6886973  38.9662457  45.0860167  10.8671606  38.3607221  46.2037849
  62.5286684  65.4692462  51.0479689  62.7265177  66.3968328  50.9188509
  62.5191853  65.3564146  51.9984484  36.3620268  10.1369282   1.1617478
  36.6438256  10.9322592   1.6137083  36.8062793  10.1726433   0.3146370
  20.1434541   9.6744859  36.6984844  20.3598642   9.4582796  35.7914805
  19.2865312  10.0977468  36.6458964  84.0679376  70.1836680  11.2698467
  84.9945228  70.0882577  11.4902218  83.8491362  71.0766767  11.5361031
  51.6694784  26.0293126  52.8361416  52.0210505  25.3972864  53.4631777
  51.6168976  26.8495393  53.3267546  53.3905642  46.1916398   5.9179505
  53.3745711  46.1659475   4.9612291  53.3804911  47.1243839   6.1326988
  56.3634913  81.3101863  12.6220711  56.4968341  81.4491867  11.6844566
  56.0910099  82.1654033  12.9546173  12.1701557  77.0694694  59.9575472
  12.1609623  77.5602642  60.7792950  12.8210051  76.3815322  60.0967121
  65.9937446  79.1797637   7.8629692  65.0774114  78.9451407   7.7162798
  66.2178724  78.7617515   8.6943920  49.0889542  44.0539794  23.4593590
  48.7935620  44.2128818  24.3558605  50.0354498  44.1932215  23.4908112
  86.6567390  82.8898715   3.8223990  86.9751232  82.1372985   3.3238991
  86.8475311  82.6710461   4.7345074  48.4518528  22.4750328  55.5836487
  47.6489830  22.9172397  55.8594799  49.1266727  23.1522393  55.6310272
  46.4477253   5.9322029  47.2746229  46.7115498   6.7884070  46.9376564
  45.6533813   6.1077183  47.7790451  16.8100357   9.1956794  57.8835917
  17.7319705   8.9696598  57.7603722  16.4895689   8.5561144  58.5195827
  43.0026293  18.9807570  48.1879091  42.2223139  19.4846272  48.4190989
  42.9469013  18.1919658  48.7272882   7.9439741  58.2981396  51.1934710
   7.2050405  57.6958084  51.2795305   8.7103188  57.7708578  51.4191294
  42.1719520  60.6670176  30.6582077  43.0247252  61.0983001  30.7130154
  42.3749905  59.7317611  30.6755932  37.8119259  35.1815270   3.6818703
  37.0456897  34.8156320   3.2400187  38.2349061  34.4271063   4.0919550
  28.9950347  39.5984054  55.8365488  28.5641623  40.4142904  55.5817699
  29.8369932  39.8750019  56.1982536  76.1568230  48.3212190  35.4201038
  75.4061191  47.9695903  34.9415310  76.9137066  47.8762721  35.0388058
   7.8881795  40.9155985  10.4306420   8.7933047  40.8735510  10.7392033
   7.3603113  40.7814642  11.2177857  34.5774603   8.0685955  55.1187897
  35.0655055   8.1894386  55.9333086  34.8572111   8.7951326  54.5619106
  24.2013032   9.8434635  11.3573940  23.3511074  10.1901479  11.6279514
  24.8213775  10.2115579  11.9868763  57.4422836  30.4247928  49.7882032
  56.5918779  30.8641338  49.7930956  58.0273008  31.0402703  49.3464184
  52.1282721  48.4728289  66.9427967  52.3413229  47.7536345  66.3481569
  52.0838976  48.0638504  67.8070879  76.4542501  66.4098190  34.5863064
  75.6132143  66.1388944  34.2182167  76.2224739  66.9334649  35.3533180
   1.3093206   2.2646134  61.6257620   0.5029060   1.7498656  61.6567755
   1.1078811   3.0556941  62.1256065  14.9375477  77.3280786   9.6026905
  14.3415966  77.1330808   8.8794716  14.5983066  76.8165182  10.3371628
  82.2484192  24.3802857  68.0697012  82.6266995  25.1394749  68.5132885
  82.6175258  24.4101238  67.1870327  59.2290323   6.6762968  14.1151913
  58.7628351   7.5109287  14.0674503  59.1373323   6.4025970  15.0278385
  74.1465872  60.7328068   2.7460249  74.9852865  60.3620933   3.0205877
  73.6101311  59.9721657   2.5227078  63.6781645  68.0812120  51.2879133
  63.8250303  67.8856564  52.2133398  64.2988014  68.7825108  51.0898733
  33.6003065  36.6992855  60.6784821  33.0737233  36.2142181  60.0431442
  34.0308928  37.3806787  60.1622200  68.4501600  62.2404432  65.2743626
  68.0201578  61.8222666  64.5283985  68.1577826  61.7356157  66.0332394
  56.7995787  22.2645426  45.2046299  57.0495319  22.3785233  44.2876959
  57.1358919  23.0459213  45.6434679  43.1727505  34.4719768  70.3226042
  42.8160095  35.0395894  71.0058165  43.8216019  35.0148511  69.8748207
  84.1376179  79.9739670   1.1836632  84.7305124  79.3259643   1.5641935
  84.6941822  80.7318734   1.0046490  68.9674044  10.1471364  55.1494980
  69.6312284   9.9499869  54.4886637  68.3223200   9.4459581  55.0576019
  73.7962914  20.8053470  56.5564632  73.0859423  21.3493776  56.2163639
  73.3977175  20.3114629  57.2730160  54.1830873  20.1834393  70.2065897
  54.4111300  19.6812248  70.9889030  54.8193932  19.9037206  69.5484829
  64.7052383  55.2173424  58.7593889  65.4781675  55.6139612  58.3575153
  64.0953445  55.9458399  58.8758230  -0.1300455  33.0694580  61.2123108
  -0.2317795  34.0129709  61.3374853   0.5517586  32.8173661  61.8350649
  15.4989374  50.3687334   5.6140071  16.3980293  50.6710148   5.4855883
  14.9737990  50.9298038   5.0433385  56.9802761  60.7697344  62.6418447
  57.7700663  61.0379982  63.1114149  57.2934866  60.1559782  61.9774389
  20.8155394  54.1256046  55.3757143  19.9606788  54.5529938  55.3229713
  20.8576155  53.5767078  54.5926571  42.3207283  32.0753169  61.5136957
  42.8753519  32.5848269  62.1044731  42.9081869  31.8034959  60.8085442
  38.5254073  32.4480891  67.3189974  38.1661081  31.6927290  66.8536282
  38.2244897  32.3389697  68.2210875  62.9965830  12.4352014  68.8516378
  62.1216583  12.6053429  69.2006254  62.9095984  11.6064322  68.3806753
  26.5837755  51.5889453   2.8947456  25.7923212  51.3704144   2.4027212
  26.7885961  50.7926827   3.3848961  54.3707323  41.4152384  51.2401295
  54.5270109  42.3552942  51.1501026  53.7775946  41.3415623  51.9877863
  63.8305426  23.8513494  50.5215740  63.9366007  22.9631758  50.8623552
  62.8832388  23.9695501  50.4517126  65.2878111  79.0868067  27.2309311
  64.8430460  79.8878645  26.9539459  65.8940475  79.3733929  27.9140003
  41.6865158  61.9458294  61.9891787  42.2909212  61.3560200  61.5385675
  42.1443892  62.7860975  62.0122623  61.1326599  65.1393414  67.4880934
  60.6295395  65.6911516  68.0869341  61.9599915  64.9837923  67.9436731
  56.9749784  55.8128214  46.4468527  56.6965055  55.1626492  47.0917988
  56.6324091  56.6423321  46.7796993  65.1920033  35.1132345  63.8375664
  64.9422503  34.8820329  62.9429150  64.5852900  34.6208382  64.3904448
  47.6661682  41.6855383  64.0243721  46.9325447  41.0774565  64.1152620
  47.6377726  42.2158527  64.8207331  55.0400639  38.7547207  50.1640224
  54.6517754  39.6065569  50.3636122  55.9522867  38.9513326  49.9508953
  42.9972267  53.0744171  20.4815125  43.7274885  53.4022570  21.0063624
  43.3880043  52.4063730  19.9182689  55.1396179  64.2860556  59.1613531
  54.3559170  63.7390614  59.2146301  54.8515368  65.0728559  58.6985493
  69.3425131  45.6392956  70.0336599  68.5864782  45.6560278  69.4468355
  69.1761732  46.3448477  70.6587648  64.9463129  81.2657452  48.2629967
  64.9152613  80.7330704  47.4683094  65.7878971  81.0487175  48.6640739
  35.3773522  54.1303539  31.2845826  34.9268675  53.7321377  30.5397892
  35.5512786  53.3996296  31.8778992  11.6628130  50.4159780  23.4815701
  12.5750787  50.1833864  23.3086498  11.3068016  49.6591802  23.9471348
  70.0031519  63.4651709  62.6875782  69.4107580  62.7191210  62.5942135
  70.4739666  63.5028172  61.8550253   3.8716783  78.5901879  16.9817742
   4.1955986  77.8448104  17.4874695   3.6512031  78.2215976  16.1263474
  76.5687132  23.0650663  63.7701797  76.4046955  23.7312865  63.1027365
  77.3789883  23.3462214  64.1951942  83.1325119  77.0831345   3.8690336
  82.8267258  77.4849223   3.0558355  84.0824621  77.0267104   3.7658747
  80.7435989  52.5446701  66.5626287  80.8085251  53.4922361  66.6815186
  81.3228321  52.1791410  67.2312975  63.4880591  33.1304361  69.2179854
  63.6850191  32.8537084  70.1128931  63.9882020  33.9382268  69.1015155
  51.0101891  51.2989330  46.0152435  51.3792324  51.8716860  46.6875458
  51.7029953  50.6634092  45.8353567  68.2977676  46.8167400  18.3325016
  67.6268625  47.1287870  18.9397430  69.1083384  47.2200060  18.6432838
  10.1507654   1.7175862  70.0570345   9.3862238   1.2143895  69.7768545
  10.0835218   2.5428101  69.5767021  50.4000664  44.2122698  47.1548223
  51.0102034  43.8071060  47.7711105  50.8646774  44.2048645  46.3179779
  48.2183313  62.1379280  60.5237198  48.9410877  62.7341843  60.3279161
  47.8556442  61.9118118  59.6672392  65.9347208  10.3940006  12.3732098
  65.2904565  10.0165554  12.9721268  66.7635877   9.9872013  12.6256664
  29.6306087  60.5801963   3.3781727  29.1151494  61.1826764   2.8419359
  29.4145287  60.8174502   4.2799767  53.1768911  64.4717573  29.4161900
  54.0589040  64.3265079  29.7585209  53.1055348  63.8701772  28.6750801
  14.8289402  49.4036337  13.1092938  15.1781042  49.0674349  12.2838982
  15.5173070  49.2265173  13.7504013  86.0812824   2.5317952   5.3241116
  86.1128013   3.3848474   4.8910573  85.2804821   2.5584695   5.8477849
  87.6537143  18.8153406  16.6670712  87.8895579  18.9451214  15.7485111
  87.5021587  19.6989055  17.0025833  20.0669010  33.1877847   2.5517090
  20.0823171  33.1044622   3.5051497  19.8161275  32.3184391   2.2393330
  41.3341434  10.2809664   6.3314827  41.7210920  10.8576008   6.9902666
  41.9760568   9.5796772   6.2202795  63.2786751  49.3312407  55.7492638
  63.9048624  49.2208052  55.0337696  63.8200665  49.5336151  56.5122652
  52.1175528  41.2782907  53.0721521  51.2972403  41.7441559  53.2342815
  51.8856621  40.5977726  52.4402046  35.7432563  13.9237781  11.2773808
  35.8221157  14.7860285  11.6854675  35.4464014  13.3505436  11.9841488
  60.9467840  52.2103071  38.2585526  60.9772587  52.4437475  39.1863513
  60.0276041  52.3185921  38.0143976  54.2330170  60.8472633  54.0378428
  54.7749853  60.3618193  54.6598101  53.3336020  60.6349945  54.2873001
  86.6107655  25.4471111  51.8413353  85.9038353  24.8140335  51.9666147
  87.0878983  25.4406619  52.6711130  26.7560186  59.9580084  12.1743973
  27.5839700  60.4354750  12.1220215  26.9690504  59.0752374  11.8717964
   3.7731764  67.4814796  46.6080809   4.3789884  66.9529867  47.1276188
   3.4806654  68.1686068  47.2068501  44.7277260  74.3630743  57.9091358
  43.8744783  73.9700174  57.7255440  45.3486347  73.8308096  57.4117374
  14.1053953  80.4251384  20.9830769  14.3989124  81.2707113  20.6438358
  13.8426199  80.6072019  21.8853195  53.2184792  52.8894281  71.1843729
  52.8657246  53.0528069  72.0590734  52.8620195  53.5964108  70.6464624
  62.4253559  61.1520147  32.5314689  62.2098446  60.2909279  32.1732593
  61.8858433  61.7623711  32.0288563  29.6677709  72.7919245  32.1586704
  29.9956536  72.0397043  31.6658306  28.8848877  72.4650431  32.6019216
  76.1100817  53.2865715  66.3126040  76.0187912  54.2203283  66.5023470
  76.4768028  53.2564592  65.4289532  48.4180069  55.3444862  50.5078220
  48.8399935  55.2454662  49.6543884  48.5824728  56.2552595  50.7521057
  38.4115059  11.6328431  69.0738423  38.2208855  11.5883590  68.1368704
  37.6341850  12.0389129  69.4573895  70.1211357  49.9613237  57.1105814
  69.6478033  50.3498888  57.8462458  69.4477749  49.5031452  56.6076994
  27.5457859  65.4927397  24.6427703  27.2573185  66.0133743  23.8931322
  27.3100066  64.5934820  24.4147801  78.2709455  31.6474676  38.8358045
  78.2776880  30.7312560  38.5587788  77.9916811  32.1307564  38.0581975
  60.5265427  49.7578716  43.7026501  61.4481306  49.8749685  43.9332867
  60.3347158  48.8496494  43.9362383  51.4673955  46.1559339   8.9424904
  51.9725282  46.9140287   8.6486061  51.6805227  46.0717817   9.8718556
  52.9171276  63.6608744  60.7358456  52.7875519  64.5049524  61.1682463
  53.0240488  63.0375862  61.4543962  70.5592966  76.4809942  13.3078659
  71.0964203  77.0209122  13.8877094  71.1083364  76.3381577  12.5368989
   9.2610666  52.5439835  35.2642202   9.4270250  51.6866684  34.8721766
   8.3113119  52.5749445  35.3792691  71.1829472  46.2353277  56.1371040
  70.9408665  46.7107296  56.9318485  71.3136053  46.9186640  55.4796743
   7.8871193  42.4345455  14.1835697   8.7752857  42.2775252  14.5040997
   7.8982868  43.3430767  13.8824375  46.5708256  66.0696936  23.3006835
  45.9675932  66.6223764  23.7975502  46.4425993  65.1918364  23.6600709
  74.0410720  23.3319803   6.4663418  73.2018934  23.7648626   6.3094290
  74.2758666  23.5815140   7.3601158  46.6340501  53.9272161   7.1580275
  46.4162309  53.6807008   6.2591274  47.3812921  53.3732839   7.3839100
  64.2842817  67.8851891  28.6404347  64.9205446  67.3107290  29.0663409
  64.8172426  68.5100889  28.1488204  37.9589987  65.8909750  63.7909698
  37.3721433  65.6876087  63.0626297  38.4857273  66.6256237  63.4762001
  75.5577755  50.5122042  66.5042114  75.6483316  51.4602184  66.6006327
  75.2340317  50.2148104  67.3544931  63.8672590  39.1674542  52.9909897
  63.1816626  39.8050117  52.7917242  63.9825678  39.2282414  53.9392757
  38.1677992  75.0852051  60.3612041  37.9021103  75.2131829  59.4505644
  38.9964659  75.5581710  60.4376554  27.2259736  20.6935525  64.9209166
  27.8355742  21.1003852  64.3052006  27.6767421  20.7312822  65.7644892
  51.2401540  11.0743042   1.4833553  50.7873590  11.9173284   1.5060480
  52.0442350  11.2208172   1.9815739  84.5915907  75.0775932  10.0454624
  84.5727604  74.1228913   9.9789723  84.4173258  75.2568196  10.9694393
   0.2763197  69.6063423  47.2508478   1.1082193  69.4754887  47.7058792
   0.4436895  69.3106461  46.3559866  23.1008172  68.9536428  32.6658583
  23.3077836  68.5978556  31.8016768  22.3548460  68.4344816  32.9662395
  53.7322569  57.9545927  46.0352945  54.5376444  57.8770256  46.5467358
  53.8487053  58.7561560  45.5252266  62.6363897  54.8978233  61.5062189
  61.8720055  54.7828627  62.0707846  62.4684572  55.7164669  61.0394716
  44.8443174  61.0492229  30.2290630  45.7984543  60.9754753  30.2494121
  44.5488787  60.2274370  29.8371196  65.9118462  55.4086161  52.7545691
  66.1892939  55.8868170  53.5359669  65.3961086  54.6764088  53.0923843
  29.4000299  18.1541725   0.2492436  28.7065847  18.2436987  -0.4044763
  29.4491966  19.0146633   0.6656273  53.1923866  39.4978809  54.7540998
  53.3906317  38.8416529  54.0860462  52.8738356  40.2535629  54.2604446
  61.7985620  77.0350884  25.8398255  61.2453737  76.3357662  25.4917343
  62.0758905  76.7160701  26.6986282  84.2398453  54.3513870  57.7319670
  84.2619801  55.2556658  58.0450583  83.7788200  53.8710356  58.4196806
  49.1389990  31.8875623  69.1562557  49.9283886  31.4850926  69.5183468
  49.4651747  32.5818944  68.5837650  45.1737022  78.8612556  60.3097248
  44.8882437  78.0686903  59.8552036  45.8221102  79.2526531  59.7244024
  63.4337759  60.4837894  42.6574945  62.5730181  60.7850409  42.9483175
  63.7034035  59.8507595  43.3229303  48.1861162  75.6256676  53.7780380
  47.7179623  76.3826847  54.1301537  48.5285759  75.9261656  52.9362202
   2.7809641  59.2131901  53.9465141   1.9517442  59.6546984  53.7629318
   2.5284025  58.4057856  54.3943310  16.1887302   0.4753491  32.6365900
  15.7887783  -0.0891688  33.2981038  17.0954313   0.5778977  32.9257274
  83.7002373  79.2361212  36.2113762  84.4361019  78.8654089  35.7242298
  83.6080074  80.1243496  35.8667326  47.5528247  57.0208975  16.2521465
  48.4236534  57.1863504  16.6134079  47.0806797  57.8438707  16.3787373
   7.0869334  33.6749550   3.3747299   6.6246350  33.8159509   2.5485142
   6.4203341  33.3241506   3.9653309  22.2103126  60.5464788   0.2343758
  22.4355848  60.3994222  -0.6842415  22.6722534  61.3515230   0.4683502
  14.3403360  76.8050194  53.5305071  14.1415521  77.7304125  53.3878088
  13.9914343  76.6166782  54.4017315  73.1917810  40.4269361  64.1265392
  74.1008615  40.2103901  64.3336964  73.2447338  41.2602472  63.6585426
  73.3733463  78.3643675   4.9459806  72.4405289  78.2581282   5.1325250
  73.6014557  79.2074013   5.3377664  71.4519930  74.4992447  38.6296368
  72.2667789  74.9718952  38.7998247  71.0642290  74.3709469  39.4953203
  60.1999085   9.5541570  32.1992064  60.2275174   8.9875314  32.9701781
  60.8950751   9.2207620  31.6319108  63.4330940  63.5391855  49.4802475
  63.0297709  64.1582537  50.0887871  64.2722464  63.9394283  49.2525101
  29.0636053  24.6712110  49.3736267  28.5701456  24.2219922  50.0598717
  28.5434141  24.5415971  48.5806417  48.4575176  67.5079107  60.6397533
  49.2731142  67.3102236  60.1793671  47.8677177  66.7932367  60.3997374
  70.7087994  78.0440426  47.7943850  70.9112835  78.9793777  47.8137445
  70.9930897  77.7196980  48.6489105  65.7127666  64.7334290  56.0936499
  64.7686386  64.7256613  55.9362030  65.9626245  63.8094234  56.0970783
  74.4909620  37.7641249  61.2320042  74.2891788  36.8332458  61.3267612
  73.6439085  38.2023501  61.3137913  64.6376657  35.6933331  69.2128134
  64.0753555  36.1702251  68.6023951  65.5278349  35.9359193  68.9579010
  10.7796850   6.3113019  36.4659762  10.5183496   6.0636327  35.5790758
  10.1655092   5.8473775  37.0350027  64.4617653  53.3643675  54.0725183
  64.7424412  53.0804062  54.9424696  63.9156151  54.1332483  54.2361641
  11.6077890  28.1552789  32.3136735  11.3598718  27.3814580  32.8195977
  12.3698129  27.8757188  31.8063331  18.3608379  75.6655811   2.8894623
  18.6849250  76.5256308   2.6220425  18.1046285  75.2409862   2.0707377
  63.8581514  54.3652678  35.2062392  63.7178326  54.9346828  35.9627509
  64.5558071  54.7935820  34.7102046   1.8485853  62.9003572  66.5884018
   1.7761061  63.2883453  65.7163620   2.7905771  62.8129244  66.7341137
  86.1958848   0.9761711  24.3935879  87.0629726   1.0747905  24.0003117
  86.1951195   1.5893360  25.1286133   8.3641250  16.2558313  23.3285339
   8.9360697  16.8135067  23.8558968   8.8618572  15.4469438  23.2093819
  72.8842831  61.2115574  54.6296310  72.0513821  61.3706207  55.0737095
  72.6374149  60.8318281  53.7863684  79.4727039  68.6280632  38.1833339
  80.1445007  68.8820696  38.8161016  79.2536402  69.4406843  37.7273893
  50.1824560   4.6786591  64.1554976  49.5957555   5.0533578  64.8124695
  51.0547437   4.7545239  64.5422506  86.6712189  70.3246355  31.0577083
  87.5958157  70.1942730  30.8470583  86.2077999  70.1004457  30.2507305
  61.4147282  47.4365377  56.5353870  61.0487461  47.1589756  55.6955957
  62.1518946  48.0002737  56.3008070  61.1719513  81.8415260  55.6604242
  61.0882998  82.3304462  54.8417711  62.0728827  81.9993210  55.9426498
  47.9708202  36.3213773   0.2269323  48.0615051  36.8931289  -0.5353729
  47.2555597  36.7076631   0.7323177  64.7728205  57.9470587  68.2874680
  64.6906805  57.3384857  69.0217161  65.4298496  57.5474405  67.7175093
  83.9374893   7.1024320  47.4380445  84.7586410   6.6844651  47.1787214
  84.1476028   7.5579545  48.2532644  27.0027168  24.4784542   7.5034102
  27.0032651  23.7027689   6.9425734  26.5329082  24.2042299   8.2910069
  49.5312166  79.6375513  58.9136314  50.0874996  80.4129314  58.8390160
  49.3978643  79.3506098  58.0102396  49.8701723   9.0193935   2.9483135
  50.4850252   9.5156523   2.4080237  49.0189750   9.1609522   2.5339945
  81.2702339  11.8076798  22.9082489  81.4490097  11.9121263  21.9737124
  82.1258324  11.6256234  23.2968950  64.8441666  17.6926610  68.2510424
  65.2461927  17.5059411  67.4026680  64.4824760  16.8530461  68.5346746
  82.1939278  51.2798786  57.6023293  82.5981712  51.8039751  58.2938147
  82.0876980  51.8887329  56.8714142  51.9080830  45.7938194  51.4310312
  51.8272734  45.9520006  50.4904556  51.0056496  45.7035065  51.7371225
  85.0208187  75.4965019  62.9497528  85.3645515  74.9486208  63.6553717
  84.7108269  76.2877703  63.3902359  79.2347908  49.7613001  57.4533033
  79.0275049  49.4238091  56.5818882  79.7841120  49.0840435  57.8480196
  73.7084220  13.4462591   4.1425999  74.2864393  13.9219232   4.7391518
  73.0299543  13.0785270   4.7088917  58.9983845  79.4581747  57.9710388
  59.6482992  79.4552755  58.6737728  58.1811523  79.2037439  58.3995533
   0.8954747  67.4551626  10.9402187   0.3061779  67.6704069  10.2172859
   0.9523613  66.4997526  10.9265144   0.9716341  65.8687401  57.5671291
   1.9013616  65.6857252  57.7025414   0.5731222  65.7330084  58.4267807
  18.6651857  67.1571871   4.1005095  19.1985853  67.5855871   3.4310349
  18.9994295  67.5006910   4.9290712  80.8774345   3.8428113  35.8112121
  80.5022877   3.3286187  36.5261269  81.6595619   3.3562085  35.5509686
  13.0670936  53.4378858  38.3106049  13.9588411  53.4704443  37.9642494
  12.5317676  53.8509126  37.6330574  85.0971508  56.9349480  38.2628322
  84.4351673  56.5547466  37.6853752  84.6885777  57.7302408  38.6046004
  69.7740763   4.9510858  48.4172153  69.2072957   5.3962991  47.7873135
  69.1769307   4.6357629  49.0956116  82.7087038  16.5077588  56.3903522
  83.2141226  16.0276315  55.7344103  82.3933809  15.8325669  56.9911194
  80.7297134  82.7582264  15.0728154  81.5380955  82.3092270  15.3201270
  80.6124401  83.4284878  15.7460332  20.5955172  59.0057945  55.2698946
  21.5366149  59.0724134  55.1082563  20.2843404  58.3780098  54.6177530
  75.9718513  25.7738161  55.0305510  76.1065578  25.9966898  55.9516430
  76.2628269  24.8647189  54.9590683  87.1032303   2.3238751  40.2073812
  86.7336719   1.8948457  39.4356370  87.8125303   2.8666303  39.8630643
  71.4277189  33.0655000  59.5155716  70.5735128  33.4205911  59.7614813
  71.4163463  32.1659848  59.8426342  24.4481172  27.5416085  35.5180001
  24.5311250  26.6218659  35.2661991  25.0645437  28.0023381  34.9488044
  69.5314932  59.5270777  32.8435850  69.6606922  58.9055252  33.5599709
  68.8006306  60.0746155  33.1304288  45.6197786  77.0087004  36.7741251
  46.1978722  76.3432884  36.4009380  46.1993313  77.5646114  37.2950029
  67.3716068  66.7871761  50.7082939  68.1391382  66.7465448  51.2788010
  67.3873091  67.6740313  50.3484774  41.2960680  11.7029043  34.9691780
  40.9241111  10.9311195  34.5422943  41.0032423  12.4385687  34.4313248
  45.3590155  65.9974957  70.1601934  44.6323872  65.9156895  70.7778931
  45.4534912  65.1222897  69.7842646  64.7690487  67.0964813  42.2106409
  65.6858683  66.9268179  41.9941044  64.3150854  66.2850857  41.9830751
  33.6436582  81.6342545  54.2736864  33.8159227  82.5060749  53.9180279
  33.9291644  81.6869736  55.1857901  65.8263254  52.0468283  33.4296083
  65.7394934  51.9005728  32.4876404  65.6458950  52.9797840  33.5447717
   7.7368059   7.0268628  59.9746799   6.9663992   6.8001553  60.4955626
   7.3879232   7.5242612  59.2350149  50.6750536  53.6197567  42.4071789
  49.8550034  53.1307268  42.4749136  50.5756855  54.3412304  43.0283403
  46.1281872  79.3781996  43.0763292  45.6357050  78.7261200  43.5748100
  45.5588436  80.1474953  43.0602694  56.3918161  68.6632681  31.6811657
  55.5158567  68.9337015  31.9564795  56.7982197  68.3212376  32.4774575
  87.6499288  16.2867639  66.0232067  88.3366554  15.6522366  66.2281847
  87.9440182  17.0993325  66.4348745  17.2335489  25.5419918   7.0192106
  18.1193121  25.4484888   6.6686209  16.6654594  25.1992174   6.3292750
  71.9028616  71.5123796  38.2712221  72.0996523  71.1690617  39.1427946
  71.8015909  72.4551249  38.4024000  77.8710175  54.7522640  47.8335285
  78.5795212  55.3375101  47.5656843  77.7721453  54.9099445  48.7724638
  62.2168493  66.2831450  35.1860952  62.8779078  66.9502687  35.0012302
  62.4967813  65.5214357  34.6784782  63.7827206  59.1968346  24.8501539
  63.7033033  59.9946499  24.3272567  63.9318705  59.5092201  25.7425690
  55.3821754  81.7695045  24.3839121  55.8215427  81.4001083  23.6179280
  55.8923435  82.5502396  24.5993400  66.1151821  42.0777370  71.1420911
  66.9624359  41.8259574  70.7746701  65.6759960  42.5462390  70.4322685
  74.8810530  66.5178823  57.5363493  75.3330183  65.6782103  57.4531984
  74.9008751  66.7087221  58.4741259  49.1326864  57.8065153   2.7749880
  49.6453531  58.5741945   3.0280932  49.7714241  57.2100683   2.3844822
  45.3936870  18.0738016   4.1200979  45.4107816  17.3386617   4.7328814
  44.4827325  18.3677049   4.1239699  41.1673362   3.6092230  13.5974606
  41.6561086   3.0116459  14.1633518  40.2532203   3.3459612  13.7038620
  17.8791656   5.2602765  30.2581477  17.7751293   4.8422811  29.4033432
  17.0199146   5.1770017  30.6716466  80.7384300  73.7645102  46.1272717
  80.0057125  73.6929798  45.5155182  80.5267048  73.1474924  46.8277645
  85.3512035  52.9001184   7.7002342  85.7658492  52.0375963   7.7192457
  84.4323884  52.7198358   7.5014647  16.3630540   8.0746456  18.1946095
  16.5213926   8.7947794  18.8049992  16.0546835   7.3561092  18.7467297
  51.0223436  64.9179125  34.1480350  51.8458176  65.3301477  34.4091511
  50.6917906  64.5138741  34.9503589  44.7220380  17.7561994   6.9386967
  45.0302322  17.1578069   6.2581308  45.4689510  17.8519531   7.5296124
  39.0150928  49.1223288  36.1210227  39.2454457  48.6534405  36.9230938
  39.2546201  50.0319862  36.2981749   7.8112109  47.2075601   4.9629553
   8.3008916  46.5465971   5.4524096   6.9580014  47.2425791   5.3954371
  55.5276871  75.0238180  53.3368778  56.1004210  75.3388977  52.6376390
  55.0530910  75.8027935  53.6270237  21.9642122  52.8645845   6.1074360
  22.2676237  53.7716051   6.0688933  21.9901331  52.5645395   5.1988466
   4.2397442  20.4820058  62.6248789   4.9381151  20.9814450  63.0480480
   3.5504951  21.1256597  62.4609327   1.1451711   4.2654130  63.3149004
   1.1250534   5.2111146  63.4614563   0.4309406   3.9243695  63.8532257
  61.6460323  61.3293791  50.6317091  62.1695709  62.1300077  50.5980682
  61.7794895  60.9929943  51.5178633  85.9486580  65.3999043  32.0932794
  86.7281151  65.9220219  32.2832084  85.3686428  65.9980869  31.6221237
  69.3852670   0.8418413   4.4042547  68.9558275   1.3931890   5.0583370
  69.2126710  -0.0535874   4.6952065  41.1658199  44.2658849   0.2155359
  40.6983478  44.7202345   0.9164436  40.4764421  43.8472887  -0.2999870
   0.7640512  36.5997596  10.1072224   1.5097649  37.1244713   9.8159893
   0.7117517  35.8849855   9.4727238  50.7317417   2.2053525  66.1444283
  51.2909191   2.2346398  65.3680944  50.0825541   2.8933808  65.9980965
  31.0640740  68.5184669  62.9610443  31.9739461  68.7835932  62.8266001
  31.1131668  67.5815916  63.1510067  84.1078155  17.3593423  69.4065332
  84.4361370  16.6705796  69.9844980  84.3907135  17.0929906  68.5317469
  34.4925220  47.3715349  10.2224453  35.0125034  46.8190332  10.8060368
  33.5845478  47.1478410  10.4268273  22.5865467   8.3210178  37.1655281
  22.1119983   9.1519781  37.1421917  23.1932790   8.3708759  36.4268597
  72.6431847  59.2813683  14.5714712  73.5586119  59.5159864  14.7237241
  72.3747349  59.8299265  13.8344157  70.4888265  16.5875241  22.4203181
  70.6280964  16.6450021  23.3655858  70.4797762  17.4975869  22.1237779
  78.9527512  55.0899887  44.6070242  79.7063828  55.4017448  45.1081038
  79.2527819  55.0902700  43.6980629   6.4562341  79.5707607  50.5743694
   6.1835310  80.4306889  50.2543783   6.0936853  79.5182514  51.4586973
   5.5876085  41.6466713  71.2899399   5.3066656  41.8317461  72.1860695
   6.1072847  42.4104452  71.0392904  52.2311068  62.0325518  63.3480835
  51.8303013  62.2170782  64.1975164  53.1461287  62.2931147  63.4533358
  50.0780773  73.3446360  55.6359577  49.6179533  74.1056776  55.9899855
  50.5721426  73.6883497  54.8916483   7.8361818  62.0137787  68.3621502
   8.3555528  61.3036156  68.7391853   7.8968450  61.8788815  67.4164486
  59.6638346  73.2518530  62.6847124  58.9741707  73.7213850  62.2155237
  60.4659986  73.7284994  62.4712276  15.1035806  78.4626913  46.8476343
  14.2587110  78.8061333  47.1382570  15.7411691  78.8638735  47.4382019
  20.7974996  69.5720409  12.3132427  21.6756334  69.9184345  12.1547421
  20.2351322  70.0609254  11.7124375  53.8851452  62.2964048  46.5814972
  53.9974546  62.0034361  47.4858141  54.3312883  61.6314030  46.0571337
  82.7079742   8.8829705   9.9503392  82.9756372   8.1320950   9.4204593
  82.3461120   9.5048234   9.3190044  56.6010666  49.0838623  69.1818571
  55.8224058  49.6245670  69.0493631  57.1921921  49.3374205  68.4729767
  83.5433309   3.9580438  71.0785007  84.0086429   4.0500066  71.9099188
  82.6374786   3.7775704  71.3296890  78.8722055   6.6627786  54.7951841
  77.9691761   6.8956086  55.0109816  78.8862722   6.6188142  53.8390970
  49.5369434  80.7847691  31.5780544  49.1407490  81.6555977  31.6082668
  48.8154078  80.1864910  31.7721725  29.0540702  28.5847469   2.8025969
  28.3088501  27.9873987   2.7389153  28.6983259  29.3674989   3.2232912
   4.6296444  14.1598222  46.4183569   4.7665920  15.0106236  46.0016918
   5.4198446  14.0185067  46.9397449  86.2078571  60.1541090  50.9543324
  86.1728096  61.0811329  51.1901760  85.3491211  59.9713421  50.5730247
  47.4656200  25.4751444  44.9157572  48.3718491  25.2562404  45.1327085
  47.4529791  25.5227041  43.9598227  10.2518692  20.0853059  14.8522997
  10.1040497  20.1545522  15.7954788  10.9852304  20.6760690  14.6807897
   4.7817156  61.0037565  53.6791801   4.2230436  60.2428818  53.8378906
   5.6209871  60.7717371  54.0766859  43.5805662  15.7153555  30.3527458
  44.3861063  15.3653618  29.9721630  43.3366306  15.0785442  31.0244568
  50.8713586  17.8069301  20.9035977  50.1342828  17.2814174  20.5924900
  50.7944257  18.6333605  20.4267986   6.5637865   4.2299840  30.7779527
   6.0825815   5.0115010  31.0498047   6.2423601   4.0457246  29.8953652
  67.0803547  64.2037010  53.2063580  67.9075766  63.7935162  53.4587288
  67.3087978  65.1170492  53.0336237  57.4480963  54.9624920  37.9383945
  57.6042318  55.1165867  37.0066738  57.6094675  54.0264368  38.0566835
  70.9177065  62.3305845  49.3390274  70.0609016  62.2908688  49.7639322
  71.0691118  61.4403439  49.0215683  69.1787243  83.0553913  61.6039038
  69.1354322  82.3289108  60.9821510  70.0532484  82.9904652  61.9876099
   4.7394869  76.9145679  65.0237226   4.2064115  77.6074886  65.4135036
   5.5732176  76.9619274  65.4915714  53.4956217  47.0407391  46.1764288
  53.4692097  47.9374647  45.8426380  53.7492609  46.5111589  45.4204893
  40.0715168  11.8512913   0.9468182  39.4553287  12.3810096   1.4527281
  40.9211261  12.2673031   1.0928782  50.7420492  49.1134739   2.5187653
  50.7115507  48.2795286   2.0498961  50.0320244  49.6292400   2.1365562
  65.5131721  74.4462967  47.8258133  64.6780109  74.7796440  47.4977684
  65.7789516  73.7902880  47.1814156  66.2248182  49.3497705  48.4992886
  66.8220472  50.0448799  48.7756348  66.6319752  48.5438299  48.8169622
  46.6283894  68.7389421  71.4256620  47.5152445  68.7878752  71.7824841
  46.5270948  69.5478249  70.9239817  55.5595303  64.2269754  69.4076347
  55.5085945  64.2917681  70.3612804  56.4906979  64.1004467  69.2255640
  76.5435028  72.8896952  50.9166956  76.6288042  71.9750547  51.1857462
  75.7347870  73.1874704  51.3332748  84.9284278  18.3138462  25.6729801
  85.6571756  18.7938257  25.2795609  84.8155795  17.5470873  25.1112183
  38.9059639  54.1973972  38.1324816  38.8594651  54.7453642  37.3490238
  39.0211248  54.8178387  38.8522196  49.2254210  21.4447880  52.2186804
  49.8604727  20.7795286  52.4839497  49.4695377  22.2225165  52.7204561
  73.2845068  64.4542742  40.5695677  72.6731157  64.7971344  39.9177384
  74.1475248  64.7184896  40.2507830  11.5450880  69.3953896  43.3083534
  11.7450163  68.4686852  43.1761312  12.3999616  69.8112965  43.4199381
   1.0341682   5.7756516  35.1224065   1.1675682   5.8965203  36.0625267
   0.8896246   4.8349854  35.0199914  69.3112946  73.0180788  68.6717129
  70.0965118  73.2653046  68.1832981  69.6401310  72.7257586  69.5217991
  57.3067243  34.4644638   8.2254227  57.1921308  35.3767009   7.9590996
  56.7513330  33.9679189   7.6244076  51.9985247  44.1267204   6.8759823
  51.7515039  44.5614386   7.6922101  52.5668287  44.7560549   6.4319098
  74.7274590  77.2240591  59.6473980  74.7228956  77.5135851  60.5597496
  75.6470776  77.0352507  59.4606256  51.8085098  51.0544348  52.9678249
  51.4647675  51.8305111  53.4102964  52.7455711  51.2266159  52.8756618
  31.1002452  23.0632587  15.5420311  30.5947454  23.8627668  15.3954704
  30.6097658  22.3820635  15.0819882   8.7139828  37.0126339  56.1186417
   9.2321308  36.2287517  55.9362133   8.9950235  37.6448246  55.4571446
  19.9177589  31.1750123  60.4496574  19.6390524  32.0897672  60.4918671
  19.3881979  30.7324311  61.1129236  24.6868951  20.5144783  32.5066860
  25.0442655  21.0433050  31.7933376  25.4043634  20.4457708  33.1365688
  38.1493163  77.0874166  47.1198797  38.6129832  76.2795401  46.8994761
  38.7765312  77.7840424  46.9261074  87.5034332  67.9530382  53.1780910
  87.9536819  67.7678871  54.0022373  86.9155598  67.2079468  53.0536890
   2.5397386   1.2602612  47.9332209   3.0695190   0.4745385  48.0681753
   2.2837963   1.5309236  48.8149643  65.8803034  73.9513063  64.6200752
  66.0092545  74.8411560  64.2917919  66.0021877  73.3927679  63.8523436
   3.5960981  82.9950333  64.6771955   3.3842584  83.3063412  63.7971687
   4.2094538  82.2740459  64.5350170  41.2357481  26.7368456   6.5480002
  41.7387826  25.9309574   6.6651543  40.3378160  26.4936014   6.7733439
  65.9846258  81.7852402  35.4298759  66.1632586  82.5386333  35.9926510
  65.2891207  82.0836258  34.8438144  83.8634872  49.0992022  43.8981915
  84.3387222  48.2740927  43.9960861  84.4052505  49.7432041  44.3542480
  27.4733853  56.0247946  49.8344231  27.5544930  56.0920620  50.7858038
  27.9163837  56.8048573  49.5005226  47.2628260  67.9119396  47.2749662
  47.2418356  67.2670221  47.9819822  47.5402355  67.4147987  46.5054655
  12.9987347  67.7447176  46.4040518  13.4167361  67.7702570  45.5433226
  13.3479095  66.9546747  46.8165350   3.0377790  73.8500452  68.1586123
   3.9828798  74.0006828  68.1408024   2.6815244  74.4904757  67.5428486
  68.5776234  73.5567951  28.4570050  68.0723858  73.5487413  29.2699647
  69.1056633  72.7593374  28.4952617  71.1146879  55.1034403  34.5873356
  71.8598604  54.7847557  34.0780282  71.3558817  54.9319887  35.4976439
  16.1514415  13.9970681  42.2722054  17.0316877  14.2779920  42.0222473
  15.5676880  14.5280549  41.7304373  77.0456982  72.5710869  57.5750256
  76.2582779  72.0461702  57.4312639  77.7198410  71.9327545  57.8080463
  61.7511082  64.6370554  45.0012016  62.0225763  63.9278793  45.5839586
  62.0282221  65.4355669  45.4504442  48.9245558  57.8565407  58.2604551
  48.9919043  58.6003780  58.8591242  48.1032610  58.0009270  57.7904987
  48.8619375  54.2062473  53.4285259  49.1706276  53.9412165  54.2949581
  49.6264315  54.6060085  53.0138350  38.9662814  73.2579470  70.1353884
  39.2549682  72.5921440  69.5112085  39.6926999  73.8800192  70.1751041
  59.3236311  11.2443395   1.2760981  59.7728879  12.0892997   1.2971028
  58.5752828  11.3853212   0.6961544  80.6396675  76.2364674  64.0492010
  81.2280178  75.7917643  63.4390259  80.6425762  77.1496248  63.7622118
   9.1826269  74.5182276  12.3690081   8.2339975  74.6172953  12.2882235
   9.5435259  75.1682186  11.7661023  82.8235149  75.3214836  21.9512510
  82.2951221  75.0115728  22.6867676  83.4536934  75.9240913  22.3461795
  31.0266073  39.0771909  26.0315426  31.2773759  38.2174249  25.6936749
  30.6827076  38.8995119  26.9069870  46.0280228  55.6182671  43.6876869
  45.1213121  55.8750534  43.8555288  46.2340355  54.9966097  44.3857813
  85.2021997  10.5302712  49.5174170  84.3082636  10.5450818  49.8593187
  85.5831926  11.3592240  49.8071098  54.6042340   8.4254643  64.6223307
  54.8672526   7.9589364  65.4156828  54.0124028   9.1108129  64.9325848
  67.1159744  73.8953114  42.5400496  66.6930389  74.6776295  42.8940773
  66.4403343  73.2185030  42.5809097  56.2351084  74.5144987  21.7458797
  55.4285288  74.5283890  21.2306428  56.5329599  75.4241705  21.7490888
  71.6914892  80.7688522  48.0714083  72.4066877  81.0087490  48.6606216
  71.6278219  81.5031052  47.4606371  84.8807812  42.3952055  47.4676752
  84.9248886  42.3159981  48.4205723  85.3443527  41.6238689  47.1415138
  44.3531847  65.6564569  56.2325144  44.6513748  64.8652458  56.6811800
  44.3968725  66.3411665  56.8999720  68.8318157  61.0653639  67.8554535
  68.0217457  60.5831051  68.0211210  69.4394827  60.7498121  68.5243320
  59.8777056  50.3094530  50.6752205  60.6803894  49.8429823  50.9083176
  59.2500162  49.6171904  50.4678297  57.1010637  51.2212324  54.5866823
  57.2698450  50.3037214  54.8009586  57.9707336  51.6155481  54.5201588
  24.5706708  25.6333156   3.6376007  24.1913803  24.7641607   3.5074671
  24.5610673  25.7592197   4.5864351  84.5761984  11.3033483  19.8651576
  84.4957416  11.4454171  18.9219832  85.1621073  10.5506322  19.9448752
  75.1136351  38.0490255  58.2965326  75.2720547  37.1442676  58.0271959
  75.0186920  38.0025887  59.2478800  62.2319794  50.2422285  53.1560516
  62.4361897  49.8062229  53.9833546  62.9313946  50.8863401  53.0457497
  32.5915360  76.9275427   3.7990746  32.2407842  77.3850107   4.5632252
  32.7361202  76.0311460   4.1020617  62.1583605  63.7069702  28.7920785
  62.2514915  63.3909321  29.6907878  62.0515871  64.6540213  28.8810778
   5.5463621  56.6362476  54.8038864   5.7845423  57.5633192  54.7974396
   4.9834463  56.5282440  54.0372753  36.4093025  21.3813825   7.7690561
  35.9624679  20.5356212   7.7335556  36.4241607  21.6827341   6.8606527
  49.5866585  56.9730377  33.2039380  50.2631521  56.8460941  32.5387526
  49.1985512  57.8219366  32.9918838  78.1617928  52.3481750  44.4104862
  78.8937616  51.8278551  44.7417164  78.3909130  53.2511425  44.6304512
  68.6709261  74.9924946  26.3027334  68.4436655  74.2695332  25.7180071
  68.6577415  74.6056890  27.1781969  77.9667662  29.2608209   5.1598938
  77.3591636  29.9783750   4.9805363  78.7170206  29.6815677   5.5798014
  81.8478584  74.7876358  40.4532814  80.9580040  75.0813913  40.2580833
  82.3465729  75.5961323  40.5709839  25.9784277  20.9983488  15.0854023
  25.1310785  20.6094499  15.3021820  26.3130434  21.3244529  15.9208210
  56.2729645  63.8099718  41.3839960  56.6295576  63.2862139  42.1014595
  55.6875944  63.2121801  40.9189987  69.8084688  72.6999569  17.9290485
  70.1027060  73.5166502  18.3323622  68.9147234  72.5822783  18.2509267
  58.7548780  68.3483982  36.1457682  58.7556076  67.4630547  36.5096354
  59.2324066  68.8721466  36.7891097  68.1729977   7.2623250  10.6066155
  69.0814441   7.2315785  10.9066415  67.7286022   6.5867707  11.1188364
  41.9387634  42.9532381   4.2677220  42.7971942  42.8547140   3.8558682
  42.0738609  43.6127420   4.9481972  51.5974808  58.7977362  28.9983177
  51.8544865  59.5192385  29.5724368  52.4194384  58.4931612  28.6138034
  79.5051401   8.7563607  31.3957024  80.4305141   8.7135598  31.1546874
  79.4506376   8.2775018  32.2227216  67.6844168  66.5592861  22.0948076
  66.9519424  67.1673298  21.9948554  67.3377657  65.8546162  22.6420784
  71.1055279  70.6498289  44.0358973  70.9208059  71.0797119  44.8709488
  71.9365978  71.0290432  43.7499762  37.7999980  23.8477607   5.6421908
  37.5545366  24.7722240   5.6789930  36.9661100  23.3779283   5.6529339
  37.4731357  56.6605230  25.7197483  37.3966415  55.9660383  25.0654801
  37.5806434  57.4617143  25.2071484  48.6558676  79.0685272  70.9941864
  49.1467285  78.3666849  71.4216185  48.8128424  78.9356422  70.0593424
  62.4416304  74.7472334  55.9349012  63.3263063  74.5850325  56.2624311
  62.5512600  75.4371166  55.2804708  12.4209425  77.9760790  35.3418064
  13.2218096  77.4695158  35.2067447  11.7387029  77.3165417  35.4674578
  19.7626503  34.3118139  10.7335957  19.7424848  33.3622928  10.6142910
  19.0998132  34.6434541  10.1278790  37.2318227  39.6184202  11.8332394
  38.1052978  39.2557092  11.9806107  36.7069061  38.8705202  11.5480431
  59.3790150  79.6552515  39.5317912  58.8204384  80.3864479  39.2680120
  60.2503777  80.0405788  39.6238685  43.2957704  24.8489662   7.2042282
  43.9084632  24.2845340   6.7327889  43.7391336  25.6959053   7.2527321
  52.4641323  63.2084846  18.6163771  52.4423122  63.8813066  19.2968643
  52.0463419  63.6195707  17.8596151  13.1553116   4.4144628  33.8698673
  13.3258047   5.3558156  33.9016414  14.0089073   4.0225408  33.6854720
  31.5622432  25.9629770  24.6961029  31.3204439  25.0397821  24.6220978
  31.1752374  26.3746067  23.9234265  49.2768526  57.5964212  53.5039759
  48.6461449  57.6371145  54.2228556  50.0776720  57.2606277  53.9066648
  43.4096479  65.1508617  46.3830042  43.4587193  64.3357563  46.8824291
  43.0617905  65.7913589  47.0034790  86.1318748  25.7888982  56.9664001
  87.0490044  25.5281445  56.8820763  86.0375755  26.5299890  56.3679647
   1.2454135  28.3755918  14.6217354   0.4563410  27.9028936  14.8865994
   1.6458304  28.6537452  15.4454620  56.1059434  44.9464460   4.6584376
  56.6222818  45.7474943   4.5692881  56.5559251  44.4459387   5.3390606
  84.8476124  67.3181534  58.1890202  85.1857853  67.6266718  59.0296698
  84.2012024  67.9766941  57.9346466   4.8346319  19.9128434  58.9039564
   5.4382219  20.5864331  59.2173243   4.5843544  19.4302365  59.6917915
  45.5100305  52.1988340   2.3380049  46.0544832  52.1249910   1.5541990
  44.9935920  52.9923292   2.1970137  18.3967073  57.1058985  10.1662834
  17.7120121  57.7139421   9.8875149  19.1290052  57.2827478   9.5757683
  78.2949152  17.1668145  45.8657169  77.6866331  16.5467927  46.2679529
  79.1034784  16.6678903  45.7494307  21.1420080  72.3817253  58.0734730
  21.8018266  72.3118591  57.3835564  20.7086107  71.5282774  58.0777121
  17.8086462   8.3002088  70.1081657  16.9606342   7.9002377  70.3008509
  18.1862344   7.7444264  69.4264364  14.5421304  20.2121636  58.6230946
  15.4959287  20.1899049  58.7005615  14.3797483  20.6549260  57.7901316
  78.6296034  74.9823666  57.3964977  78.7777758  75.0097036  56.4512300
  78.3249092  74.0908289  57.5654840  67.2040933  13.7570760  67.8095675
  67.3546212  13.0839917  67.1458387  66.5269368  14.3184945  67.4320745
  67.0473528  47.6984406  20.4380226  66.3846540  47.0377445  20.6393790
  66.5505934  48.5084200  20.3222680  49.0757711  52.6017900   8.7389000
  48.7194068  51.7821737   9.0816219  49.7215517  52.3283239   8.0874355
  39.0505035  34.4388386  29.6170529  39.6657188  33.8139959  29.2332466
  39.3987186  34.6112629  30.4918392  15.8385791   4.9244401  62.3452663
  15.5815067   4.0862462  62.7294207  15.0406732   5.4527375  62.3672247
   4.0410366  15.7003972  67.8360510   3.5329952  15.2179143  68.4882307
   3.4297075  15.8423325  67.1133041  25.1414575   3.4350106  61.1151981
  25.1693048   4.2005631  60.5412769  25.6363382   2.7645108  60.6442881
  79.1195965  61.2043333  18.1827593  79.5303535  60.6951666  18.8815165
  79.4149017  62.1019936  18.3351731   1.9473400  10.2446267  42.1422148
   1.7257061  10.8295247  42.8667879   1.1643018  10.2378938  41.5917253
   1.1180963  26.5728471  60.4181147   1.0177221  27.2777841  61.0578203
   0.2224674  26.3519952  60.1625729  24.8367204  56.3959882  57.2182226
  25.7307901  56.0574243  57.1707869  24.2942228  55.6204888  57.3614597
  26.4174373  40.6244512   1.4164026  26.1065872  40.2150293   0.6089504
  25.9855087  41.4784857   1.4335783  43.6147451  81.2346649  43.0791473
  43.1916380  80.5350685  43.5769272  43.6376667  81.9776154  43.6822414
  29.9551668  34.4840619  64.7479773  29.6636762  34.3883893  65.6546783
  30.9104433  34.5061871  64.8045683  54.6671963  52.8730202  62.2755384
  54.1063023  53.6135530  62.5062847  55.5581427  53.2146549  62.3512650
  80.3950088  27.2642705  25.6809425  80.7163446  27.2399232  24.7796202
  80.6073540  26.4004132  26.0343409  14.8864259  22.4880883   9.1933531
  15.1858844  23.3349034   9.5242095  14.0823307  22.6888272   8.7144315
  68.5770948  47.1811529  12.1828182  69.1841466  47.9211565  12.1726711
  69.0750654  46.4683290  12.5829991  62.1862650  74.2914343  67.4395609
  61.8970203  73.5151196  67.9190493  62.5641155  73.9463329  66.6306305
  75.8699863   7.7246472  62.3534727  75.9718483   6.7761895  62.4327898
  75.3326719   7.9716012  63.1061554  45.1191862  42.1305032  10.6825359
  45.9192998  41.7293306  11.0218151  44.8046787  41.5148302  10.0205143
   8.8421270  75.2624416  51.4460135   9.4746706  75.4512739  52.1391678
   8.7159273  74.3145561  51.4886570  32.8164377  20.7962510  67.4347639
  32.4737253  19.9586198  67.7464533  32.4772062  21.4401147  68.0565357
  85.6609917  52.5737047  61.3042641  86.3368034  52.8465891  60.6837463
  85.9496403  52.9296446  62.1446323  26.9416101  61.4367529   8.9533718
  27.6113946  62.0245691   9.3027886  26.4159877  61.1927744   9.7152241
  56.2522984  72.4378252  54.0541840  55.8573198  71.9848967  53.3091450
  55.8720589  73.3159208  54.0296698  11.0801353   7.6373097  45.4851532
  11.2652387   7.7288815  44.5504951  11.7537536   8.1639192  45.9154367
  64.9375296  52.0730686  30.7239723  65.5813742  52.6908350  30.3774762
  64.5865488  51.6333914  29.9495530  83.9166451  73.9579344  56.3183594
  84.2371845  74.8162985  56.5953016  84.2916584  73.8320303  55.4467249
  50.2759647  80.8625507  64.1131020  50.4940748  79.9329710  64.0457582
  51.0100412  81.3117790  63.6941004  58.5264237  38.4962035  71.7729516
  59.0508873  38.0179931  71.1307021  58.0284054  39.1272594  71.2533570
  25.3753352  71.7772818  46.6594410  25.2625155  72.0961189  47.5548983
  24.5089245  71.4571953  46.4082241  82.9292774  51.4484262  52.3386097
  82.1519089  50.8899212  52.3413372  82.9850960  51.7855930  53.2327223
  59.3799019  71.2642145  26.2579060  59.0190744  70.7893085  25.5092406
  58.6315393  71.3990307  26.8392944  73.9923303   5.6324861  59.7552443
  74.0432613   6.2084481  58.9924192  74.8597544   5.6885907  60.1560688
  80.4762936  81.6801739  44.7740459  80.4207325  82.2457981  45.5442429
  79.5785093  81.3801289  44.6319723  45.3759193  60.9955502  20.8438301
  45.4503775  61.1040640  19.8957205  44.6019745  60.4448032  20.9618211
  42.4764337   7.1648499  65.6206751  41.9121160   7.3977563  64.8834372
  43.3114423   7.5908944  65.4270887  46.1606503  57.4056578  67.7759314
  46.3098145  56.8135691  68.5130978  45.2303267  57.6245642  67.8289986
  44.3956175  15.3003976  61.5202808  44.3191137  14.7992036  62.3321867
  44.7280111  16.1544797  61.7964554  18.6629285   0.8172795  46.9550228
  17.8278675   0.3885171  47.1423054  18.6490001   0.9661290  46.0095692
  80.0632381  66.4115143  30.2963638  80.2501869  65.9136391  31.0922265
  79.6028614  67.1920300  30.6047177  12.8850467   8.8132473   8.7090405
  13.5281045   8.8909431   9.4137962  12.8294284   7.8730722   8.5381325
  39.5161684  39.9114557  15.1317413  39.8645265  39.0251775  15.2285965
  38.6001546  39.7831674  14.8853787  12.5328388  37.4125764  48.8903522
  13.2764711  38.0149552  48.9098549  12.8492441  36.6269395  49.3363333
  15.2875717  51.9867750   1.2273272  15.3367765  51.0430475   1.0750158
  15.0377758  52.3535581   0.3792151  46.4553142  11.8792861  20.2964600
  45.6867385  11.3392012  20.1125439  46.7126584  11.6348403  21.1854275
  53.1940038  50.7811781  19.2772205  54.0251596  50.5251165  19.6770294
  53.1580312  51.7313619  19.3871411  34.8190584  28.9152524  58.8886452
  35.5159177  28.6807248  58.2757759  34.9015035  28.2797238  59.5996618
  57.8580666  58.8099527  40.3383636  58.6313963  59.3728256  40.3753328
  57.2947884  59.2196608  39.6817851  56.4836884  25.3761292  59.1935921
  56.6132975  26.0657144  58.5425091  56.5101385  25.8326483  60.0344944
  48.9330721  52.7979231  34.4884396  48.5354710  52.7979088  33.6177230
  49.6247005  52.1382809  34.4359279  65.5328083  83.2341003  11.3645053
  64.8901606  82.7980804  11.9240808  65.9660482  82.5204468  10.8962810
  69.0394211  78.3304405  36.1411810  69.8156977  78.8201427  36.4128757
  69.0633154  77.5318813  36.6684055  21.5623369   4.3224236  45.7253265
  21.5522279   4.9768826  46.4237642  20.6742372   4.3390653  45.3686285
  10.2164562  63.8626524  12.5154217   9.5247657  64.0406748  13.1526764
  10.0581200  64.4887396  11.8088921  70.8414698  57.8128672  34.5524311
  71.1723328  57.8076744  35.4506159  70.6739759  56.8916559  34.3535590
  51.5768804  11.7388055  64.6178961  51.7394819  10.8720681  64.9901438
  51.2850465  12.2675225  65.3605461  49.0793753  79.5007277  51.3805389
  49.2864466  79.2426729  50.4823399  49.8236275  79.1906500  51.8964577
  76.9913309  36.7089745  62.5751638  77.3314588  37.2429177  61.8572187
  77.7046411  36.1057469  62.7837992  20.8630807  43.6498876  19.0615852
  21.5374048  43.8734194  18.4200581  21.3437135  43.2426306  19.7822579
  53.9097404  81.5825653  53.3877754  53.8197708  82.5002575  53.6446190
  54.6653080  81.2679100  53.8841105  19.5704975   1.5209386  67.9517984
  19.2998161   2.0757768  68.6833191  20.4724159   1.2756249  68.1581926
   7.0101204  22.1247384  38.7216496   7.6169195  22.8571698  38.8292384
   6.1439504  22.5097653  38.8548160  13.4810342  59.7568153   0.7212504
  14.2135276  59.9937199   0.1524265  12.8195610  59.4045435   0.1257761
  83.6562453  20.6588550  24.5499046  84.1480098  20.0312420  25.0795277
  84.3263565  21.2205215  24.1603954   6.3403692  20.1969239  44.6729231
   6.8762102  20.8605668  45.1073122   6.8024387  20.0138280  43.8548756
  58.5248518  53.3779573  40.2979565  59.1488266  53.9083767  39.8024297
  59.0713024  52.7886152  40.8178616  76.2271994  10.8036897  61.0568333
  76.5907925  11.6839597  60.9611559  76.3221853  10.6052587  61.9884062
  24.0420522   9.8310754  29.5967507  24.1421308   9.0145490  30.0861406
  23.4409990   9.6115109  28.8848734  85.5171793  29.5922563   7.2529781
  85.0708263  30.3429696   7.6446730  85.5691879  29.8040769   6.3209599
  15.6175937  18.4315106  32.3493123  16.5069046  18.7546060  32.4941063
  15.6616058  17.5014016  32.5711012  78.0241926  24.0836426   7.1302755
  78.2546670  24.7440429   7.7837141  77.4315603  24.5367523   6.5305145
  71.1380482  80.6172371  22.5405240  71.6883421  80.9267426  23.2599735
  70.2948666  81.0477924  22.6815677  71.3233423  78.0461693  66.0345697
  70.7882071  77.2526741  66.0495043  70.9614706  78.5922766  66.7324543
  72.1115358  25.5306478   4.3770083  71.7952688  25.0123115   3.6370524
  71.5537698  25.2679916   5.1092251  70.8064365  34.5750308  51.9016838
  70.6166697  33.9742875  52.6223278  69.9817228  34.6394610  51.4200926
  28.3248701   3.3187577  25.8248138  27.9281130   4.1780183  25.6817174
  29.1845407   3.5112378  26.1991930  77.6718586  11.1052224  53.2975674
  78.3641928  11.3796899  53.8988733  77.0390289  11.8231103  53.3172274
  78.2415645  26.2856481  49.1763210  77.9697388  25.6706902  49.8576164
  78.7397259  26.9561383  49.6437788  45.8715208  27.1572204   3.7689980
  45.7779892  26.3619562   3.2445534  44.9999054  27.3063656   4.1354283
  80.8534622  73.0617476  64.8880816  80.8284760  72.4854374  65.6519365
  80.2716064  73.7868309  65.1159763  33.5865450  77.1450281  58.0768013
  32.7312827  77.4960470  58.3248806  33.4988594  76.9354057  57.1469593
  54.5200491  68.9073133  51.3361931  54.7710228  68.6183548  50.4588461
  54.6271276  69.8582697  51.3149309  78.9833610  17.3431203  34.5341659
  78.2722538  17.7614304  34.0488076  79.3603437  18.0475518  35.0613213
  15.4869373  58.8387628  17.0234783  16.0595758  58.0726095  17.0598229
  14.9055393  58.7392088  17.7773388  21.7355354  31.0505338  11.3492306
  20.7839925  31.0929914  11.2544068  21.9440944  31.7378946  11.9818981
  68.5671854  39.2185330  44.1253233  69.3681145  38.7869000  44.4227028
  68.6093473  39.1699362  43.1702852  78.2262094  75.1775213  10.6137951
  77.8592641  75.5874582  11.3970860  77.6152093  74.4710203  10.4046162
  74.1326826  20.0399491  70.9229183  73.8087767  20.2267072  70.0417566
  74.4372003  20.8862302  71.2505150  39.6933832  72.7396582  15.5231579
  39.8101988  71.8227719  15.2743443  40.0262537  73.2351660  14.7748955
  86.7926805  36.7072675  50.1296329  87.6106422  36.9423005  49.6915340
  86.9829910  35.8745095  50.5615139  10.5749342  57.2429180  52.2091579
  10.9396478  57.1283388  51.3316154  11.2547704  57.7134132  52.6915264
  56.1125429  23.0307050   0.3845747  55.3993757  23.4698959   0.8479651
  56.6665800  23.7436434   0.0667961  60.4237230  18.1922193  17.2680481
  60.5274065  18.6541267  18.0999859  61.1919172  17.6238914  17.2122868
  76.2390345   5.0586411  50.9497833  76.9999187   5.6311509  51.0473204
  75.5079811   5.6564233  50.7934237  50.2803421  62.4769592  56.6231489
  50.8031321  62.5194168  57.4238491  50.2823782  61.5499496  56.3846493
  33.4492786  13.1952997  31.9794853  32.8654153  13.2515379  31.2230690
  33.9105279  12.3644396  31.8647774  24.5895281   4.7848699  64.2229414
  25.1866426   4.0532586  64.3792343  24.8425951   5.1211163  63.3632135
  86.9179821  33.8663650  13.9622140  86.5533447  34.5068192  13.3514059
  87.3425674  33.2162762  13.4024429   1.4849874  23.1804204  10.0501013
   1.7610285  24.0936947  10.1273000   0.8279535  23.0698895  10.7373559
  75.7464092  56.6401002  62.8620100  76.4695423  57.1464536  63.2320404
  74.9752157  56.9346425  63.3465099  71.4711952  66.1181068  18.3276975
  70.8259296  66.7374277  17.9866612  72.2961760  66.6034842  18.3204579
  60.0855303  69.2278337  67.7457380  59.9265718  69.9363708  67.1220875
  60.9758043  69.3821096  68.0617142  23.5256120  79.5299387  45.7177401
  24.4075987  79.3513632  46.0440016  23.3563062  80.4377460  45.9696245
  59.3202257  74.4920015  32.5020313  59.8761082  73.8092804  32.1263766
  59.2291832  74.2470121  33.4228587  67.1451569  59.8140383  36.4760709
  66.3555908  59.8531103  37.0157862  67.5798512  59.0050125  36.7457891
   6.0735407  14.3186089  39.3687391   5.7878580  13.6915395  40.0331163
   6.9258585  13.9913079  39.0812373   0.6942215  33.7353608  44.7558594
   0.7806768  34.2502496  43.9535856   1.3786401  34.0742490  45.3328800
  44.9971015  45.3556581  16.7042549  45.9387453  45.2431055  16.8341168
  44.8384149  45.0390192  15.8149918  59.6179104  81.7554760  51.0777664
  58.8065290  82.2186279  50.8694983  60.0613832  81.6584396  50.2350664
  23.2227047  35.0897403  -0.1382343  23.4195001  34.3839594   0.4777010
  23.7041004  35.8445068   0.2006062  41.5933044  11.8712564   9.1050823
  42.1462877  12.4991365   8.6400993  40.7779367  12.3452707   9.2685421
  19.2182913  33.6029717  63.6939192  20.0698318  33.4708878  64.1106415
  19.0304079  34.5327184  63.8223839  18.3271827  44.1608903  70.5266333
  17.7420845  43.4803388  70.8594179  19.0428486  44.1929147  71.1614799
  61.8427618  29.1793485   9.6505840  62.7422388  28.8943001   9.4895657
  61.9311197  29.9324365  10.2347859   4.8792002  47.0450449  44.6131086
   5.2492639  47.4657249  45.3891945   4.6199343  47.7721930  44.0471792
   4.8656025  18.1230161  54.4378376   5.0646963  18.9935586  54.0932417
   4.4789447  18.2884500  55.2976942  42.0628650  26.7336698   2.5950869
  42.4858434  26.8775602   3.4416206  41.3372285  26.1399027   2.7877672
  81.2592697  45.2707005  54.1609955  82.1443653  45.3155422  53.7993050
  80.7094765  45.0205231  53.4184504  39.9720812  67.7533197  63.3498526
  40.4447174  67.9744911  62.5473976  40.3313065  68.3456707  64.0103912
  54.7636659  51.2164922   2.6556070  54.1829355  51.1488767   1.8977030
  55.1260717  52.1007772   2.6015194  12.9907162  61.6562799  42.1456003
  12.6209337  61.1352280  42.8583384  13.2868750  62.4629334  42.5673056
  37.2430754   9.9884313  61.1559343  36.3342619  10.2383947  60.9891701
  37.2000146   9.0559274  61.3676262  23.9004070  48.0689195  31.3563514
  23.3526690  47.6958778  30.6656575  24.7782881  48.0987170  30.9760022
  43.8261741  55.8806263   7.2512777  44.1044705  56.3831531   6.4856108
  43.6020189  55.0177192   6.9028862  12.9752094  73.6799785  31.8998098
  13.3437283  72.7965930  31.8922448  12.3013718  73.6642232  31.2201595
  20.5927014  49.8757935  51.2433338  20.3470159  49.1755056  51.8478727
  19.9337029  50.5556536  51.3838196   2.3814315  29.9581027  66.0283232
   3.3018094  30.0739050  66.2643862   1.8967344  30.3521276  66.7536116
  31.1372447  12.6138973  45.7314587  30.9270191  12.3949707  44.8236561
  31.6953373  13.3889580  45.6678486  17.7890027  13.7817895  61.0094070
  17.5301981  13.4526265  60.1486492  18.4336305  13.1481075  61.3242626
  27.1898484  11.8854153  24.1527653  26.8653011  12.7775216  24.0300941
  27.2564006  11.7831886  25.1021624  58.2799427  25.1407949  70.2215278
  57.4931948  24.8650638  69.7511725  57.9571693  25.7297174  70.9035987
  19.5954657   2.8223005  19.2422926  19.2361712   3.5057408  19.8080206
  19.7690880   3.2655346  18.4118533  12.4340177  36.2150168  38.8490963
  12.2029483  36.8396068  38.1615448  11.5957546  35.9671903  39.2391300
  11.9026167  75.5272183  68.5156584  12.1382792  74.9207613  69.2177296
  12.5050146  76.2633404  68.6227751   3.0042894  75.4009917   5.2680665
   3.7256963  74.8871961   4.9049985   2.7265651  74.9105498   6.0417390
  31.7750771  69.5326379  41.2098694  31.2625868  69.4890407  42.0171356
  32.6801188  69.6306136  41.5057278  24.8951292  10.8387017  63.4959126
  24.6830511  11.2874091  64.3143988  25.5811691  10.2155435  63.7351942
  38.5188246  12.2306645  23.6603260  38.3579469  12.8506529  22.9490137
  38.0514145  12.5994825  24.4098139  81.3512802  12.5431907  56.1300039
  80.4448223  12.2394180  56.0821962  81.3148689  13.3183730  56.6903591
  64.0533254  76.8210849  67.7559853  63.8922952  76.0595170  67.1989250
  64.2316041  76.4517787  68.6208916  11.6901285  64.2631271  49.5983744
  11.6605932  63.5533455  50.2399111  10.8928139  64.1513672  49.0806580
  41.3665533  14.2159665  37.2756982  41.3561296  13.6430967  38.0424738
  41.2385082  13.6251509  36.5335584  72.8805755  44.3041709  53.2267857
  73.1442688  44.5105317  54.1235065  73.3809445  44.9132970  52.6838017
  41.0879421   8.8788074  46.0219479  40.6231689   9.7155219  46.0105944
  41.4123869   8.7728918  45.1276636  15.7551272  69.0970865  70.8173323
  16.0227425  68.2334509  70.5030918  16.1629088  69.1750863  71.6798067
  43.9120722  22.3391128  50.8131838  43.9940453  23.2661366  51.0370970
  43.0997849  22.2852492  50.3096724   3.1935031  81.7259931  47.5318718
   3.1796558  81.1432357  48.2911015   4.0856249  82.0723382  47.5120163
  40.2439785  20.8272266  42.9468441  40.7293224  21.1653256  42.1942759
  40.7071686  21.1777163  43.7076616  21.3448238   0.0266454  47.0800877
  21.9049931   0.8028067  47.0763397  20.4625082   0.3687468  47.2240305
  20.4802067  60.7234695  51.7744637  19.5299751  60.6388166  51.6962051
  20.8178455  59.8592618  51.5391397  57.2911494  65.6981849   6.9139012
  56.4543145  65.5688142   6.4675816  57.0846932  65.5993151   7.8433283
  86.5739260  44.2927602  45.6684065  87.3446689  44.1058591  46.2043667
  85.8934460  43.7179282  46.0187674  44.9424934  18.5881674  25.8149171
  45.3244829  18.9151120  25.0004101  45.6956482  18.4108818  26.3784409
  30.1758154  67.3811792   0.3337725  30.3431097  66.7845820   1.0633715
  31.0329764  67.7542709   0.1280792  52.4579863  76.6573635  17.0232677
  51.8746302  76.2776604  16.3661885  52.3478679  76.0987678  17.7927327
  43.0737906  28.0115353   9.7676380  43.5078483  28.7012063  10.2698143
  42.9943340  27.2818028  10.3819760  35.3361797  13.8678777  40.1842976
  34.9979234  14.6662140  39.7787428  36.0615706  14.1666555  40.7327223
  67.7284479  10.7276452  43.2602549  67.6824951   9.9270266  42.7376366
  68.4222937  10.5581963  43.8975096  16.5428984   3.4011951  58.8045216
  16.2379825   3.9097577  58.0531073  17.3724592   3.8107258  59.0501738
  87.2847281  71.6083446  27.0127487  87.4848781  70.6956938  27.2206926
  86.8154607  71.5667835  26.1795068  63.1021908  13.5481656  59.5649576
  63.4214619  12.7081680  59.8946619  63.5006860  13.6325681  58.6987543
  16.1761212  43.0422258  15.0891256  15.5634463  42.3178244  15.2160096
  17.0024002  42.6190233  14.8559046  14.4966245  12.2404742  37.3159456
  14.7818995  12.4317873  38.2093954  13.9676189  11.4469850  37.3981643
  68.4548966  72.9509571  58.3399105  68.6298344  72.5051919  57.5111008
  69.3221925  73.1324211  58.7019873  24.5469284  16.4494264  11.0567009
  24.1147494  16.8598127  10.3076780  24.6875644  17.1667659  11.6746628
  16.1756229  32.9061961  22.2788334  16.8509781  32.5506234  21.7011714
  16.4089394  32.5813174  23.1484604  16.0239089  36.2228084  21.4972162
  15.9416080  37.1549511  21.2957954  16.0561907  36.1862731  22.4531722
  68.0479125  58.5777000  47.3114204  67.1196739  58.7637451  47.1700335
  68.3058534  59.1694787  48.0181742  72.6832598  19.1882108  -0.0385944
  72.5582331  19.1962456   0.9103735  72.5098484  18.2825469  -0.2953617
  39.2938645  46.9563225  31.6814303  38.5907681  46.5949419  32.2211432
  39.7761376  47.5347665  32.2722340  22.8154469  14.6057224  26.3036990
  23.2455015  13.7646401  26.4581847  21.8848586  14.4274247  26.4395118
  70.1925228  43.6437777  43.5365868  70.5202804  42.7639201  43.3504248
  70.5103431  43.8360789  44.4187689  27.4836397  35.3511524  51.5048313
  26.7829919  35.6183028  50.9098911  28.2109809  35.1168203  50.9283829
  27.2978623  50.3566340  64.5829105  27.9921896  50.3873923  63.9247322
  27.5067789  49.5894006  65.1157713  15.1115024   6.7364413  37.8567123
  15.6738973   6.9790065  38.5923123  15.2588272   7.4228674  37.2060609
  13.3089054  22.9394341  55.2219439  12.6777446  23.5729861  55.5632353
  14.1021562  23.0910397  55.7357502   8.6345446  18.5200644  35.5698228
   7.8689486  18.0598617  35.9137821   9.0565002  17.8843164  34.9918890
   2.3349983  65.7160726  50.3701162   2.1839244  66.1024347  51.2327480
   2.0685846  64.8018315  50.4671669   4.1373355  76.4353129  55.6017590
   4.7115762  76.1825076  56.3246489   3.5433585  77.0821109  55.9826469
  53.1154776  12.2390401  56.7254829  53.5581398  12.4524069  55.9040451
  53.7440014  11.6971803  57.2025347  70.8594802  31.2388158  26.1502695
  70.6419221  32.1267033  26.4340949  70.4176274  31.1420012  25.3066897
  78.8442438  75.8041452  27.1873577  78.9566915  74.8943971  27.4629410
  79.0069740  75.7905554  26.2441929  23.2799530   2.0737097  62.2510290
  23.9225864   2.6430547  61.8278265  23.8056231   1.4502278  62.7522039
  36.2649441   4.3112206  38.5624218  36.9783783   3.6747774  38.6091614
  35.7618546   4.1663447  39.3637609  75.1458111  48.1014013  19.0149093
  75.5064026  48.4787703  19.8172808  75.9097567  47.7752829  18.5392356
  46.4378677  62.8933814  53.3178139  45.9857951  62.8034547  54.1567278
  45.7440935  62.8183153  52.6626205  15.6663782  80.4307151  58.4703255
  15.6149847  79.5163953  58.1917381  15.2064259  80.9160124  57.7853680
  39.4860125  25.4879618  22.2415185  39.4700980  25.4031181  21.2882185
  38.5962796  25.2666879  22.5165582   3.7822068   0.7612181  35.9259892
   3.0770707   0.1233041  35.8160782   4.3050843   0.4178022  36.6504860
  53.1927698  47.3947476  16.3357170  53.2558792  47.2180276  17.2743424
  53.2870191  48.3445894  16.2639626  32.9017925  20.2175426   8.7387395
  31.9647980  20.0419092   8.6525875  33.0710340  20.1587534   9.6790230
  53.3017635  27.1494865  65.3412628  52.9841423  27.3648548  64.4643593
  52.8501129  27.7659082  65.9176922  56.2293720  14.4041324  51.4925814
  55.6547260  13.6797392  51.2450552  56.1600590  15.0237727  50.7663107
  68.6608384  63.3820000  57.1346855  69.6116469  63.4545138  57.0513916
  68.3547936  64.2877164  57.1820831  63.7063626   5.2808517  38.9448214
  64.4680861   5.7634026  38.6236405  63.5777381   4.5819601  38.3035421
  38.0918884   5.0521517  55.5854177  37.5589609   4.4646683  56.1212158
  38.7438846   5.4038090  56.1916113  24.1712976  14.2687285  62.3423576
  24.2676067  15.0929034  61.8651867  25.0409842  14.0983689  62.7040958
  47.4818993  15.2636397  56.6757154  47.9539871  15.7590234  56.0064173
  47.6687098  14.3472672  56.4717627  49.9937258  65.5616596  47.6886320
  50.5533866  64.9373749  47.2268057  49.5361088  65.0342908  48.3433819
  15.9132254   0.6281206  36.9511747  15.5731559  -0.0856489  36.4116216
  15.2503681   1.3154490  36.8846107  78.8572454  26.9588733  29.3780398
  78.1494379  26.5424466  28.8862801  79.6391678  26.4601898  29.1410875
  65.3478114  57.5188377  34.7841406  64.9664907  57.3666409  35.6488132
  64.9609093  58.3448031  34.4937587  29.6792364  38.3144474  28.2311010
  30.1292801  37.4933553  28.0323553  29.0849495  38.0942965  28.9484501
  62.6943893  77.2839275  54.5183563  62.7207998  77.9098627  55.2420568
  62.4664352  77.8119442  53.7531996  23.2815099  19.7345340  54.0841436
  22.6966047  19.0884614  54.4800043  22.6970243  20.4192042  53.7588215
  65.5160735  65.0061920  27.0284605  64.5605771  65.0093761  26.9714665
  65.7264284  64.1881195  27.4787283  53.4009743  21.6449499  50.0470924
  52.8279972  21.2113905  49.4146681  54.1256571  21.0324025  50.1729727
  21.8335962  14.4755995  21.5591407  22.5267959  14.2016876  22.1597052
  22.2881532  14.9740779  20.8800769  24.0159828  66.2808326  44.7977638
  23.1169254  66.0069540  44.6163416  23.9229948  67.0886055  45.3028297
  88.3028776  12.9575825  34.6626520  87.4582545  13.3982754  34.7555637
  88.1905817  12.1253014  35.1219249  75.6444345  71.9470563  25.2916813
  76.4027713  72.1839490  24.7577906  75.3679560  72.7705339  25.6937718
  77.2178285  16.8885707  15.4745873  76.9626110  17.3408889  16.2786396
  77.9509371  16.3312410  15.7356747  10.3782034  33.3394051  51.6494513
  10.9117937  32.7068114  52.1304274   9.5553011  32.8801489  51.4816856
  37.3087631  19.1438560  69.6267791  36.8773787  19.5259313  68.8624768
  36.5901642  18.8261513  70.1735072  81.8918834  59.1591456  59.1163111
  81.1129532  59.4099048  58.6197090  81.5575466  58.9161375  59.9796772
  15.4306102  20.6254148  45.0259781  15.5680358  19.9058890  45.6421185
  14.7734857  20.2942991  44.4137812  84.5056091  72.9511037  22.3368359
  84.5398603  72.7881649  21.3942266  83.8998614  73.6862490  22.4309683
   3.6646938  16.3014042  41.4951897   4.4695753  16.4409387  41.9941139
   3.1551763  17.0996809  41.6343927  10.3242183  39.5146823  51.5081120
   9.5523190  39.6472120  50.9578037  10.6489456  40.3981686  51.6819954
  38.5990429  15.7759750  43.8720083  37.9728341  16.4921165  43.9779949
  38.8388777  15.8026457  42.9457235  55.8976889   2.1885848  28.8780141
  56.4938450   2.9331684  28.7978745  56.4714050   1.4224403  28.8883305
  18.7003362  11.2817109  49.6599436  18.0472112  10.5992293  49.5054197
  19.2140603  10.9584272  50.4000854  21.5169787  15.4735065  48.3577061
  21.3197756  15.2803564  49.2742443  21.1949849  16.3652825  48.2262230
  39.0511894  22.5946760  65.2189636  38.3317876  22.0940351  64.8341894
  38.6245036  23.1985712  65.8268166  24.4150782  18.5981762  35.8867550
  23.8771033  19.3844485  35.7940722  25.2800202  18.8613367  35.5723524
   4.3376643  50.4158881  34.7456574   4.7167952  50.7785657  33.9450598
   3.9904911  51.1762598  35.2120662   3.6063559  76.5883318  19.0794909
   4.1875083  77.0528045  19.6817875   2.7315457  76.9133815  19.2922783
  51.8267839  28.7819032  67.2132383  52.3315875  29.0047185  67.9953889
  51.0203760  28.3926312  67.5514753  83.4366951  67.0075050   1.7002174
  83.0852709  66.1252847   1.8202969  82.6643143  67.5568393   1.5664661
  10.7066464  20.3558755  37.2833562   9.9326533  19.8152053  37.1257448
  10.4436755  20.9519315  37.9846358  68.9733992  69.2460146  59.0147638
  69.7261653  68.8299575  59.4348478  68.3772037  69.4467810  59.7362041
  28.7942028  57.8917408  14.2280102  29.6188664  57.4076366  14.2704451
  28.6328363  58.0083656  13.2917440  39.3498192  64.4290295  18.2955527
  39.0561686  64.1742697  17.4208534  40.2983449  64.3019155  18.2762408
   6.8748171  70.1858452  43.6274052   6.2146933  69.4931248  43.6027861
   7.5230057  69.9223259  42.9742241  18.6843383  26.4462709  21.0725713
  17.8397119  26.4790750  21.5217495  18.9173210  27.3641682  20.9332323
  52.9142141  40.6946182  71.7155886  53.4831095  40.0641489  72.1572828
  52.8422308  40.3655863  70.8196020   7.4097998  79.2247894  43.8820648
   8.1643254  79.5311540  44.3851185   7.7430493  78.4817490  43.3790112
  62.2517438  77.2698435  50.6490040  61.7801521  76.9509086  51.4184904
  63.1682057  77.0562056  50.8241844   8.5153205  70.2363375  33.9376163
   9.0790469  70.4050162  33.1826401   8.4191353  71.0898271  34.3601513
  12.3934507   8.8663059  53.9862537  11.5820432   8.5125554  54.3505526
  12.2824144   9.8159540  54.0317726  40.3524620  64.4267753  72.1701050
  40.7783157  64.4998041  71.3159704  39.8998959  65.2624586  72.2843266
  30.8985734   1.0651759  62.8894901  30.2303076   1.5863925  62.4445295
  30.7384253   0.1685914  62.5950050  39.3578458   5.6546664  27.3415828
  39.4615889   6.6060913  27.3576736  38.4942865   5.5013794  27.7249908
  55.7140160   7.2252631  58.4964705  55.3710556   6.3345313  58.4243155
  56.3239479   7.3071963  57.7633286  23.4662724  26.8396902  20.7908893
  23.9714289  26.1446524  21.2127542  22.5824070  26.4804053  20.7138872
   3.8090546  60.9867790  60.1780510   3.2115490  61.6956428  59.9398661
   3.3586509  60.5202940  60.8821535   1.5622135  49.7318792  44.5591497
   1.2755811  50.2756786  43.8254213   2.5140238  49.8322010  44.5741367
  13.1297243  22.8031826  30.1781130  12.2027063  22.9228854  29.9718595
  13.1508398  22.0351696  30.7490277   8.5376167  30.9915042  41.6287851
   8.7258607  31.1656141  40.7065678   7.6655233  31.3603163  41.7689991
  22.8629048  64.5140973  38.1947613  23.5456259  63.9727381  37.7984595
  23.2193358  64.7627607  39.0476131  63.9814101  57.1997812  13.3764160
  64.1373871  56.8440011  12.5015879  64.7442774  57.7511862  13.5502458
   9.2720801  81.6940656  39.7749352   9.4692428  82.3977232  39.1566920
  10.0378687  81.6572158  40.3480339  18.6197502  56.4517644  24.3874717
  18.0347759  56.4108923  23.6309218  19.4868595  56.6041711  24.0118122
  19.0606577  63.8740686  35.5530190  18.9569313  62.9744103  35.2430391
  19.7221691  64.2522409  34.9736953  86.9580098  19.7541034  60.0644064
  87.2250357  20.3788972  59.3901920  86.0936356  20.0568557  60.3426647
  24.1569066  32.5586414   1.4025611  24.8369956  31.8898916   1.3220394
  23.8151646  32.4471092   2.2896948  55.3643227  19.7074819  51.7367601
  55.6360722  19.3776941  50.8802414  56.1848688  19.8734784  52.2008467
  77.3692236  56.1561802  55.0998306  77.2832225  56.6719344  55.9015989
  76.6501139  56.4561155  54.5438147  44.1604064  69.3086424  30.7608604
  44.4837902  70.1929095  30.5884433  44.2516373  68.8528588  29.9240994
  56.0318918  80.7968105  21.8566751  56.7292804  81.4254594  21.6704440
  55.9484486  80.2861348  21.0513926  15.6273634  52.3071912  17.3581529
  15.3621275  52.9447845  16.6953135  16.5418512  52.5207165  17.5434935
  84.7661167  47.6156902  35.5497670  84.2202187  48.1456709  34.9689507
  84.5922074  46.7127180  35.2840018  35.5693037  69.0051725  26.3013840
  36.1846764  69.1279402  25.5785584  35.2558596  68.1065527  26.1990833
  12.4010880  80.6608529  35.6044340  13.1883127  80.9940939  35.1737809
  12.3947746  79.7254488  35.4014277  17.3003483  20.6150293  38.4245276
  16.3520646  20.5819440  38.2984543  17.4214423  20.4879999  39.3655014
  66.4136271  54.8534229  46.9074965  66.1120091  54.8842862  47.8154135
  65.6305353  54.6349457  46.4022589  27.4729061  18.2287407  62.8790617
  27.7475929  18.9754701  62.3469210  28.2255483  17.6374269  62.8686285
  43.2560110   1.7238869  31.4833355  44.0134668   1.6220863  32.0596457
  43.1575155   2.6706207  31.3822174  25.6430244  33.9227438  45.9712505
  26.2253308  33.5379219  46.6262817  25.0160432  34.4364357  46.4804125
  35.4086900  31.2129116  13.4732008  34.7533679  30.6377149  13.0783188
  36.0951877  31.2846446  12.8100216  24.7833872  13.8048220  10.5979800
  24.7218060  14.7247732  10.8551371  25.3043771  13.8149333   9.7950494
  10.3705633  20.0854874  28.9655781  11.2914693  19.8292136  28.9156866
   9.9175459  19.2950332  29.2591572  13.3970959  80.9807973  56.6881180
  12.9675085  80.1313814  56.7889977  13.1899578  81.2491476  55.7929564
  10.7904226  61.1635211  70.7838488  11.6827042  61.5012172  70.7061768
  10.5489118  60.9173849  69.8909235  20.5780768  24.7934699   6.9739282
  21.4029408  24.3741107   7.2188157  20.0023246  24.6458173   7.7242213
  42.9557991  11.0785496  42.9891586  42.0870399  11.1787796  43.3783197
  43.1491280  11.9362473  42.6107264  46.3143206  23.2226253  62.5022173
  46.6828966  23.2567549  61.6194820  46.7053223  23.9703870  62.9541016
   7.9916990  27.8642488  51.9662142   7.0539021  27.9714823  52.1251774
   8.0506700  27.1085548  51.3816738  22.7605367  18.0053592  49.4031382
  21.8826103  17.9333889  49.0285778  23.2652092  18.4783316  48.7414455
  55.7174635  28.9512253  37.4909210  56.5682316  28.6572218  37.8164864
  55.1335144  28.8770628  38.2457280  37.2172880  29.7699809  66.2512589
  37.3458409  28.9973807  66.8015242  36.3944697  30.1495147  66.5597343
   2.9479879  43.3779621  47.0467186   2.9844490  43.6308622  47.9691839
   3.8620985  43.2353878  46.8011427  35.1864409  31.3874269  60.4522038
  34.8049521  32.2644329  60.4127598  34.9233460  30.9745765  59.6296644
  59.3132981  80.0116941  12.4754488  58.5398218  79.7943172  11.9551480
  60.0416503  79.6114615  12.0005298  33.2329631  18.6928678  56.5531874
  34.1300273  18.3638132  56.6100168  32.8164673  18.1399727  55.8920717
  57.7569723   7.8036600  22.8215671  56.9698572   8.3150315  23.0091333
  58.3436060   7.9893512  23.5547853  52.2731638   3.5601917  58.2173347
  51.5906477   3.7193894  57.5653648  52.2421932   2.6158845  58.3708143
   8.6637622  23.6176777  71.8977022   8.7831813  23.5496378  70.9504175
   8.9551586  22.7714896  72.2372341  38.4579825  31.8233418  23.8247848
  38.4003448  32.4052644  23.0669737  37.9969096  31.0297608  23.5529923
  61.6974967  30.5260443  24.2339428  61.9051736  29.6354972  24.5168408
  60.8149641  30.4617261  23.8689430   8.7344998   4.2430681  35.3649998
   8.3775544   4.9289459  35.9292650   8.8252306   4.6606687  34.5084906
  29.3857908  13.3545029   3.4768561  28.8543153  12.5753260   3.6400929
  29.9147296  13.1277108   2.7119884  10.8853924  25.7266474  32.9714513
  11.2250948  25.2464700  33.7266111  10.0495851  25.3035688  32.7748203
  71.1794281   3.9314359  25.3664207  70.5757809   4.2189479  26.0513878
  72.0496750   4.0932542  25.7307220  60.6455326  17.9171062  12.5541306
  61.3122320  18.5792077  12.7367949  60.0554371  18.3375955  11.9286668
  32.1913600  27.4307251  35.1604033  33.1028342  27.2449803  35.3861117
  32.0412278  28.3195519  35.4823971  37.8575325  13.1025469  44.7956467
  36.9026113  13.1425285  44.7431374  38.1485486  13.9762986  44.5346832
  27.7299380  22.5134730  55.7875490  28.1004572  21.6545844  55.9906626
  27.1705461  22.3590636  55.0263166  23.0748010  11.3821387  36.7617559
  22.4892521  12.1203816  36.5933514  23.2265449  11.4074588  37.7065134
  43.7655687   9.0588439  57.6716185  43.5602999   9.1461968  56.7407751
  44.6866417   8.7990344  57.6904154  42.3758650  20.4915142  53.5412979
  41.5152311  20.3040576  53.1666040  42.4830723  21.4366317  53.4340858
  51.9423914  22.6173139  54.9019670  51.7599916  22.9723430  55.7719755
  52.8931618  22.5083256  54.8822594  42.9805355  78.9719008   4.3015679
  42.3385685  78.4193133   3.8557490  43.6171477  79.1950749   3.6224898
  20.6658618  29.7629587  68.6992953  19.9773114  29.7320263  69.3635042
  21.2585859  30.4515080  69.0006439  34.5002818  27.2975039  39.2825603
  33.7859178  27.8980255  39.0697432  35.2063251  27.8651476  39.5916128
  65.8254474  41.5380992  12.4529274  66.1443513  42.2687878  12.9826744
  66.5748089  40.9464072  12.3851784  77.4811554   4.4717827  67.2415400
  77.1080780   5.0432646  66.5703821  77.4681711   4.9997193  68.0398798
  76.7838781  37.8017085  13.8724335  76.1163919  38.0795525  14.4997318
  77.3627775  38.5592543  13.7874230  31.0911274  31.6262746  57.9335499
  30.7812357  32.3474932  57.3857880  31.0990548  30.8680868  57.3493242
  17.4492419  32.0432019  66.5124655  17.0402503  32.9083180  66.5355062
  16.7737269  31.4684272  66.1525440  21.5930963  25.2221990  47.7846909
  21.8295598  24.5245099  47.1735048  22.2471738  25.9045982  47.6338768
   1.1123027  60.1316367   6.5894755   1.0580625  59.5098828   5.8637245
   0.7627048  59.6533083   7.3412855  44.3151045   2.4523088  15.5739367
  44.2532539   3.3943540  15.7319140  44.5267820   2.0793352  16.4296901
  72.4646473   3.8113219  60.8533907  71.5434074   4.0083095  60.6838703
  72.9412556   4.5492828  60.4732704  43.6602688  32.5141525  67.6812744
  44.2924643  32.3645949  68.3842659  44.0892649  32.1726370  66.8967009
  55.4405880  10.5167997  56.8864489  55.9760284  10.0209880  56.2670088
  56.0577106  11.1093855  57.3156738  47.8022926  73.1304525   5.3600987
  47.7166443  72.2814225   5.7937391  47.0864814  73.6555241   5.7180746
  24.4628429  39.1030622  39.8928070  23.7998390  39.7129631  39.5692706
  24.6767378  38.5579967  39.1355848  59.7826862  20.6944895  52.4279881
  59.3667603  20.2026916  53.1360626  59.2499495  20.5007339  51.6567039
  59.5484012  32.4450223  12.6131256  58.7757533  32.6738392  13.1297310
  60.0586217  33.2539641  12.5741394  20.7439756  10.4613888  42.4234676
  20.8535051   9.5993626  42.8248978  20.8925033  11.0794771  43.1391048
  78.8496671  73.2566366  27.2834659  78.4743462  73.0732861  26.4222169
  79.5622454  72.6239458  27.3738217  16.6952860  24.2293406  62.3157930
  16.0419786  23.6702418  62.7363014  16.2548220  24.5677662  61.5362501
  69.6915483   5.3424573  55.6780148  69.2253780   5.7130539  56.4273977
  70.2126884   4.6301600  56.0485220  42.0499897  13.9830017  41.3913918
  42.5321579  13.4650683  40.7468033  42.5659084  14.7832131  41.4900017
  15.6099296  16.1050832  50.1506853  15.6706941  16.1188233  51.1058569
  14.7095621  16.3710940  49.9641132  25.2909303   4.5032668  51.5209389
  26.0795689   4.0271458  51.7809200  24.7838116   4.5857945  52.3285580
  31.3463140  34.2086935  33.5783863  32.1851063  33.9599609  33.9667058
  30.9491754  34.7956562  34.2218065  33.2667899  34.8889899  38.6436129
  32.5211906  34.6654868  38.0865145  33.0733299  34.4699359  39.4821835
  22.5213242  24.1788149  50.9255552  21.6956162  24.6005440  50.6876755
  22.5577378  24.2447209  51.8797874  35.3590012  23.9760184  40.9265423
  35.9787560  23.2652903  40.7622290  34.5906734  23.5426855  41.2981987
  20.2739842  56.9482425  27.3202610  20.0296147  56.0728767  27.6206827
  19.4469053  57.3494580  27.0534229  44.8667431  10.7682085  60.3569555
  45.5294800  10.0842988  60.4532909  45.3481150  11.5217912  60.0154495
   4.3548143  22.4121189  40.8584356   4.0857208  21.6343498  40.3696632
   3.6268017  23.0246782  40.7535505   7.0683312  17.7820218  32.6567888
   7.1683300  16.9332266  33.0878091   6.6688645  17.5759196  31.8116951
  23.3301694   8.1105133  13.7185295  23.0718477   8.7605043  13.0650623
  23.8473375   7.4710174  13.2288178  72.9498676  41.4269876  60.4758072
  72.7549246  40.7696199  61.1437130  73.6387995  41.0299873  59.9428988
  30.4623270  15.4475617  29.9310231  29.9032450  15.1335561  29.2203474
  30.7972288  16.2881339  29.6187544   4.0286496  18.4855568  61.1059093
   4.0671396  19.2700517  61.6530085   4.3743360  17.7879858  61.6628027
  58.8340616  29.3801379  22.8890562  58.1330156  29.5427871  23.5201740
  58.7835646  30.1167369  22.2798729  12.0664484   2.5128080  64.0403108
  11.6852171   1.6355802  64.0773360  13.0117304   2.3644258  64.0659623
  73.8081966  76.3349482  39.0134454  74.0987966  76.5214112  38.1206870
  73.9165817  77.1643832  39.4787645  47.0482540  24.1515923  52.8792000
  46.5285110  24.8850870  53.2079601  46.6883850  23.3844686  53.3244562
  22.5637841  36.0747099  20.2567744  22.9153013  36.8038940  20.7676148
  22.4063897  35.3846908  20.9012365  85.7198201  74.2871430  68.2936239
  86.4542685  74.8947570  68.3809471  85.4079280  74.1581044  69.1893387
  47.3592520  29.6728277  27.3684692  48.1482744  29.5848489  27.9032016
  46.8329859  30.3296804  27.8243375  73.7951040  43.2597780  43.0243397
  73.5309982  42.3654890  42.8081751  74.6944046  43.3280659  42.7036715
  31.7374308  76.0437789  42.1832418  31.1518175  76.4856544  42.7980852
  32.5091583  76.6083744  42.1396399  23.4451866  46.0336065  48.3290482
  22.5732040  46.0001993  47.9356480  23.9061904  46.7097807  47.8325701
  70.9637735  74.2710963  35.1775336  70.6435166  75.1429507  35.4089165
  70.2562890  73.6799523  35.4349184  39.5235848  28.8487101  33.7406635
  39.7794342  28.0320024  34.1693377  40.3362846  29.1864371  33.3642387
  12.7446020  35.9607363  22.2021842  13.0978334  35.1827550  21.7706704
  12.5500023  35.6724405  23.0939507   7.6585382   9.8001873  27.9372835
   8.5162544  10.1805937  28.1266141   7.5637221   9.8835450  26.9884443
  88.0261050  62.4661091  19.3355191  88.1474290  62.5834277  18.3933151
  87.1437798  62.7956274  19.5062602  40.2619553   4.7733191  38.0367303
  39.6654344   5.0245696  37.3315549  39.7443914   4.1900381  38.5918379
  57.7771044  38.4290099  59.5932770  57.6051998  37.9774785  58.7669611
  58.7279034  38.3873916  59.6956635  18.4906530   6.8867230  38.3934903
  18.2717204   6.8398476  37.4628425  19.4382703   6.7550069  38.4235454
  37.6569891  24.7914648   0.9957583  36.8890190  24.9423552   1.5468356
  37.6476026  25.5145764   0.3686592  54.7651911  20.9009242  10.8257270
  55.2236366  21.4105272  11.4938319  55.0747395  20.0042987  10.9540808
  16.8078077  24.7608423  36.7337751  16.7199838  24.0721750  36.0747957
  16.3284457  24.4286084  37.4927664   0.3380181   4.1232038  32.3615289
   1.2553442   4.0904942  32.6329613   0.3090495   3.6114660  31.5531254
  20.8310158  76.0048476  54.1176081  20.6752092  75.0605097  54.1041374
  21.3794644  76.1680809  53.3502817  20.9178550   5.8655163   0.7535895
  21.2923391   6.6158624   1.2150868  21.5301044   5.1496979   0.9238585
  47.8590250  17.8714657  49.0110779  47.1576214  18.5191417  48.9419222
  47.4114943  17.0270598  48.9569759  15.9278519  81.6353692  62.7045870
  15.3775293  81.3005696  63.4125996  16.5118820  82.2623651  63.1312227
  20.0884223  48.3039141  22.6172972  19.8877931  49.2273617  22.7697158
  19.4959414  48.0433178  21.9121099  56.8013668  28.3440685  41.6295815
  56.8692970  27.5251007  42.1204042  56.7162752  29.0199542  42.3020172
  22.9844618  20.2594209  20.9524822  23.0980158  20.6508303  21.8185854
  22.6042747  20.9591627  20.4213977  34.9971937  61.4544367   0.9668596
  34.3803462  60.7534312   1.1773880  34.7926771  61.6896437   0.0618275
  79.3712364  63.6086228  56.7863989  79.6687064  63.3839706  55.9047651
  79.9446235  63.1086221  57.3673105  45.6692171  19.6642029  48.6524200
  44.8308372  19.4745386  48.2312584  45.9587240  20.4837179  48.2514095
  31.1524422  78.2611424  58.3879948  30.2178175  78.0676076  58.3154869
  31.1976082  79.0004912  58.9942551  31.0362077   3.9055711   4.1922545
  31.4489460   4.1180739   5.0293458  31.2750697   2.9925445   4.0323827
   5.0834932  30.5873393   0.7281454   5.8782901  31.0714971   0.5042656
   4.5345440  30.6536697  -0.0531904  15.4253292  18.2389808  40.0191736
  14.9227381  19.0511560  39.9558926  16.3098323  18.4827924  39.7463322
  29.6949506  10.8584499  23.6323810  28.8224792  11.2518287  23.6490464
  30.2872562  11.5804160  23.8425517  43.7659645   2.8723818  40.2086973
  44.3173409   2.6663706  40.9635353  44.3803692   3.1679299  39.5368409
   7.1113044   8.1974322  22.9366994   6.2643319   8.4339410  23.3147645
   7.3471165   8.9467835  22.3898029  29.8742962  14.9602175  23.2308626
  30.5864048  14.6915042  23.8113165  30.2049112  15.7448614  22.7935290
   7.4430258  79.5052579  39.2951560   7.9799587  80.2346596  39.6048474
   7.6503951  79.4338941  38.3634186  65.3918641  47.1497785  17.6602085
  65.3310626  48.0987476  17.7697094  65.2289336  46.7968123  18.5349091
  81.0834902  63.7276481  11.0922058  80.2536028  64.1806864  11.2414463
  80.9965294  63.3507322  10.2166470  19.8437149  79.4992393  60.4488945
  19.6603901  78.9436263  59.6913195  19.0200264  79.9578914  60.6144619
  69.5261049  39.0772939  62.4746847  69.1158056  39.9400973  62.4158573
  69.9148512  39.0560627  63.3491278  43.7616444  32.0735073  15.8020794
  44.5447922  32.6067710  15.9382439  43.4076500  31.9389892  16.6811836
  39.6898627  20.8838010  47.0234823  39.7105050  21.4006948  46.2181091
  40.0519609  20.0341368  46.7721081  76.4383827  66.4487770  20.2622867
  76.9006644  65.6978169  19.8900151  77.1256230  67.0931867  20.4316068
  60.1008313  62.6490353  21.7096623  59.8966186  62.0641159  22.4393185
  60.9292143  62.3183988  21.3622578  47.0918591  69.9398032  43.0013037
  47.0212490  70.1386896  43.9349461  47.7353460  70.5666783  42.6708746
  15.8013511  45.1671410  65.3440189  15.7467842  45.2315235  66.2974930
  16.1485803  46.0147810  65.0662136  28.4967804  43.7580490  30.6075883
  28.6443090  44.4745874  29.9903059  28.0761003  43.0749226  30.0854802
  28.8245940  20.9956837  17.1995640  29.2238164  21.4713526  16.4711463
  28.1987524  21.6147161  17.5755370  26.0146046  30.1170325  43.3633757
  26.4393663  30.8657479  43.7819862  26.7252994  29.6578670  42.9158163
  73.4317129  73.1922840   3.4939106  73.1126039  73.6677359   2.7268704
  73.8929479  73.8530611   4.0105017  54.4801283  26.4865565  41.3052225
  55.2327633  25.9288120  41.1085272  54.6705866  27.3118687  40.8593321
  61.5784591  65.9600090  20.2124413  62.4209493  65.6084274  19.9246414
  61.2665861  66.4743089  19.4678219  85.2847371  82.4313778  51.9927073
  86.2287603  82.5895926  51.9883919  85.0722299  82.2254839  51.0823870
  78.2438152  66.3538479  14.3696411  77.5502413  66.8766664  14.7719486
  78.3538883  65.6077670  14.9591168  85.4883688  51.3338845  14.2043884
  86.0917728  50.6964426  14.5862301  85.5509012  52.0969104  14.7789391
  86.4042554  82.6111276  28.8184881  87.0032177  83.1230934  28.2750130
  85.6851349  83.2119336  29.0137649  29.6411443  21.9815731  30.1246905
  30.5381942  22.2625279  29.9441409  29.3787074  22.4946404  30.8889699
   3.1973130  67.2113016  63.4101534   2.6289994  67.7936676  62.9060698
   3.9858515  67.7286938  63.5736895  32.9214907  58.0611229  18.5371864
  33.4645367  57.2802114  18.4299219  32.9530144  58.4938240  17.6839519
  46.7927456  22.9633355  65.3835201  46.3051558  23.7712598  65.5439806
  46.2355089  22.4614048  64.7887230  10.4826176  30.4951715  33.0286384
   9.9706984  30.7228422  32.2525334  11.0753012  29.8051167  32.7306724
  21.5197260  60.3507021  71.5585423  22.0524485  60.1041964  72.3146343
  21.1323053  59.5278862  71.2600327  54.7292764   4.0701624  13.2948216
  55.3530271   4.4826980  12.6973446  55.1221712   4.1753002  14.1613110
  62.2500412  74.3589787  62.7888290  62.5157421  73.8961105  63.5834281
  62.8720109  74.0671496  62.1223317  53.1941366  29.7282767  51.0189152
  53.4851122  28.8768220  50.6924343  52.5021315  29.5203280  51.6467047
  29.4545061  60.5980471  29.4163823  29.7231228  60.9373215  28.5625839
  29.2081530  59.6888974  29.2461276  37.8397489   7.9467517  54.7074270
  38.2436323   7.0947993  54.8726177  38.5522389   8.4875411  54.3666363
  72.3970461   5.1786000  28.6900210  73.3300066   5.0192887  28.5470676
  72.1129417   5.6543016  27.9094911  87.3550496  62.5560144  67.8474140
  88.2655320  62.6674393  67.5738478  87.2820292  63.0698398  68.6517048
  70.4752224  49.3029635   3.4060724  70.2047222  49.6399109   2.5519474
  70.2795523  48.3667849   3.3671387  51.7925835  15.9050679  59.1555834
  51.4885950  16.3854980  59.9256516  51.2482405  16.2317204  58.4391880
  78.0071276  12.9137348  20.2075585  78.1589334  11.9874691  20.3952225
  77.4948280  13.2282065  20.9524639   8.1267798  37.2414732  27.4554968
   8.1428188  38.1792760  27.6465487   7.4698192  37.1488023  26.7655349
  17.9153824  21.9066739  49.3013811  17.6031828  22.3580384  50.0856209
  17.1450496  21.4476109  48.9665937  38.9809799  26.2722421  17.4738622
  39.7991443  26.0003257  17.8896725  38.7380409  25.5326629  16.9168758
  37.4450088  28.5442328  53.6304331  37.9163551  28.9808655  52.9209137
  36.5206623  28.6566424  53.4086704  75.7908314  21.9475483   2.4670370
  75.1244610  22.6304625   2.3907955  75.5959766  21.5144872   3.2981308
   2.7009204   4.2666486  41.0591173   3.0563778   5.0724566  41.4340258
   3.4633917   3.8128746  40.7000113   1.6092417  39.4023585  51.0147953
   1.8522777  39.3177629  51.9367552   2.3281901  39.8974156  50.6220341
  12.0075309  21.4115691  48.3216476  11.9084072  20.9008956  47.5181389
  12.6156473  22.1123910  48.0865383  59.5236540   4.5266062  53.4999132
  59.3878937   3.8841757  54.1963911  58.7179279   4.4945872  52.9841518
  32.1026683  14.0707624   4.7434333  31.4416075  13.6736083   4.1764241
  32.2293830  13.4335375   5.4463696  24.9139387  77.9631117  49.6724224
  24.8683769  78.8786575  49.3968678  24.6194489  77.4679741  48.9080000
  52.2646826  78.1903838   5.6587656  52.7527326  78.5940098   6.3764866
  52.9201930  77.6854276   5.1775606  18.4360511   0.3673406  21.4256390
  18.1479175   0.3122373  20.5144985  19.2956502  -0.0537209  21.4308937
  75.7450407  51.6760503   2.0876272  76.2048786  51.4358704   1.2832029
  76.3190191  51.3730912   2.7911862  23.2304740  38.2297134  49.9317312
  23.6796498  38.9752674  50.3300095  23.7747383  37.4747705  50.1554966
  -0.1156466   5.7446476   1.9029577   0.7573731   6.1362835   1.9292267
  -0.3739374   5.7967468   0.9827383  30.9070754  34.7329187  37.2537994
  30.1436806  34.7875953  37.8286648  30.6623340  35.2427149  36.4815021
  11.4998037  63.3860269  59.9490261  11.2361033  64.3034151  59.8776579
  11.4598400  63.0548337  59.0518427  24.4144702  33.5398602  21.6683316
  24.7186923  32.6879740  21.9813371  23.4782624  33.5478401  21.8675399
   1.0090873  27.3811841  69.1839552   1.1407638  27.4265504  70.1309681
   1.2262142  26.4774966  68.9549637  40.8394914  28.0967056  29.0263947
  41.0790305  28.8147901  28.4405525  41.6627186  27.6367055  29.1904934
  32.6201653  30.0039554  35.5332637  32.4659348  30.7917047  36.0546994
  33.2698345  30.2706504  34.8828483  41.2339020  25.1974082  45.6443644
  41.9463301  25.0433040  46.2647915  41.3402939  26.1110926  45.3796196
  18.9579284  16.7088890  35.5548644  19.3986857  16.0973310  34.9649811
  19.1236544  17.5710547  35.1735020  34.0658735  26.9156574   8.4997948
  33.1650393  26.8898295   8.8223847  34.4387626  26.0742961   8.7630375
  60.9901762  14.6830547  52.3395014  61.0173607  14.6762168  53.2962894
  60.2865028  14.0740323  52.1155262  36.4326215  40.0952101  22.2106743
  36.9863248  39.8768258  22.9603076  36.9546199  39.8481774  21.4473104
  16.3840372  58.7273100  43.9023781  17.0479948  58.1636956  44.2995262
  16.8318588  59.5612004  43.7598515  13.5668182  10.9313667  58.0026722
  12.9711998  10.8459187  58.7471008  13.8762248  10.0402832  57.8399801
  48.0368137  39.4795752   8.9612365  48.1835222  39.6783590   9.8860031
  48.7400913  39.9395156   8.5028863   4.4766927  25.2390480  25.1662803
   4.0239742  24.7751451  24.4619536   4.2731938  26.1619997  25.0146866
  58.0131006  15.4035223  36.0224390  58.3084774  16.1089599  35.4468155
  57.9773140  15.8027816  36.8916583  44.9708920  37.1012418   8.9781197
  44.1609340  36.9803311   9.4736775  44.8385733  36.5960150   8.1759461
  29.6904087   1.0824841  27.6777339  30.4005313   1.2517411  27.0586157
  30.1271749   0.9943553  28.5249066  22.9878736   1.2234864  32.9101181
  23.1987190   2.0293763  33.3816218  23.8389802   0.8534034  32.6758313
  37.9316378  14.6861768  50.0013065  38.8245344  15.0214362  49.9202633
  37.5173545  14.9038744  49.1663122  49.3748420  21.2534164   5.7241734
  49.1488951  20.4039668   6.1031397  48.6185925  21.8088685   5.9133585
   0.7375652  65.7016745  61.2327194   0.3629524  65.6398287  62.1113968
   0.0244743  65.4417148  60.6494904  33.0792165   4.4139352  63.5889721
  32.5989437   3.8573691  64.2019987  33.6088538   3.8036588  63.0758667
  23.0369449  43.0393124  63.0651140  22.2677875  42.7744627  62.5606537
  22.6798773  43.3786964  63.8858175   4.7542381  64.6064425  71.0859442
   5.6804955  64.6222734  71.3268375   4.7558245  64.4912720  70.1357031
  25.8791208  23.4518242   9.6993244  25.5024791  23.3032751  10.5666792
  25.3698182  22.8878760   9.1172546  10.6289227  82.2602281  42.3367357
   9.8108847  81.8188909  42.5653601  11.0346968  82.4640749  43.1793690
  40.9013033  16.9551718  34.3382573  40.9484053  16.9081759  33.3833718
  41.4031363  17.7382302  34.5645666  80.6599698  34.3220043  33.4354997
  81.5778032  34.3573666  33.1661248  80.3154394  33.5370445  33.0096221
  36.2787627  40.5933234  68.9681403  35.6129305  39.9133947  68.8652028
  36.8345021  40.2783641  69.6810116  30.9906990  72.8147712  52.3967075
  30.7619698  71.8944278  52.5266457  30.9007818  73.2087305  53.2644320
  26.4148664  27.4849153  38.3453536  26.1688304  27.4130940  37.4231076
  25.8722281  28.1973910  38.6832237  48.6559391  34.4031429  10.9733212
  49.2112064  34.0228081  11.6539454  49.0271187  34.0791988  10.1526415
   5.6145179  18.3738780  40.6817532   5.4973698  17.8693545  39.8767900
   5.9835273  17.7481318  41.3050556  39.1636324  43.4239244  12.5605834
  38.6509347  43.9551449  13.1698263  38.8437152  43.6767769  11.6945863
  40.1324177   6.7943704  30.7123828  39.3041921   7.0742410  30.3225803
  40.7898140   7.3637420  30.3125358  25.1923084  29.3633032  50.2255297
  25.6166816  28.6750412  50.7378149  25.7709765  29.4940877  49.4743490
  47.3323870  31.3846564  50.5405474  46.6508055  30.9074044  50.0673628
  48.1485128  31.1207795  50.1156473  74.3529187  60.1888159  32.5745392
  74.1299246  59.3076566  32.8746438  74.9273894  60.0473431  31.8220758
  68.0350927  48.9132622  55.8189154  67.1883003  48.9821580  55.3779745
  68.5268472  48.2803824  55.2955866  49.3741655  16.9345915  23.9985943
  49.0733767  17.5324094  24.6829700  48.5751152  16.5167534  23.6774039
  22.3333819  82.1251054  25.8926344  22.6802809  82.7309207  26.5475249
  23.0328018  82.0476089  25.2437615  51.6963100  27.9911542  38.2875252
  52.3805428  28.4370017  38.7868047  51.3434553  27.3397207  38.8936234
  29.8820138  12.3927033  66.4286089  29.8954582  13.3498085  66.4275789
  30.6163120  12.1422482  65.8679771  60.3857201  62.7631758  12.0880802
  60.8896034  63.4069704  12.5859364  60.2660530  62.0320319  12.6941689
  55.0364876   3.9967784  54.9715519  54.7193575   4.8436812  54.6578360
  54.3139219   3.3924755  54.8014021  54.2384941  56.1303666  43.6553049
  53.7478191  55.4336050  44.0911865  53.8448174  56.9400266  43.9804268
  41.4690447  23.0880380  49.3794203  41.7360973  23.4459639  48.5327816
  40.7764149  23.6761880  49.6803856  81.4114199  11.8450304  16.7504986
  81.2311397  11.1856886  17.4205788  81.5176354  11.3427015  15.9426506
  81.5989988  65.1548384   5.3992994  81.8523853  66.0778879   5.4021128
  81.6124170  64.8999690   6.3218458  61.0914516  41.0147047  65.8623219
  60.3940344  41.4067554  66.3878107  60.6367111  40.4185963  65.2672577
  71.0272026  30.0276303  53.4895563  70.8355665  30.1979280  54.4117880
  71.2638569  29.1005778  53.4613276  49.5159531  10.4328847  57.3776722
  48.8181162   9.8042464  57.1931028  49.4891548  10.5484545  58.3274937
  73.5056303  78.6885983  45.8596849  73.2487700  79.5881358  45.6569815
  72.9225300  78.1473070  45.3274918  38.8274741  27.3033595  44.8814964
  39.6840739  27.4728155  45.2736092  38.1995773  27.5819492  45.5481052
  60.4448986  31.1665368  46.2778044  60.1125669  30.6910253  45.5164385
  60.9367704  31.8990612  45.9067202  56.0873318  26.0097837  44.1336584
  55.5287409  25.3368139  44.5226526  56.0769749  25.8171225  43.1961060
  72.6927441  82.3130130  17.8190430  72.5106352  82.1675156  18.7474259
  73.6129158  82.5754594  17.7937325  62.8601217  22.9121041  44.0021610
  61.9814110  22.6200938  43.7596130  63.2088375  23.3103132  43.2046318
  23.2164223  65.6359234  69.5996094  22.5871784  65.8538273  70.2872133
  22.6793606  65.3057328  68.8793516  30.2732444  25.7501769  43.7429190
  29.6059012  26.2604713  44.2017031  29.8043394  25.3421140  43.0150127
  66.6050863  13.6167967  46.5084696  66.5578938  14.5028758  46.1494875
  66.2755871  13.0559993  45.8062124  70.2305174  10.4586101  57.7468729
  71.0641623  10.9272671  57.7872753  70.0480175  10.3747416  56.8109846
  76.6977787  15.1991642  46.7801762  76.3967228  15.0450039  45.8847237
  76.7177391  14.3293476  47.1792412  43.0500984  13.8085604  32.4016500
  42.2085142  13.4347665  32.6628804  43.6238527  13.0508196  32.2881985
  37.6989198  21.2971091  30.7680392  37.4104571  21.5086412  31.6558886
  37.0786715  20.6333566  30.4664421  43.6353111  40.3067780  70.8316374
  43.6495876  41.2368536  71.0574389  43.1818151  39.8894358  71.5640306
  49.8073959  41.3576603  67.0638514  49.3477058  40.5325460  67.2191000
  49.1226673  41.9637775  66.7810106  25.8727002  24.2910647  57.3613834
  26.1301064  23.6472440  56.7014837  26.5272808  24.1992426  58.0537128
  12.8411569  44.4435148   3.5948284  12.1876325  44.1347100   4.2223414
  13.6749067  44.1257550   3.9414175  61.4176750  23.6072206  28.3175731
  61.0274458  24.2116094  28.9489746  61.2877274  24.0305400  27.4689579
  87.2774506  45.6484556  62.5636625  87.9502201  46.0921431  63.0801487
  86.4777088  45.7418871  63.0812597  33.9211011   3.6723283  60.0443029
  34.1065145   3.1620634  60.8326435  34.3119073   3.1647664  59.3330479
   4.5401785  29.9084997  19.6169829   4.0025160  29.1884089  19.9465752
   5.4161188  29.5326710  19.5291924  51.8046474  27.1751952  35.5638528
  51.7259169  26.9667244  36.4947510  51.7233706  28.1281090  35.5241013
  59.2208481  29.3354440  44.5922565  58.3833075  29.5833850  44.2007494
  59.0117359  28.5871077  45.1512718  85.7201862   4.5011124  14.9873590
  86.6717815   4.4340870  15.0660646  85.5799675   5.2489156  14.4065285
  82.4055958  65.8891678  69.7657967  81.9779396  65.2524996  70.3385115
  82.1298122  65.6408072  68.8834715  85.5713957  60.8583580   2.7881010
  85.5633514  60.9921252   1.8403252  86.5001076  60.8197032   3.0166538
  55.5544853  31.4449716  53.7054253  55.0506830  31.9603491  53.0755043
  55.0017214  30.6856751  53.8902378  21.4632916  31.2740946  44.3120432
  21.7240858  32.1918416  44.3892336  21.0311460  31.2187743  43.4597397
  65.6750584  19.8125684  49.4730902  65.2006674  19.7483373  48.6441946
  66.1910439  19.0075326  49.5167494  83.7179279  27.5772142  54.0257263
  84.5335770  27.4588704  54.5124912  83.3077526  26.7123699  54.0317726
  83.9167660  71.5252613  20.0820263  83.4309881  71.3874196  19.2688568
  83.9376467  70.6632375  20.4976090  61.2463045  45.4397297  52.1205807
  61.8156672  46.0746050  51.6858530  61.6654634  45.2819777  52.9665422
   6.4973917  71.0311984   5.9810980   6.6226854  70.0973963   5.8121451
   5.8054437  71.0643553   6.6416653  51.4409542   4.3131849  71.2450123
  52.0038986   3.6187273  71.5871525  52.0460129   5.0137138  71.0012960
  59.3950272  58.0033731  61.1117840  58.7208939  57.5149536  60.6393194
  59.3827963  58.8740873  60.7143688  87.1191406  18.7817407  42.4048281
  86.5977859  18.2155609  41.8357372  87.2930527  18.2475412  43.1798267
  52.0268250  26.0367775  42.4741268  52.3019075  25.3125334  43.0362892
  52.8424406  26.4758635  42.2328758  66.5307999  42.3510122  36.3570595
  65.7853365  42.9478550  36.2915421  66.8421268  42.2569132  35.4568076
  66.5685899  16.9211670   8.4027107  66.1621912  16.9089123   7.5361498
  66.6516454  15.9979244   8.6413773  79.6592283  21.3954377  51.9655085
  78.9975452  21.4361024  52.6559830  79.4325542  20.6133604  51.4623117
  67.6240635  18.1752634  53.4635305  67.0439863  17.5208938  53.0742455
  67.1631956  18.4660029  54.2504883  49.4300079  26.1439514  71.8359423
  50.1885271  26.0645556  71.2575102  48.9223957  26.8669534  71.4673996
  39.3816400  53.9818668   7.7491635  40.0679159  53.3300877   7.6061934
  38.7270641  53.5279608   8.2799459  76.4286804  35.2880120  44.9532127
  76.6957951  34.6805072  45.6430101  75.8652735  34.7675014  44.3806076
  60.2699137  43.8458204  48.3691740  59.7774839  44.0243244  49.1703510
  61.1819077  43.7937593  48.6551571  44.0254498  60.5126858  49.0948915
  43.7690020  59.9545527  48.3607578  44.5171261  59.9326992  49.6763611
  86.1497211  37.9151464  61.6674376  86.8147659  37.2623110  61.8859720
  85.6139088  37.4952292  60.9945297   0.0681803  29.9891615  30.1208282
   0.1286432  29.1678500  29.6329522   0.4673025  29.7940445  30.9686828
  67.5084543  21.3815284  51.1519718  67.0921659  20.6959128  50.6296110
  67.8932524  21.9742060  50.5063009  74.8326540  60.0401878  47.2521591
  75.0166893  60.1284838  46.3169765  74.6157408  59.1150236  47.3672771
  58.8440418  52.5795507  52.0029449  59.1194487  52.0482492  52.7500105
  59.1607285  52.0993948  51.2378359  38.4712934  68.9374733  54.7936440
  38.6339402  69.8803425  54.8215437  37.7588272  68.8358974  54.1625309
  67.9922962  47.8725386  66.9095135  68.3333969  48.7668562  66.9184589
  67.4556494  47.8129625  67.6998854  79.3572958   3.0883070  -0.0593178
  79.4944341   2.3219963   0.4976328  79.8637445   3.7834593   0.3608139
  11.7562887  42.4458265  29.7243309  12.0332739  41.6451216  30.1697373
  12.1375772  42.3771477  28.8490391  74.1556931  56.8745708  35.6765985
  74.4395638  57.6388597  36.1781120  73.3819342  56.5566874  36.1418676
  43.1350231  24.4579864  40.2289963  43.8019419  24.7507620  39.6079230
  43.0844259  25.1619220  40.8756399   7.5673696  71.3105202  64.8023319
   8.2805082  71.9445515  64.8776007   8.0067274  70.4704332  64.6702290
  79.3085861  63.4889507  60.9086418  79.7404909  64.2974567  61.1843348
  78.5866213  63.3799982  61.5276146  78.1867027  80.5805397  56.4312077
  77.5222826  81.1398792  56.0288239  77.8190136  79.6981716  56.3815451
  87.7577972  39.5342588  44.3151712  88.3854485  38.8780236  44.0124607
  87.9281998  40.2997637  43.7663555  27.8776254  13.4184930  41.8963528
  27.1549787  12.8783891  41.5765047  27.8108205  13.3676717  42.8498650
  66.7805147  42.9719305  60.7621288  66.5986586  43.4954214  61.5425873
  65.9162664  42.7551794  60.4123783  55.9072542  66.0432529  61.3024950
  55.7457829  66.8379593  60.7939720  55.3807020  65.3710175  60.8699751
  55.4261541  50.3329372  59.6221256  55.7507944  49.8429728  58.8666296
  56.1831760  50.4063082  60.2032995  51.9089603  58.5175800  57.2781038
  51.7387867  58.6479807  58.2109880  51.9108295  59.4008446  56.9092226
  75.0236464  70.8834410  67.5377798  75.5319595  70.2148199  67.0786524
  74.9881935  71.6191483  66.9264603  54.9840212  19.3157554  58.0843115
  54.2876911  19.3725669  57.4300051  54.5262909  19.1413510  58.9066839
  81.8550968  25.6441212  47.2556686  81.5909767  24.8953843  47.7903318
  82.2702217  25.2544308  46.4862251  19.3736257  35.1321790  55.3529406
  19.7676458  35.7972905  55.9173965  18.5513630  34.9057862  55.7875204
  84.5433777   7.8866002  39.4442225  85.4745643   7.9974458  39.6361494
  84.1526525   8.7344262  39.6557736  71.3895845  55.8439636  51.6821337
  70.8460093  55.2687645  52.2205639  71.8645430  55.2497911  51.1010885
  52.0871067  55.7941914  59.7230959  52.3744917  55.7647228  58.8105345
  52.8193712  56.1943674  60.1920080   9.4701978  69.9292898  48.5534430
   8.7353727  70.2997255  48.0645180  10.0937959  70.6512070  48.6320782
  72.4917412  49.4687843  38.5456872  71.6756105  49.9596071  38.6418962
  72.9673004  49.6328115  39.3600416   1.2474098  79.1377472   3.1932696
   1.6210785  78.4247898   2.6753004   0.7374181  78.6978601   3.8734491
  46.7838526  63.6426210  44.7030401  46.6219378  64.5859051  44.7180128
  47.7177858  63.5568428  44.8944616  51.8977261  53.1700468  59.4779015
  52.7366638  53.0000496  59.0495157  51.7754889  54.1160631  59.3982887
  72.7216864  48.5470295  21.6814661  71.8548965  48.9114809  21.5023518
  73.0352831  49.0373039  22.4414158  66.1903889  76.5960964  37.3473644
  65.7289631  77.3892054  37.0747924  65.5475742  76.1107972  37.8645778
  51.6613674  15.1261997  64.4901752  51.3529539  14.4859707  65.1314402
  50.9781742  15.1420736  63.8199329  21.9761488  66.9715071  61.8999815
  21.1701319  67.1911526  61.4327240  21.9352838  67.4888372  62.7043009
  63.5624743  66.6817617   6.1418897  62.9048443  67.0860577   6.7078358
  64.2759562  67.3190975   6.1105698  68.0690145  49.6495962  45.4108143
  67.5395012  49.8530626  46.1818218  67.5547981  49.9785137  44.6735048
  76.0366106  15.4772639  33.9011693  75.1107645  15.6960106  34.0069294
  76.4922953  16.0679233  34.5009255   7.0509090  76.7905592   6.6391667
   6.7533579  76.9910954   7.5265654   7.8306141  76.2496518   6.7644890
  33.6522682  14.0541931  14.9335106  34.4705732  13.6233564  14.6865376
  33.4781892  13.7459036  15.8228214  37.7762117  19.6315667  42.1221590
  38.6327257  20.0489327  42.2139645  37.3192014  19.8409650  42.9367352
  73.0469179  46.7427015  40.5681038  73.5222101  47.5728273  40.6029892
  72.8306675  46.5519810  41.4808416  67.8962660  54.6789742  60.7812595
  68.0143118  53.9845753  61.4294147  67.2527122  55.2677298  61.1755180
  67.5352526  32.6947093  45.4217482  67.7462196  31.9486952  45.9831667
  67.9455853  32.4864197  44.5824194  76.6614866  53.0013514  32.3677921
  76.2270451  53.2965755  33.1680036  76.4042187  53.6423826  31.7051244
  74.8500633  58.0205917  71.1699915  74.3818188  57.4196768  70.5904388
  75.5014420  58.4380960  70.6064081  57.8170156  46.0798502  68.5314178
  58.2503796  46.9326019  68.5665894  58.4441900  45.5106735  68.0854082
  76.6474581  25.1803899  32.7036333  77.5947332  25.3161931  32.7250934
  76.5075445  24.5844460  31.9677615   1.1293051  60.3168535  61.6542721
   0.6565401  59.5596647  61.3087368   0.4750273  61.0149336  61.6832209
  43.4383781  21.9503685  15.8744724  42.8402002  21.4853235  15.2895363
  43.0780180  22.8353163  15.9313687  66.9065666  19.7484028  45.9452152
  66.1817169  19.9587750  46.5339136  67.6915979  19.9950016  46.4342451
  80.6074064  54.6179866  13.5182865  80.0327556  54.7129999  14.2778786
  81.4055984  55.0869166  13.7616547  30.7872953  79.5192527   8.2228573
  31.2626257  79.9856304   8.9104565  30.2946844  78.8433694   8.6884125
  69.1161203   8.9585942  39.4394112  69.8681736   9.5482743  39.4935083
  69.3872643   8.2808030  38.8202882  70.2473593  44.9767780  53.1428432
  71.1315012  44.6441746  52.9882479  69.7827816  44.8125362  52.3222208
  24.7012758  53.1261683  38.8887525  24.0905523  52.5997829  38.3728361
  24.3460274  54.0140581  38.8477516  11.6171558  21.1534401   8.7518223
  12.5527961  21.2125917   8.9449795  11.3435466  20.3243204   9.1441544
  66.0066223  51.7833567  56.3185310  66.0395432  52.2167921  57.1713400
  65.5861855  50.9414864  56.4938021  54.5242357  56.4946890  53.4661818
  53.9913750  55.7945776  53.8431835  54.4804478  56.3467789  52.5214958
  74.7062969  61.7477942  57.1688128  75.4513979  61.7132568  57.7687025
  74.7609234  62.6156664  56.7687559  45.5188656  44.3826532  43.2145500
  44.7199392  44.0246201  42.8275585  46.1160231  44.4906044  42.4742937
  74.8053980  60.7438326  63.4540606  75.1046896  61.5539408  63.8668442
  75.2607298  60.0497580  63.9306784  87.8052998  63.4191942  64.1937542
  87.6993752  63.9858294  64.9579096  87.4390125  62.5780201  64.4667053
  85.8455467  40.7554102   9.8125368  86.1200237  41.6126442  10.1381779
  84.9955559  40.9158325   9.4026446  78.5559750  66.4265776  39.4023275
  78.9146233  67.0696592  38.7907290  79.2540359  65.7800055  39.5066738
  85.6376266  52.5845385  19.2082739  85.9448719  51.9908381  19.8933721
  86.0061359  53.4354401  19.4457543  68.7451935  80.4808617  46.6435671
  69.4444275  80.4641056  47.2970343  68.1581116  81.1768627  46.9387817
  82.0120525  77.9079151  40.7230282  82.6019859  78.4417677  40.1908493
  82.0335102  78.3171082  41.5880919  72.9977846  68.7213326  59.7676182
  72.3612499  69.3983984  59.9970436  72.8761148  68.5868120  58.8277626
  35.3967149  25.3053995   5.7522782  34.6520717  25.6912323   5.2908953
  35.2899845  24.3617674   5.6323155  43.4629345  45.0789118  39.4219446
  42.8878450  45.8330297  39.2922950  44.3451691  45.4500103  39.4354177
  67.8953505  52.0410633  42.8195524  68.0131102  52.9767561  42.9833984
  67.1274233  51.9923925  42.2502089  47.8627634  62.9787302  65.6360483
  47.1164751  62.7451277  65.0840425  48.3974075  63.5514736  65.0861788
  27.7859041  34.9581647  33.3061981  28.2071993  35.7213974  33.7014318
  27.9789087  35.0351024  32.3718214  62.5431108  62.7537680  53.3404350
  62.4322748  63.6991215  53.2391644  63.4318733  62.5821161  53.0291939
  81.6664696  70.5775595  26.3430500  81.8797207  70.1140881  25.5331421
  80.7120609  70.5325747  26.4005637  78.2798767  44.9824333  41.1549330
  78.7665224  44.9089813  41.9759130  78.9083862  45.3548241  40.5364418
  11.4131853  79.3711948  51.3682890  12.1565172  79.8955631  51.6661549
  10.6884023  79.9938297  51.3112497  83.1037807  45.5851269  18.2055235
  83.1505871  46.4368391  17.7712035  83.8547611  45.5773163  18.7989891
  13.8740083  63.0707932  61.4025450  14.0379164  62.1308804  61.3255453
  12.9345247  63.1638241  61.2445879  50.1379919  40.3204584  63.8901806
  49.8510742  39.4076157  63.9152908  49.3314409  40.8276463  63.9822149
  44.1666412  68.0110359  61.0447025  44.8763371  68.1543112  61.6708279
  44.2646551  68.7171030  60.4058790  44.1461172   7.6196477  11.3728273
  43.5153665   7.9359052  12.0196402  43.8489618   6.7346761  11.1612952
  26.5921123   1.3805767  26.4105042  27.3765476   1.8445106  26.1178311
  26.8713672   0.4691692  26.4975842  82.6978683  47.3528099  65.4356623
  82.3775673  48.2270384  65.2134800  83.0303955  47.4394512  66.3290548
  54.4991350  50.4429579  48.0370617  54.3971014  49.5982742  48.4756231
  54.4170475  51.0886717  48.7388754  86.4245129  40.7421875  60.9706068
  85.5358028  40.7860613  61.3234615  86.6728878  39.8221898  61.0608387
  55.9314497  27.0405050  35.2479752  55.4136522  27.3661609  34.5117291
  56.0341699  27.7990766  35.8226498  83.6042213  17.2074854  52.4091482
  83.4759140  16.9742465  51.4897108  82.8465652  17.7505970  52.6264572
  69.3533891   1.4515397  25.2756715  70.2434843   1.4832112  25.6263328
  69.4158333   1.8844792  24.4242668  55.2676572  22.5897309  20.4725027
  55.0931825  23.5305974  20.4960489  55.2317800  22.3626611  19.5433187
  38.0344367  58.8542938  39.9678063  38.5102606  58.2774639  40.5653811
  38.7191176  59.3392754  39.5071149  64.8399973  27.5418234  40.6161785
  65.2247381  27.3556376  39.7597098  65.0875998  26.7925620  41.1579657
   3.0571291  26.7686296  40.7760048   3.5773489  27.0738125  41.5192890
   3.6984941  26.6123652  40.0828457  35.7651663  50.0643682  43.4412527
  35.2367282  50.8484507  43.2922602  35.5320644  49.4780922  42.7214098
  73.6294317  53.9847469   3.3248666  72.7184439  54.2302036   3.1633759
  73.6570454  53.0427837   3.1570217  50.7776213  17.4945283  48.5648870
  50.0178719  17.9807603  48.2445908  50.5264187  16.5747631  48.4802532
  82.7143478  50.3530359  16.8588972  83.2455158  49.6737432  16.4433777
  81.8241310  50.1827145  16.5510988  46.4137316  65.3157282  47.4812841
  46.9983816  64.5581818  47.4581146  46.0572100  65.3703356  46.5946388
  87.5556946  47.7987003  34.3067002  86.6906357  47.8115320  34.7162557
  88.0855465  47.2482252  34.8833013  45.4809093  52.4368858  39.9294090
  46.1443043  51.7530823  40.0218821  44.9109793  52.3220730  40.6898212
  72.3435450  61.6201162  44.3557596  73.1220961  62.0832014  44.6650219
  72.1850681  60.9484816  45.0191021  82.0065784  55.9222031  22.4789667
  82.2690487  56.2746906  23.3293152  81.7723465  55.0117445  22.6590633
  20.0590917  70.8189535  43.6043596  20.2287218  70.1914835  42.9016972
  20.4213259  71.6439867  43.2813406  45.3522587  65.8374643  44.7141790
  44.6543741  65.5343628  45.2949667  45.0775003  66.7146063  44.4470453
  48.1738567  66.4016342  30.2742267  47.7675486  65.9845781  31.0339689
  48.2210207  67.3289680  30.5067468   2.6664247   6.5876958  48.2642651
   2.6045789   7.4389550  48.6975861   3.5988083   6.3727471  48.2905293
  52.8538227  76.2606287  66.2583208  53.0848598  76.1519384  67.1808434
  53.2609415  77.0892096  66.0054684  31.8860912  60.5806255  70.3789043
  31.7270207  61.1132193  69.5996237  32.6077199  61.0216475  70.8272123
   1.8583605  53.4538984  58.3104134   2.7989027  53.2761908  58.3167934
   1.6670152  53.6987400  57.4050570  46.3564451   3.3933254   9.5643337
  46.9006259   2.7438160  10.0095757  45.4642637   3.1926628   9.8471459
   4.4281234  15.4384801  37.5349760   5.0024547  15.2318093  38.2723093
   3.6628284  14.8779866  37.6630521  44.0681601  49.0788460  26.1142540
  44.2700052  49.2952204  25.2039409  44.7751856  49.4813728  26.6185522
  63.1943464  51.9729996  36.5530705  63.5055876  52.6531506  35.9557843
  62.6157045  52.4340487  37.1603942  85.5873013  48.9794159  55.5789709
  86.1915302  48.2497358  55.7157183  85.8012962  49.3071175  54.7054434
  51.9475365  75.8720589  13.4460747  52.0620584  74.9408674  13.6357987
  51.1385107  76.1109304  13.8984632  82.2922993  50.2608871  65.2296877
  82.1051216  51.1041117  65.6422043  82.9736233  50.4551363  64.5860195
   6.1212434  25.3724572   1.0721680   6.2111559  26.2635514   0.7343969
   5.8386984  25.4875848   1.9794416   6.6344950  35.5768132  69.4220114
   7.5776789  35.6619406  69.2827415   6.3571760  36.4432597  69.7196627
  82.5201893  34.0433502  56.4033747  83.3862686  33.8117242  56.7387724
  82.1694756  34.6567678  57.0490885   1.7862818  54.5124817  42.4823141
   2.4720499  55.1795721  42.5129318   1.8303797  54.0842295  43.3372307
  64.8203802  47.8359413  42.5495291  64.0138388  47.8416157  42.0340776
  64.6634674  48.4726286  43.2468414   5.1271936  68.0222654  43.2036924
   4.9913809  67.6228094  42.3444939   4.5514032  68.7869167  43.2060385
  68.4562540  76.8319416  57.0681238  68.3798122  75.8907700  56.9113255
  69.3263674  77.0594501  56.7404461  71.7479944  44.1928434  45.6200075
  72.5384665  44.1349602  45.0833225  71.8807364  43.5455036  46.3125181
  67.8897667  76.6330099  15.6221032  68.6889172  77.1596956  15.6084728
  68.1638908  75.7912016  15.9860396  51.9516182  57.8255939  37.8224111
  51.6296291  58.5639429  37.3053074  51.5811539  57.9640198  38.6940908
  49.8706293  37.5511909  64.5139360  50.6436443  37.2880197  64.0145159
  50.1407719  37.4786210  65.4293537  77.8170633  68.2075691  41.4223480
  78.3587265  67.6020384  40.9162188  77.2734928  68.6467075  40.7681894
  83.4894276  79.1775274  38.9409304  84.3356228  79.1613245  39.3880582
  83.6757660  78.8435984  38.0634332  51.5616465  59.5442867  33.6899519
  52.2157192  58.8548088  33.8041639  50.8796740  59.1408825  33.1529164
  13.3348390  45.9330988  13.2946754  12.6032087  46.4976168  13.5442138
  13.7999937  46.4279890  12.6201773  38.9966478  18.3614633  24.8311663
  38.7277879  18.8191697  25.6276894  39.9419012  18.5035512  24.7807598
  81.5321732  60.4730511  44.4581223  81.0235882  59.6648073  44.5238400
  81.0711098  61.0927916  45.0234318  73.5249186  47.7962589  48.5760832
  73.4852600  48.7496853  48.5009861  74.2679167  47.5435400  48.0280638
  56.7172623  72.6142645  12.3040116  57.4781370  73.0890417  12.6385045
  56.0968399  72.6121330  13.0329168  84.7881794  28.2169700  23.5444093
  84.3073368  28.8304996  24.0999317  84.4740963  27.3536730  23.8133025
  65.2589273  50.9693098  61.9471359  66.2092161  51.0117149  62.0538568
  64.9210739  51.6397476  62.5409412  86.0933876  62.6549721  38.3944774
  86.1557102  61.7161369  38.2186055  85.6204414  62.7122450  39.2247033
  88.3382702  57.5924683  42.9510641  88.2903385  58.4249449  43.4210873
  87.7362823  57.0163965  43.4222126  80.6815243  58.8077831  31.4033628
  80.2380753  58.1994486  30.8121657  80.6826210  58.3611107  32.2499514
  83.0208206  57.1069765  24.7407246  83.1494522  57.8249025  25.3606200
  82.1227646  56.8144083  24.8960710  28.0774233  76.8312263  34.4755626
  27.2800276  77.0612812  33.9986277  28.5271379  76.2087727  33.9041233
   7.5561449  77.4070120  41.2749338   8.1336138  78.1472731  41.0884428
   8.1099912  76.6353750  41.1562824  13.1321070  79.2342329  48.7906647
  13.3822939  80.1576996  48.8197279  12.7396604  79.0653372  49.6472216
  15.6124487   0.2383515   7.7299982  14.7158565  -0.0719455   7.6032394
  15.9148779   0.4628179   6.8500078  79.0332794  57.6390457  37.3803306
  78.4706974  58.1528950  36.8009353  78.5891342  56.7947388  37.4584889
  70.6331968  51.3999081  41.5790796  69.9312782  51.0145521  41.0546350
  70.3752375  51.2313700  42.4853277   0.5101511  36.7834210  19.1025293
   0.7693025  37.1952653  18.2782376   0.3604624  35.8657575  18.8751042
  46.0891867  70.3239155  51.8335485  46.7720127  70.9289932  52.1231365
  46.5195131  69.4691420  51.8131876  83.0973053  79.6907282  48.3660364
  82.2651577  80.1636505  48.3560181  83.6568069  80.2028084  48.9499569
   5.3927728  65.2350092  55.6057501   5.6824610  65.1670599  54.6959782
   6.0454485  64.7415018  56.1024332   8.5610315  60.1470423  40.9227753
   9.0503523  60.9518290  40.7521439   9.2137834  59.5387840  41.2694263
   5.1498594  41.9560046   0.0816878   4.2049493  41.8061730   0.1121958
   5.3813591  42.2081907   0.9755810  56.9653273  75.0725126  71.9396734
  57.5018454  75.6526661  71.3994789  56.4140081  74.6037912  71.3131142
  62.0779736  32.0820237  62.5592945  62.3501808  32.6907970  61.8726103
  62.2077114  31.2147094  62.1756808  79.6917677  74.8861122  17.1419418
  80.6294537  75.0192261  17.0031917  79.6366549  74.0696859  17.6385689
   2.5083658  18.5289741  53.0533504   3.1419298  18.2006085  53.6913204
   2.5878736  17.9332101  52.3083830  20.4433813  22.0693013  42.2191048
  20.1115265  21.2776467  42.6426458  20.8433427  21.7570111  41.4074802
  85.9103203  62.7517462  46.9440269  86.0864353  62.9583120  46.0261202
  85.0212765  63.0725622  47.0954084  59.4065237  75.5948353  60.7290268
  59.3969631  75.9701347  61.6095352  58.9713097  76.2507105  60.1843739
  -0.0903395  66.1851215  47.5076437   0.2522775  65.4518175  46.9966555
   0.5242368  66.9001055  47.3423243  22.2549589   6.6781946  26.6210278
  22.0164640   5.8958336  27.1182831  22.8598363   6.3606926  25.9505470
  64.2594528  60.3241253  55.4930496  64.9542379  60.9705496  55.6181145
  63.4540367  60.7928085  55.7118368  20.2387544  71.2267447  51.6135883
  21.0157224  71.6178274  52.0130920  19.7241518  71.9741297  51.3088989
  79.6941090  82.5499249  32.2014236  80.3264236  83.2448387  32.3844671
  79.1799831  82.8817177  31.4653397  57.5254250  39.2437935  67.7616644
  58.2118225  39.9066377  67.6859999  57.0166540  39.3327761  66.9557667
  52.5275946  47.1124125  54.2458344  52.8298712  46.4085913  54.8198462
  52.4669266  46.7067432  53.3809710  80.5262821  44.7558782  20.7377934
  81.3862055  44.3358037  20.7204604  80.6141870  45.4548547  21.3858247
  22.5066206  77.2194815  34.2924094  22.1380922  77.3172283  35.1703978
  22.1409246  77.9518270  33.7962580   6.0614702  36.9353294  25.8641243
   6.0652086  36.7625809  24.9226499   5.3816625  37.5985885  25.9832358
  80.4839134  72.1973372  23.2246017  80.6692410  71.2867498  23.4542036
  81.2026119  72.6940155  23.6157703  18.8510343  47.1916771  20.4875565
  19.7878668  47.0477247  20.6211662  18.6414644  46.6895294  19.7000504
  76.8460417  41.6790962  60.7428265  75.9029484  41.7831564  60.6163979
  77.1630573  41.3346624  59.9079037   2.7884504  23.7373137  27.4271297
   2.7469560  23.9490223  26.4945602   2.0104429  23.2028913  27.5862622
  59.4708633  69.3877316  41.8669319  60.2351236  68.8586950  42.0955420
  59.8163700  70.0730085  41.2948704  62.6560354  55.9328318  42.2457457
  62.6542997  56.6159868  41.5752745  61.7551804  55.6096077  42.2606802
  53.2667780  49.6644592  55.7955742  52.6997185  49.1335297  55.2362967
  52.7437639  49.8281813  56.5803623   2.9060289  45.3204823  44.4492912
   2.8048631  44.7111654  45.1805449   3.6821482  45.8347130  44.6716261
  82.3238564  71.6553020  55.9311295  83.0335236  72.2483969  56.1777830
  82.6277733  70.7904816  56.2067223  22.8051874  59.3375874  59.3281794
  22.4404547  58.6995554  58.7149000  22.9263613  60.1301861  58.8053608
  11.9773886  41.6121578  52.3273754  11.7523691  42.5127363  52.0938063
  12.6572534  41.3648939  51.7005730  65.4974079  59.0440559  46.6485405
  64.9137831  58.7729740  45.9399271  65.0789547  59.8209047  47.0195341
  24.3825170  81.8835926  62.9600096  24.8542043  81.5750408  63.7336636
  25.0595495  82.2716045  62.4056530  41.2956619  73.8187265  39.0845060
  41.9389534  73.1623983  38.8168550  41.2037277  74.3891430  38.3213520
  46.3296976  15.9289929  47.8754759  45.8147516  16.3401696  47.1812105
  47.0791425  15.5435941  47.4215746   6.8162271  35.9972501  61.1827564
   7.3380205  35.2295971  60.9489346   6.6842100  36.4584613  60.3544521
  86.4390755  59.4546747  37.2668290  86.1548996  58.7857437  36.6439199
  86.1330032  59.1365337  38.1161475   4.0941450  57.2375870  65.2519608
   4.0386030  58.0603027  64.7658634   3.1863043  57.0262861  65.4696941
  69.9755716  27.0433235  44.8712921  70.4514694  27.7826834  44.4930124
  70.5835629  26.3071418  44.8033571  67.0968342  74.7484922  54.1082335
  66.8544436  75.5305672  54.6040583  67.9752874  74.9369621  53.7780237
  63.1389332  57.1652699  51.5783501  63.7528038  57.8227186  51.9056940
  62.9270124  57.4560690  50.6913567  16.2704107  51.9812584  23.6249161
  15.3797838  51.7470360  23.8859892  16.4774248  52.7557993  24.1478539
  88.1151104  75.3457260  42.6630068  87.8061104  74.9524736  41.8468571
  87.4000454  75.2034092  43.2832146  27.2690477   6.2198159  44.0598392
  27.8796377   6.2439820  43.3230734  26.8734350   7.0913598  44.0717363
  80.1453304  73.4498262  33.4181333  79.5994806  74.0844011  33.8824558
  80.9159374  73.9491749  33.1478643  60.3031683  54.7026348  53.6644888
  59.6489429  54.0109777  53.5653496  59.7926235  55.5113459  53.7040424
  79.2154169  70.4630995  50.5014038  79.9937487  70.0888968  50.9142017
  78.6044931  70.6031370  51.2248659  24.0420921  25.0524564  14.9584778
  23.7872655  25.3853985  14.0979870  23.6360986  24.1871782  15.0103481
  21.3276291  58.5675669   4.2078978  21.1022758  58.7029409   5.1282901
  20.7841873  59.1965342   3.7332371  14.5608923  76.4454365  34.7430563
  14.5550749  75.9455252  35.5593204  15.2486345  77.0994425  34.8676252
  67.4601746  60.9836578  34.1172123  66.6964483  60.5185461  33.7757039
  67.4821472  60.7577181  35.0471044  21.0256311  57.4387646  70.9333038
  20.6053087  56.8279839  70.3279114  21.8337366  57.6972532  70.4901409
  43.9925852   5.1823422   6.3038284  44.3275156   5.5781552   5.4992211
  44.7229376   4.6603295   6.6359848   1.5350744  62.3396397  21.6516876
   0.6653425  62.4466419  21.2665200   2.1251032  62.7729321  21.0349584
  69.2418861  35.2101350  60.2234602  70.0229645  35.6765556  59.9258041
  68.6669445  35.8969069  60.5611324  81.0044861  19.9562967  38.9975739
  80.3103447  19.3068850  39.1101003  81.1972332  20.2571726  39.8855805
  76.7920589  33.5104227  72.3393106  77.5641346  33.4961081  71.7736864
  76.0524893  33.4283352  71.7372036  13.2175562  67.6771641  32.5226665
  13.9194795  67.5207710  31.8909407  12.4339697  67.7951241  31.9857192
  41.0333147  16.4178178   1.1102130  41.3599767  17.2908875   1.3276429
  40.1849546  16.3630864   1.5501139  73.3941603  44.3581009  65.0849485
  73.7006474  43.8778210  64.3157768  72.5114727  44.0223169  65.2409601
  82.5951099  78.0247593  12.6214170  81.7690563  78.2691813  13.0387092
  82.9835606  78.8574696  12.3532248   9.4624891   7.6747224  13.1909442
  10.0070944   8.2804677  13.6936462   9.1949215   7.0100686  13.8256586
  61.1155653  69.6529818  29.3465662  61.7857122  69.7926092  30.0156260
  61.4396381  70.1265860  28.5804677  24.3266573  10.4403493   8.6437589
  23.9949026  10.3997800   9.5407122  24.1674127   9.5654199   8.2896841
  81.0979080  64.9049520  32.3359036  81.7505169  64.3972969  31.8535852
  81.4470863  64.9603081  33.2254219  82.8885746  61.3493395  38.9403605
  82.7695751  61.9622231  38.2147980  83.2837486  61.8752098  39.6357250
  87.3045540  57.9014492  30.5249810  87.4108124  58.0953312  31.4562964
  86.8819332  58.6810875  30.1647234  71.5114362  15.9734531   8.6120518
  72.0383413  16.6627546   9.0163525  70.7019956  15.9600206   9.1227921
  14.4514486  30.4727960  68.9053774  14.4305441  29.5825005  69.2563295
  14.6524545  31.0237837  69.6618414  84.7853248   2.8411290  56.1161804
  84.4334286   3.4545419  56.7612553  85.7334583   2.9649732  56.1602306
  58.7633085  58.7258816  26.3382792  58.5150576  58.0914688  27.0106816
  59.5570564  59.1380787  26.6792893  83.2918262  71.9346952  42.8848743
  83.3196163  72.0273876  43.8371706  82.3742962  71.7444801  42.6894188
  12.4555309  32.2161909   7.2383078  12.7456577  32.2012707   8.1503590
  12.0543010  31.3581320   7.1005352   7.2239818  12.0884511  22.9591060
   7.5032940  12.7571771  23.5844207   6.4678135  12.4746606  22.5171995
  67.8928525  19.3640896   8.6553677  68.5891492  19.5170160   8.0165966
  67.8081377  18.4114214   8.6938484  73.4671879  58.7333632  60.1318121
  73.5699463  57.9635525  60.6913280  72.9516077  58.4217215  59.3879795
   8.8494036  51.9780445  61.6537666   9.5771047  52.3735380  62.1336317
   8.8758871  52.3947144  60.7924223  46.9762087  75.1670170  63.5084724
  46.4948368  75.9240866  63.1747675  47.0987844  74.6049166  62.7434540
  10.3718206  68.0004644  52.1553326  10.5008814  68.8022327  52.6620340
  11.1331865  67.9576015  51.5767813  47.4393511  77.2939301  32.7766514
  47.7850103  77.4902153  31.9058919  47.1685362  76.3772488  32.7257991
  69.0941238  63.6833620  33.2045460  68.8154221  63.4868860  34.0989494
  69.9020195  64.1857004  33.3103132  75.0194597  44.4655895  20.9650517
  75.8422089  44.9234629  21.1372876  74.4465542  44.7225571  21.6875339
  43.3537092  27.4673173   5.1175463  43.7888708  27.7013776   5.9373516
  42.4283876  27.3918817   5.3506047  76.2783623  76.6041660  48.3278608
  75.6163740  76.0500002  48.7412643  77.1133137  76.2375164  48.6188078
  72.4230099  60.9052849  47.0292664  73.3626509  60.7456636  47.1177101
  72.0118475  60.1904249  47.5152302  51.0691643  30.2495718   4.2482880
  51.6651106  29.6171808   4.6497384  51.4922285  30.4869580   3.4231228
  34.1449281  54.8482275  36.7488670  34.7821256  54.3883991  37.2954583
  34.4564363  55.7530689  36.7274904  59.1647680  22.2946926  26.1368378
  58.6497839  22.1165558  25.3498848  58.7777479  21.7332025  26.8085297
  81.5405424  18.5786958   1.8800028  81.3575895  19.2050453   2.5803240
  82.2888620  18.0743595   2.1991976  67.4394186  23.6474128   3.9490374
  67.7597101  24.1626449   4.6894320  67.6832063  22.7463623   4.1609629
   1.6266557  56.0725117  65.7490349   1.9441721  55.4235601  66.3769484
   1.2661764  55.5536509  65.0299597  54.0326691  69.9560976  35.7971668
  54.7079325  69.5672894  36.3531184  53.9303875  70.8469534  36.1320496
  20.0846311  77.2540188  31.1998558  20.9077856  76.8298864  31.4422512
  20.1268884  77.3318815  30.2467656  84.8121357  48.4829092  26.4595056
  85.1786804  49.1680050  27.0185375  83.9304543  48.3393717  26.8034101
  69.9666119  61.4860010  26.1682129  70.4458380  60.6671667  26.0413790
  70.6452656  62.1337366  26.3582182  47.2350311  75.0113630  35.5944061
  46.8149757  74.6176672  34.8296928  48.1497908  75.1215696  35.3349900
  68.1401920  52.3893023  24.0018725  68.3941460  53.1648970  24.5020723
  68.7306166  51.7017365  24.3098950  39.3510046   2.8063199  54.8338223
  38.5459985   3.3225820  54.7929955  39.0566435   1.9197556  55.0426006
  77.8961086  68.7064362  26.4845252  78.4526539  68.4780788  25.7399821
  77.9567719  67.9511642  27.0694351  67.1371698  23.3541346  56.3406134
  68.0273914  23.3208275  55.9904242  67.1035719  24.1750121  56.8317986
   2.6104566  80.3532791  50.1342583   3.0869600  80.8240318  50.8180475
   2.9517004  79.4599533  50.1761866   8.2967779  58.6492634  22.9784560
   7.4891207  58.1767035  23.1799889   8.1795999  59.5079708  23.3848143
  67.1318388  56.7102861  59.0100336  67.4587822  55.9575796  59.5027590
  67.8865576  57.2943974  58.9362669  68.3482981  55.2337646  34.8988056
  68.5810995  54.7021008  35.6599665  69.1251898  55.2056265  34.3403411
  87.2937202  36.1001825  57.3505116  87.2641563  35.1443839  57.3930550
  87.6260376  36.3679075  58.2073212   7.2636434  81.9811153  43.1003141
   7.4698469  81.0476303  43.1483936   6.3637373  82.0112038  42.7755260
  36.8733079  10.5764147  10.7783993  36.7878158   9.6231743  10.7623394
  37.3383195  10.7614704  11.5943344  19.6775045  16.7791650  22.7244210
  20.5806484  17.0469663  22.5545835  19.6717682  15.8366296  22.5576210
  30.9233631  67.5843004  69.6757719  31.6254868  67.8073363  70.2869296
  30.4055561  66.9240860  70.1364566  80.0270462  62.8101635  53.9413643
  80.3561020  62.1865988  53.2939720  79.0767527  62.6971245  53.9213610
  22.8212663  66.0040998  35.7613921  23.4676573  66.6639900  36.0122871
  22.5337145  65.6229258  36.5910006  81.6247272  55.7712364  44.4888258
  81.9056129  55.5544138  43.5998249  82.4379921  55.9559441  44.9586201
  82.6961613  74.4302559  59.0612507  82.7558517  74.0480232  58.1857157
  83.5638428  74.2939663  59.4417620  52.5533421  71.2126399  71.4929667
  53.3406384  71.0948039  72.0244867  52.0230610  71.8387748  71.9859004
  57.6723433  60.2521801  59.9218273  56.7531776  60.1568365  59.6722698
  57.8422642  61.1918497  59.8556566  74.3345404  77.2918415  62.4396038
  74.8761082  76.5071678  62.5246477  73.4444666  76.9576693  62.3285675
  65.3900337  31.8884039  55.4152298  65.0449419  32.7604389  55.6067991
  64.6313953  31.3931417  55.1063347  73.2331038  65.3918028  44.5035696
  72.7592087  65.5067635  45.3272438  72.7933216  65.9803772  43.8900566
  65.0223207  31.5047860  43.8896227  65.4333258  31.5669823  43.0273962
  64.3210268  32.1559072  43.8681936  56.2312317  58.3392429  47.6629066
  56.1439943  58.2683420  48.6134815  56.4282703  59.2631674  47.5087261
  71.2491322  77.6763391  59.1654873  70.5573940  77.0211887  59.0732527
  71.9238520  77.2405767  59.6861506  38.2082452  23.4214112  61.0911560
  38.5269632  24.3211648  61.0198069  37.3363771  23.4441659  60.6967449
  87.4412458  34.8612115  69.6000242  87.2052400  33.9800164  69.8899174
  87.0481890  35.4412076  70.2522087   8.6715355   2.1965215  61.4515162
   7.9521932   2.1312043  60.8234119   9.1218843   1.3542458  61.3883400
  16.6015281   7.9323861  39.9383211  16.7361202   8.7936112  40.3338003
  17.4601211   7.6918694  39.5901823   7.3690262  30.5566689  55.3105116
   8.1267967  31.0154054  55.6732416   7.2336807  29.8145673  55.8997440
  66.0081213   9.1819379  63.4447527  66.0748332   8.3972737  63.9889002
  66.4649790   8.9518830  62.6356888  61.6927910  47.6458263  46.8162680
  61.5089369  48.5760593  46.6855049  62.1065664  47.6023293  47.6783180
  71.5096855  40.7697153  43.6666679  72.3731422  40.6202269  43.2815361
  71.3163280  39.9617243  44.1420555   5.8152983  73.0208445  19.3591917
   6.3205835  73.8322401  19.3085802   5.1961824  73.1684303  20.0741291
  82.5481415  68.4431171  43.0846643  82.4097061  68.0634165  43.9523602
  83.4489059  68.7662649  43.1055641  81.8387222  66.8870115  28.0241370
  81.3062382  66.8807125  28.8195324  81.5510941  66.1147308  27.5372267
  62.3845060  61.6620775  16.2097271  62.7434309  61.9761987  17.0396336
  63.1082685  61.1885019  15.7997044  85.0594330  57.9345703  35.2519321
  84.6820927  57.0878172  35.4903746  85.2179718  57.8694820  34.3101978
  78.5606766  19.8419297  49.8297071  78.0144835  19.1689610  49.4234848
  77.9801607  20.2766800  50.4543877  59.9981165  55.3817272  42.9247856
  59.8489714  56.3190269  43.0490923  59.1680527  55.0505161  42.5819588
  71.0480261  64.9515057  30.5504012  70.4241657  65.2340412  29.8816705
  70.8921385  65.5414438  31.2879014  28.0897066  36.0887623  11.7581141
  28.7777063  35.6422925  12.2516155  27.9873487  36.9320869  12.1992040
  10.0928137  65.0293350  36.6422200   9.7149584  65.6486320  37.2666645
  10.9841368  65.3474998  36.4988804   0.9085605   0.5525534  16.3095959
   1.2368819   0.0816291  17.0755394   1.4850566   1.3125651  16.2304314
  79.9271822  71.7381048  69.5461512  80.2552795  71.6646576  70.4423571
  78.9762259  71.6720390  69.6330643  52.7111752  37.0354511  63.4276645
  53.3368332  37.7414752  63.5898922  52.8486473  36.7997266  62.5101851
  84.7680950  46.4970112  32.2130585  85.5478573  46.9578218  31.9034553
  84.1294479  47.1907568  32.3776364  71.4844799  60.0064516  17.1524644
  71.8200159  60.7738686  17.6158404  72.0206308  59.9509048  16.3614619
  67.9306783   1.9166085  46.6513109  67.8158559   2.0560929  47.5913048
  68.8726892   2.0089337  46.5087795  82.9910278  67.8748417  36.8742108
  83.9407444  67.8630829  36.9931388  82.8626156  68.2675457  36.0107732
  53.2591238   6.9635579  33.8864374  54.1553201   6.6375443  33.8041759
  53.2861509   7.5503919  34.6421671  83.1872749  63.7842989  21.9075561
  83.4594822  64.6542311  21.6154146  82.7734852  63.9356041  22.7573299
  85.7217026  60.4960918  26.8128395  86.1692905  60.5757093  25.9704828
  85.4837132  61.3941002  27.0434308  31.5037748  59.3038702  40.6156445
  30.6209108  59.6678638  40.6811428  32.0555994  60.0529575  40.3907061
  80.3326280   0.6944891   8.7865170  80.9953268   0.4307266   8.1481560
  79.8833902  -0.1191429   9.0154751  18.5982725  66.3338327  50.4250813
  17.7157900  66.3433504  50.7957125  18.6366579  65.5224228  49.9187469
  75.2714079  17.5605008  39.4382715  75.9078520  17.0831391  38.9060187
  74.6330946  16.8972012  39.7006273  18.0357858  56.0374355  66.3644266
  18.1482050  55.8513069  65.4322529  18.9100668  56.2833548  66.6667080
  76.5975571  57.6047325  40.6064224  76.5325880  58.5583401  40.5550623
  77.3083305  57.4462032  41.2276316   2.6641931  18.1626317  37.0432615
   2.1893921  18.2241055  37.8721261   3.4680690  17.6913354  37.2621083
  61.5603502  13.7477823  17.2962006  61.4659269  14.6365019  17.6389893
  62.5060327  13.6170097  17.2269257  25.1053228  24.3603894  28.0904102
  25.7967748  23.7188813  27.9273391  25.4743948  24.9479768  28.7497735
  81.5129154  18.7112710  29.5224023  81.1763685  17.8152081  29.5155478
  82.2073667  18.7113378  28.8636374  31.7974779  43.4451771  59.5009947
  32.2802564  42.6203203  59.4483137  32.4766752  44.1164160  59.5670748
  23.6282274  74.0867424  19.9793422  23.8587019  74.9460077  20.3325725
  22.6832411  74.1330957  19.8341167  21.7893781  24.6217057  65.6300163
  20.9286537  24.8178861  65.2600193  22.4045171  24.8206803  64.9241495
   7.7462330  10.5216310  44.6136475   7.2402992   9.9979875  45.2349901
   8.2347765   9.8782250  44.1002369  19.0467665  69.7197723  65.2710199
  18.9507982  70.3522158  65.9830856  18.9734003  68.8659763  65.6974983
  65.7594538  82.9167938  20.3388000  64.9530888  82.7551079  20.8285570
  66.0693216  82.0450974  20.0931048  75.0680883  15.4926725  14.4810970
  75.7922990  16.0965391  14.6457012  74.6923502  15.3278967  15.3459080
  86.0452080  53.4882736  72.0061016  86.0971069  52.9407549  71.2226725
  85.1952648  53.9232874  71.9384146  63.0314541  46.1476088  63.1061649
  63.6678791  46.8326426  63.3109236  62.2989178  46.6138792  62.7034092
  39.9403371  26.2679479  61.2544441  39.7453108  26.4933774  60.3448391
  39.9824991  27.1107194  61.7063141  17.5157377  75.7381821  12.9491425
  17.1159384  76.5560532  12.6533711  17.5161478  75.1775074  12.1733332
  27.6466646   3.7272546  12.6431274  28.4550752   3.5128495  12.1775651
  27.8498640   3.5630891  13.5639942  76.4471054  51.9210339  40.9676313
  77.3436546  51.5996981  40.8718443  75.9864950  51.2144566  41.4202023
  33.6765852   9.5756051  48.3798885  33.2798185   9.4296739  49.2386723
  33.0131139  10.0601670  47.8887320  45.9934425  82.6004410  62.0805693
  46.5134382  81.8290997  62.3061132  46.2272644  83.2493591  62.7442408
  18.0030176  55.2176619  40.0195789  17.6396105  54.7058153  40.7422018
  18.1472513  56.0878849  40.3912449   3.2658026  79.4755650  35.1080418
   4.0392229  79.6736050  35.6360817   3.6180231  79.1358852  34.2853689
  40.0317659  27.1963307  70.3640795  40.0910654  27.0703504  69.4170618
  40.1409712  26.3185117  70.7297802  50.8983411   8.0459783  36.0890651
  51.0071649   7.2450826  35.5762744  51.0991563   8.7524983  35.4752851
  72.8724718  47.9928541  45.1734924  73.1415749  47.3230982  44.5448112
  71.9627142  47.7771473  45.3785419  38.1752481  19.8542211  18.4957170
  38.4123125  20.7752130  18.3870280  37.2208967  19.8596284  18.5692871
  11.6399977  60.3145838  44.1511869  12.3521826  59.7513676  44.4541883
  11.2105676  60.6104517  44.9538612  86.4723396  68.8814735  48.9228106
  85.6586647  69.3747663  48.8187218  87.0857334  69.3012381  48.3196735
  85.8903217  72.2569704  24.6267295  85.5438709  72.2558928  23.7344289
  85.6185722  73.1006241  24.9881577  12.2485277  63.4243870  23.4536672
  11.3666555  63.0910873  23.2880020  12.2848722  63.5443926  24.4026208
  17.0665857  72.2724009  41.3602448  17.2948000  72.8015995  42.1245098
  17.0222589  71.3763475  41.6939592   0.7271883  59.5575953  35.7322788
  -0.1699808  59.7993326  35.9622407   1.1627409  59.4247580  36.5742278
  33.8404836   0.7934281  51.9754076  33.0502786   0.7678410  52.5149870
  33.9571466   1.7199799  51.7653275   9.1136476  38.3589292  20.3371906
   9.0280077  37.4075747  20.2753782   8.3326647  38.6392117  20.8144116
   2.1180525  21.0991666  70.1307487   1.6189089  21.7278287  69.6093321
   2.4568548  20.4728982  69.4910383   8.0437204  83.2490921  45.3447866
   7.9181024  82.8619480  44.4784307   8.6706659  82.6694965  45.7775068
  34.6925726   4.1066167  70.3523064  34.5431604   4.3894860  69.4501448
  35.5018224   4.5477197  70.6107140  40.7120409   8.5693166  58.0731583
  40.2897348   9.1696259  57.4587393  41.3224592   9.1193578  58.5641432
  46.3619795   3.6016652  53.9760494  45.4455843   3.7026879  54.2334461
  46.5267076   4.3354127  53.3838463  82.2932720  66.2423086  24.2172980
  83.0929852  66.7681074  24.2320752  82.5732327  65.3724623  24.5022941
  61.3432684  18.7640092  50.1972914  61.9094267  18.5609719  50.9419203
  60.4543867  18.6797139  50.5422640  78.7164354  56.9572735   2.7801195
  78.8776588  57.7043104   3.3564654  78.0297518  56.4577436   3.2218990
  74.9472523  74.3818855  40.0628233  74.3685627  74.9671412  39.5741224
  75.2842426  74.9209213  40.7784414  48.5304737  69.0214968  56.7035294
  48.4246445  69.8109913  56.1727381  49.1025448  68.4577227  56.1828327
  18.5156526  24.2947671  28.2769036  18.9260521  25.0577828  27.8699303
  19.1709890  23.9716336  28.8952518  71.2488556  67.5847530  23.0864596
  70.5021381  68.0586720  22.7203345  71.8752384  67.5303602  22.3647141
   1.9807169  77.1240711  41.4670420   1.6047975  76.7442322  42.2611761
   1.5829107  76.6269827  40.7522821  70.2669573  74.1922092  50.5105686
  70.8346367  74.9576378  50.4205942  69.4707727  74.4271612  50.0340080
   2.6933977  52.1884060  52.2495365   2.4308893  51.2720490  52.1622849
   2.2318956  52.6381874  51.5417576   1.2883779  79.7868109  19.2698824
   0.6753847  79.8928738  18.5424066   1.0463449  78.9501715  19.6669865
  65.2919483  70.5566835  50.5366564  65.8338928  71.2531424  50.9074259
  64.5400715  71.0134029  50.1594067  43.5219373   9.3483445  62.5897026
  44.0008535   9.6835706  61.8317509  42.8102102   9.9750611  62.7196550
  28.3368578  18.8628098  28.0254698  27.7500620  18.1255242  27.8572083
  27.8105917  19.6376321  27.8281617  17.4700376  77.3370934  25.1186061
  18.0818292  77.3955870  25.8524513  16.8341848  78.0339670  25.2807379
  63.6014462  81.8242550  13.0288577  63.5055017  82.7346897  12.7493179
  62.8931570  81.6912270  13.6588228   3.8320944  55.4700708  35.7984567
   3.8461038  56.0268259  36.5769553   3.2255194  55.9082174  35.2015328
  81.6334915  69.8617887  47.4759483  81.0193157  70.5171347  47.8069162
  81.2088013  69.5088005  46.6941118  66.6888475  78.7548399  39.1733575
  66.1306429  78.5865116  39.9325037  66.7180157  77.9191542  38.7075067
  27.3240270  33.6983487  28.3135557  28.2168665  33.4051129  28.4954333
  26.7904462  32.9082105  28.3984280  85.1950359  77.8636026  43.3886766
  84.3938255  78.3451223  43.5946655  85.2887630  77.9492950  42.4399376
   4.0327760  54.7034073  49.4721603   4.3913957  55.5641842  49.6882534
   4.4900152  54.4476843  48.6710548  23.8673677  15.1699731  29.3486238
  23.1530466  15.5646417  28.8484073  23.4357633  14.7531411  30.0944114
  59.3588734  54.4807625  13.5075271  59.5352745  55.4045582  13.3294308
  58.8077164  54.4887018  14.2900813  52.8703268  35.8564564  17.2362621
  53.3892877  35.3226753  16.6346081  52.0282323  35.4047485  17.2916992
  84.7360420  57.2036886  70.9015369  84.5245361  58.1173420  71.0931969
  85.5864620  57.2414494  70.4638195  51.4253855  51.2645578  57.2279167
  50.8906031  51.7867231  56.6299343  51.2812519  51.6615725  58.0868912
  26.9936552  17.5210282  30.9594488  27.6088419  16.8468854  31.2480760
  26.5584650  17.1378991  30.1978397  67.6150036  80.3146935  11.3514686
  68.3769608  80.1514244  11.9073403  66.8691301  80.0232315  11.8758333
  84.0415478  49.9994612  47.4618387  84.1584587  50.1674509  46.5267754
  83.2828712  49.4176102  47.5076246  74.8448007   8.0655095  46.5043736
  74.0452068   7.5697133  46.6806269  75.5484312   7.5157163  46.8491364
  17.1564314  42.5304031  67.2535086  16.7637560  42.4060965  68.1175566
  17.1172067  43.4754038  67.1063042  57.6053102  59.4423910   1.1736115
  57.5135572  58.5014196   1.3232144  56.7291029  59.7308393   0.9180697
  30.7689085  12.8419015  36.8689489  30.0235452  12.4975965  37.3609948
  31.3557138  12.0924947  36.7675138  18.5188600  44.8202372  29.3604255
  18.2957193  45.6659508  29.7492790  18.3106252  44.9212646  28.4316301
  70.8836555  67.8709841  37.2776818  71.8208599  67.9865646  37.1210933
  70.7369137  68.2508945  38.1439185   3.4727976  68.1752110  26.4027262
   4.2503282  68.4056425  26.9112253   2.7688619  68.1279850  27.0496321
  84.3079472  70.8446980  47.9720831  84.2444611  71.7927647  47.8564310
  83.4060764  70.5606508  48.1210184  71.6125822  80.5009556  34.2783237
  70.6563759  80.5407047  34.2604709  71.8629885  80.3478336  33.3672357
   0.5057165  36.7455912  45.4033470   0.6049749  36.1932564  46.1787891
   1.3301584  37.2285652  45.3461885  66.2761838  31.7096420   0.0098761
  66.1736543  30.8603473   0.4393109  67.1766717  31.7067524  -0.3147117
  80.7780416  23.4704920   0.4755123  81.0523469  22.6835342   0.0046785
  79.8240430  23.4043022   0.5172785  20.5937471   2.8111360   5.0739408
  20.8227052   3.5910890   5.5793887  21.2209978   2.1473214   5.3605545
  32.2195220  72.2258997  26.6719389  32.5318670  73.0450916  27.0561218
  31.6746545  72.4997950  25.9341502  57.6976395  61.3064098  42.2600842
  58.0878592  61.3937759  41.3904142  57.7951622  60.3785896  42.4742556
  84.7706567  74.2736479   0.3721865  84.2927943  73.4450002   0.4072006
  84.0926133  74.9446626   0.4511030  15.6241438  65.8712530  34.9207640
  15.3792688  66.4077568  35.6747079  16.3573858  66.3395166  34.5216179
  77.9109373   5.1944730  36.9524097  78.4072199   5.9894845  36.7577291
  77.0018568   5.4274365  36.7639327  62.4231243  67.2062349  32.0828509
  63.1637478  66.7304134  32.4587512  62.2418976  66.7547417  31.2585068
  56.8963385  55.0122404  35.2296352  57.4130201  54.3894005  34.7184181
  56.4409351  55.5405807  34.5741248  85.3657532  36.9182301  45.7866430
  85.8707237  36.3862538  46.4016581  85.9278297  37.6710868  45.6035805
  84.7835272  32.8253457  15.3680205  85.1430004  32.7294156  16.2499535
  85.4838579  33.2448670  14.8682475  25.6148519  10.3223416  60.1470327
  25.0533476  10.2053258  60.9133530  25.2346601  11.0683629  59.6832037
  34.7088709  14.0522572  57.7687931  34.6178045  14.8076055  57.1879482
  35.2761736  14.3605325  58.4754515  61.2532224   2.4693582  55.4884100
  61.5913858   2.8273389  56.3092184  61.7287531   2.9436013  54.8063564
  25.2021398  18.3306119  12.8256953  26.0899439  18.5833833  12.5724328
  24.7130766  19.1533467  12.8376961  23.9139005  48.7077188  51.5155077
  23.6886808  48.0240488  52.1464586  24.8562357  48.6078596  51.3803148
  37.5975153  79.5086765  59.4948912  36.9341776  78.8271093  59.3867826
  37.9997846  79.3190861  60.3425121  27.3966207  28.0449960  27.9254985
  28.2647886  28.3320901  28.2085061  27.0469179  27.5643441  28.6757779
  10.6834688  40.0229260  39.3378973  11.5529861  40.3743360  39.5294261
  10.0934305  40.7678124  39.4529247  69.9960232  74.9808455  60.9643221
  69.1057396  74.7149754  61.1944151  70.4047441  74.1833496  60.6278944
  17.8074858  67.2386456  24.4180274  17.6271173  67.5665665  25.2990294
  18.2442781  66.3987970  24.5598245  59.4033136  14.6283624  25.3188300
  59.6047487  13.6943910  25.3768063  58.8735666  14.8077962  26.0956168
  25.2901609  69.1738649   5.0392874  24.4911153  68.8859030   5.4807003
  25.3077610  68.6720129   4.2243822  15.2757665  55.7813406  51.2781906
  15.1354143  55.1461601  51.9803905  16.2018511  55.6898737  51.0540533
  45.0983572  68.6186647  39.6140504  44.3595886  69.1666698  39.8788977
  45.0920868  67.8912067  40.2361393  56.4858770  57.9189396  19.0073943
  56.3499451  58.7352943  19.4883537  56.4031124  58.1668377  18.0865633
  35.4380724  59.2650604  38.6579180  35.9919855  59.8090363  38.0980086
  35.9989187  59.0349722  39.3986869   6.5629026  81.8315506  19.3535364
   5.6994554  81.7002773  18.9617968   7.1083376  82.1442699  18.6317706
   3.2666036  68.3659792  56.6464424   2.5571749  68.5642767  56.0351992
   4.0446684  68.2906485  56.0940218  52.2863187  12.0738980  29.3482471
  52.7237882  12.8360841  29.7276425  52.4192323  12.1664235  28.4048462
  81.2684332   9.4419285  18.2282265  81.9459067   9.1220947  18.8240250
  80.5625902   8.7995144  18.3011826  30.5133459  74.9351072   0.5957280
  31.0709211  74.9825525  -0.1808675  30.6677362  75.7621098   1.0523084
  68.0574274  79.9365044  30.5635023  68.2696629  80.7115364  31.0836077
  68.8968706  79.4932413  30.4406762  22.1733274  29.3563458  38.9989376
  21.4934339  30.0057885  38.8195229  21.7007532  28.6109731  39.3695188
  85.9467506  77.0213223  19.4426513  85.3767776  76.2552452  19.3756402
  85.4765224  77.6196671  20.0232482  43.4372139  75.2892971  36.5509868
  44.0790367  75.9804916  36.3880801  42.6275730  75.7574511  36.7548037
  17.7447340  77.7213669  55.4801846  18.3857748  78.1165218  54.8892879
  17.4002859  76.9724464  54.9936628  73.6534841  53.2240053   0.3643711
  74.1760595  53.3674951   1.1533936  73.2247217  52.3808809   0.5111178
  26.7475054  67.4206591  55.9876013  27.0760938  68.1891966  56.4540911
  25.7960340  67.5249672  55.9945011  51.2638283  75.2361584  38.7099123
  50.7595778  74.6144056  38.1851387  51.2472916  76.0471821  38.2017756
  14.2894394  70.5177262  46.6495275  13.7439663  69.7444108  46.7933226
  14.2132837  70.6935194  45.7116938  67.0641206  65.9838071  19.5106173
  67.3506359  65.1034215  19.2675900  67.4595545  66.1359718  20.3689337
  30.0844605  53.1367329  49.4633818  30.1543886  53.9138105  50.0179005
  29.9666149  52.4131396  50.0788164  31.8576169  10.1224029  39.6863031
  31.8027186   9.5207584  38.9438462  32.7929688  10.1760769  39.8824358
  42.8391266  25.3826022  63.5203505  42.4539757  25.0607300  64.3353891
  42.6078176  26.3111258  63.4964466   3.6015970  65.7220688  21.1873698
   4.3434293  65.1790157  21.4538431   3.2959802  66.1254337  21.9998527
  21.3725042   2.9148242  40.8540821  22.1191978   2.8811359  41.4520359
  21.2829161   2.0178977  40.5320168  33.0810387  79.0380099  30.2222967
  33.6079056  78.2399943  30.1797533  32.3747904  78.8925758  29.5927787
   7.2754633   7.8893715  48.7840939   6.9139355   8.7381476  48.5289288
   7.8166705   7.6260310  48.0397940   6.9372954  71.2267284  69.4513718
   6.0739102  71.2257985  69.8646474   7.1328034  70.3015284  69.3029909
  65.4726927  20.2542500  69.3840061  64.8768132  19.5127157  69.2777671
  66.3238900  19.8539976  69.5614594  41.8365175  55.6647471  37.4636006
  41.0974581  55.7282618  36.8586326  42.5692112  55.3797629  36.9175482
   8.5634977  68.3942822  23.7121606   9.3790609  68.3139387  23.2175589
   8.2211859  69.2551473  23.4714007  21.6292620  21.1101818  67.3279858
  22.2806525  20.9151888  68.0017042  20.7971931  20.8341384  67.7122927
  30.5950482  76.8893292  28.8381553  30.3698618  75.9656939  28.9496064
  31.0527594  76.9246033  27.9982233  49.2309380   0.8909922  35.7377362
  49.3526936   0.0974627  35.2164698  49.2961359   0.5937512  36.6452742
  35.1640415  19.7016692  26.3205695  35.1530361  20.4245043  26.9479585
  35.9343886  19.1871226  26.5614867  27.4506330  10.1614618  35.8784103
  27.5615025  11.0818863  35.6401682  28.2900763   9.7553611  35.6624293
  81.6624484  77.5013962  49.8325586  82.4285708  77.7844235  49.3333721
  81.0906420  77.0928946  49.1826344  15.3087699   3.3925623  10.0979102
  15.1558626   4.3374497  10.1041675  15.3651786   3.1529319  11.0229111
  66.9974492  62.3088673  42.7379084  67.7761726  62.7430132  43.0862474
  66.3303349  62.4361876  43.4124327  30.9216196  61.6617683  27.3748779
  31.8150122  61.6922787  27.0326138  30.7081778  62.5744632  27.5689435
  17.0028603  35.2720904  37.8478742  16.5515566  35.9355950  38.3697152
  17.5856090  35.7722926  37.2765326  42.0339060  16.2401497   5.1584554
  42.6764345  15.6308389   4.7949523  41.5166569  15.7095039   5.7643408
  15.1599819  78.3709791  44.1856337  15.1882679  78.2697385  45.1370430
  15.2426893  77.4793842  43.8473272  11.4858925  35.6350374   3.8414162
  10.6448352  35.9988070   4.1180494  11.3419473  34.6889877   3.8190696
  26.5651543  79.3551600  44.0099525  27.4887020  79.2759368  44.2487240
  26.0917170  79.1828701  44.8238373  10.3450513   6.4000982  40.5319738
  10.9678733   5.8679056  40.0369024  10.1134384   7.1132779  39.9370241
  79.1501229  66.9009237  70.7686261  78.5460799  66.2122158  70.4910531
  79.2057221  67.4887041  70.0151962  59.6979094   5.6911546  26.5641570
  60.1651573   6.2483996  27.1865606  59.7288084   6.1754036  25.7390618
   0.6303055  72.2345784   9.9535400   0.9670264  73.1258622   9.8615336
   0.9547813  71.7748359   9.1792125  27.7519257  56.6742065   8.0831701
  27.4639113  56.3824275   8.9481246  27.1086771  56.3036159   7.4789137
  25.8896525  77.2074875  52.0949793  25.5233986  77.4778590  51.2529612
  25.4746611  77.7870139  52.7338505  63.3722241  67.1656480  26.2031007
  62.8099949  67.8718331  25.8846211  63.5955078  67.4222746  27.0978189
  80.2157054  76.5583560  39.1912913  80.8995066  77.1680781  39.4685745
  79.4048963  76.9372961  39.5307398  16.2490857  14.5516407   9.2383838
  16.3349199  14.5674205  10.1915967  15.7815182  13.7371385   9.0534562
  55.5591345  34.4123244  12.1186101  55.6816864  33.6737537  12.7150381
  54.7418213  34.2169905  11.6602707  26.7298841   9.6631855  12.8615570
  26.3632822   9.0554273  12.2193217  27.3008108  10.2364957  12.3500991
  28.7397718  25.0288773  26.1011863  29.1945171  24.9105287  26.9351125
  29.4200778  25.3275371  25.4976797  73.0723517  34.1859774  65.8900968
  73.6875622  34.8722587  66.1484949  72.2349446  34.6392814  65.7926748
  16.9159508  15.4273832  62.8822279  17.1419179  14.7862768  62.2083187
  17.1221662  16.2740326  62.4861336  46.7921097  74.8751768  16.1748135
  47.4957926  74.6964219  16.7985952  46.8142874  75.8245018  16.0543013
  23.7466025  21.3382745  42.0330715  23.0882549  21.4378643  41.3454008
  24.2186403  22.1709871  42.0351458  14.1134722  73.2671097   2.9194343
  13.6903698  73.2281759   3.7771648  13.9761955  74.1675958   2.6253054
  82.3016968  13.0090022  29.2801237  82.3789188  13.3313727  28.3821559
  81.4435926  13.3166492  29.5720863  85.4565368  55.4020002  52.2901726
  84.9173961  55.9047726  52.9007292  85.6281123  56.0066727  51.5682602
  28.4663892  29.8043013   7.1109331  28.6487722  28.8660622   7.0591974
  28.7635326  30.0582337   7.9846931  72.4202071  60.0258329  39.3008995
  71.5413652  59.6555117  39.2188478  72.5717388  60.0761893  40.2446842
  11.2462318  19.3490255  20.4902458  11.2513340  18.9517105  19.6194148
  10.3914130  19.1181362  20.8538461  58.9976582  74.0909281  12.7295494
  59.0197717  75.0234625  12.5147867  59.5365407  74.0136209  13.5168624
  87.1080674  21.4815497  17.3840129  87.7870504  22.1371579  17.5433624
  86.3088983  21.8741226  17.7353632  43.4662342  20.5372357  45.3173208
  43.6424685  20.5200434  44.3766403  44.2230082  20.1028109  45.7107592
  13.4822834  26.6761756  53.4378481  13.4825194  25.7488966  53.2003832
  12.5803161  26.8551087  53.7036848  36.4011002  17.4930358  51.6774416
  36.2255502  18.2991374  51.1920404  37.3199725  17.2979522  51.4934635
   0.8594591  57.5524738  14.1875029   1.2947900  58.3567789  14.4700134
   0.3704579  57.8069642  13.4049785  56.8905687  23.9214277   8.1106132
  56.6947365  23.0134797   8.3419448  57.3457575  24.2709398   8.8766915
  77.5918100  75.6512895  44.4942522  78.4892044  75.7281622  44.1702080
  77.4577675  76.4412388  45.0179386  33.7184334   0.2390789  22.6290989
  33.5683346   1.0037860  23.1849074  32.9178405   0.1590139  22.1105695
  24.5738918  73.8554510  35.5157518  24.1875918  73.0527678  35.1654553
  24.3716175  73.8302669  36.4509964  41.7159081  18.3118546  25.1474142
  41.7433453  17.9134417  26.0173249  42.6217842  18.5664666  24.9719119
  84.9441910  27.9359365  20.7445312  85.1693630  28.8563490  20.6089950
  85.1271343  27.7784944  21.6708016  38.0677826  71.3440815  17.4095750
  37.8532536  71.8625978  18.1850433  38.7246353  71.8648544  16.9474363
  38.0483031   4.4706696  22.0620775  38.8148618   4.0302771  22.4290586
  37.4080777   3.7706086  21.9345689  45.0579643  21.9024253  21.5471792
  44.8293972  21.0587215  21.1571121  45.1798820  22.4869943  20.7990813
   7.6488931  45.1308754  22.2898221   7.5695331  45.0282934  21.3414478
   8.5795242  44.9956158  22.4683189  35.0495982  17.4259305   9.4132519
  34.8656368  17.8709877   8.5860187  35.8775640  16.9703329   9.2611545
   3.9822251  28.2168984  32.1165180   3.4617844  28.0598211  32.9043627
   3.3979163  28.7057471  31.5369987  70.3372431  24.2420626  62.4039841
  69.4829893  24.0061283  62.7656746  70.9674072  23.9207840  63.0488873
   1.0167047   2.8327060   5.5258977   0.7417890   1.9672972   5.2230388
   0.3171655   3.4200191   5.2396452  38.3491683  33.0310273  32.5878143
  37.8432989  33.4798813  33.2652044  37.8438926  32.2411442  32.3954272
  14.5114929  81.9606823  42.9469490  15.2291233  81.7983317  43.5592270
  14.0723450  82.7375268  43.2932043  23.5777123  79.2222467  60.6262207
  24.2225344  79.5243293  61.2658978  23.2878620  78.3735543  60.9607935
  44.3389654   5.7712877  45.2992487  45.1249170   6.0175228  45.7869768
  43.6296892   6.2462080  45.7323837  33.6906195  19.2719233  45.2757931
  32.8857756  19.6586347  44.9309587  33.3904529  18.6052310  45.8935738
  20.1366837  78.9633632  39.1135526  20.9393246  79.4833207  39.0729451
  19.5967610  79.4069916  39.7676969  65.2411842  13.6615145  50.3204441
  65.0449896  12.8634179  49.8297501  64.4398355  14.1817522  50.2619171
  75.7746410   2.8976277   2.9721957  76.7258310   3.0005732   2.9426664
  75.4424763   3.5686600   2.3758611  50.6929302  18.3114398  65.9992123
  49.9337626  17.7473235  65.8520031  50.3370905  19.1999531  65.9868431
  14.1452443  77.4278981  69.1082678  14.5269537  78.2959325  69.2388217
  14.8292541  76.8205840  69.3902789  66.6610193   7.4736953  32.1582222
  67.4585438   7.6095533  32.6698184  65.9536457   7.7567023  32.7376676
  50.2497053  25.0818038  44.4340944  50.6713915  25.8217335  43.9971495
  49.7220039  24.6690011  43.7504625  31.3392687  26.4774847  28.6701560
  30.4122138  26.2437296  28.6236835  31.7455530  25.7525277  29.1451359
  42.8562386  44.7174290  18.0716610  42.7721483  43.7828186  17.8828132
  43.5394175  45.0219491  17.4743629  49.9578953  21.2432814  47.5148201
  50.8598185  20.9232354  47.5332212  49.8291111  21.6460633  48.3735514
  25.7749207  54.6033552  70.8028746  25.7953007  53.6743882  71.0327435
  25.5683167  55.0489119  71.6244745  28.1341577  13.7707376  17.9569900
  27.6046085  13.0343115  18.2627451  28.2781458  13.5926402  17.0275927
  49.9971151  14.3935692  21.3805723  49.7456169  15.2572703  21.0534620
  50.1552153  13.8753164  20.5914879  30.5063200  11.8889797  61.8067932
  30.5002117  12.2645843  62.6872015  29.8913026  11.1570513  61.8543816
  43.3207846  15.1867700  34.8797154  42.6037264  15.8192313  34.9250078
  43.4614706  15.0508869  33.9427114  12.0516045  69.4073322  65.4352522
  11.8866284  69.2813137  66.3696671  12.9594977  69.7072878  65.3906488
  20.6324148  21.1134148  12.2121656  20.7055449  21.7939401  12.8813207
  20.7834077  20.2951121  12.6852572  45.6956465  69.7750130  11.1624765
  45.7624085  70.7272199  11.2337232  45.1685412  69.5146826  11.9178689
  74.2636071  66.0286358   0.8238482  73.9962659  65.1100412   0.7931279
  73.4654854  66.5172246   0.6225657  22.1197636  60.1498988  66.0379744
  22.2097284  60.6353334  66.8580294  21.1932690  60.2314857  65.8117533
  16.8144972  75.5108246  53.3487749  16.6719992  74.5712712  53.4635162
  15.9633667  75.9067777  53.5359240  39.9757600  16.5389454  47.5769758
  39.0459776  16.4810681  47.7969360  40.0239134  17.2346389  46.9212866
  52.2234201  44.2645979  17.8244114  51.9940281  44.5880365  18.6956167
  52.8338909  43.5459042  17.9888177  29.9473643  51.4416838  36.4204454
  30.8568263  51.6338873  36.6488481  29.6405888  50.8670282  37.1217966
  86.9093649  60.9880058  71.1381673  87.5334828  60.4548303  71.6305463
  87.4411242  61.6841320  70.7523250  14.1521151  68.3925667  27.5459647
  14.0325768  69.3401876  27.6088738  13.2931597  68.0595329  27.2861171
  58.1622362  24.4401455   2.1990612  57.5643587  23.7611222   1.8864802
  58.1899357  24.3166184   3.1478530   9.1022498  68.8162592  37.0414925
   8.5152299  68.7648740  36.2871718   9.9808747  68.8159540  36.6616869
  31.7999721  28.7688518   5.5135232  31.3313532  29.1522622   4.7721571
  31.1868334  28.1323409   5.8811474  54.9142075  14.1966391  24.3845510
  53.9928341  14.4480288  24.4485950  55.3930426  14.9537504  24.7217894
  27.9493553  80.6622961   8.9407438  28.4952004  81.4457551   9.0076512
  27.4416048  80.7918328   8.1397170  33.3777935  51.8035677   7.1526688
  33.2903320  51.0429743   7.7271926  33.9205916  51.4946487   6.4272898
   3.3049762  31.9014597  13.5070109   3.3432290  31.1823058  12.8764677
   4.0431148  32.4643254  13.2734168  83.9211791  43.1079459  55.3417985
  83.3261626  42.6119429  55.9040849  83.4344904  43.2299125  54.5266370
  21.0296709  80.1577100  17.6357687  20.9092505  80.8620211  18.2726955
  21.6478903  80.5145976  16.9980597  54.2342234   4.3422782  51.8393183
  54.6581030   3.6781424  51.2957335  54.6826553   5.1575547  51.6146708
  28.1001449  13.1307757  37.8575182  28.2054019  13.9244664  38.3821225
  28.5052228  12.4408579  38.3830237  18.2980026  63.0652766  65.4184101
  17.5269093  63.3747057  64.9431161  18.2630553  63.5254196  66.2570272
  35.5264425   4.5485303  48.1052446  36.0642052   5.3366834  48.0287027
  35.5605745   4.1499117  47.2356606  22.7215225  63.4262744  42.6275635
  22.0674832  63.0609253  42.0317554  22.2151310  63.9557400  43.2435703
  41.7334890  17.4233389  64.8128080  41.2244606  17.0392144  64.0989685
  41.3689566  18.3017397  64.9212408  32.7053959  80.6020942   9.8957902
  32.0787127  80.8833232  10.5624318  33.3396990  81.3172558   9.8464739
  32.4896097  28.7438560  30.0564027  31.6467381  28.6357832  30.4969931
  33.0672240  28.1131959  30.4863596  49.8880768  35.4739213  15.9326255
  49.0681744  35.7542634  15.5259299  50.5618954  35.6933308  15.2891541
  56.4215851  14.5720267  63.0193472  55.7122135  14.1041768  62.5787401
  56.9991589  13.8809896  63.3435583  73.4719419  20.5915952  17.7861309
  73.4418488  19.6410155  17.6778603  72.6214457  20.8957839  17.4693382
  71.1852446  30.5057812  60.8000040  70.5605736  30.0532794  60.2332020
  71.9221070  29.8996115  60.8763218  17.9557862  56.7041365  62.3884283
  18.5862602  57.1081678  62.9846613  18.4907736  56.1751179  61.7966859
  69.4569397   6.9178206  66.1342669  69.5240450   7.1534741  65.2089548
  69.5703220   5.9674621  66.1482191  23.3393890  58.5426262  56.6202307
  23.8184673  57.7492455  56.8595266  23.4992249  58.6451390  55.6820536
  17.9686911  81.2121074  30.7219100  17.4259073  81.7889944  30.1844954
  17.4184973  80.4451445  30.8809137  49.3725824   6.8004709  69.2718077
  48.5296059   6.3573968  69.1753292  49.5455837   6.7837960  70.2130985
  40.0427611  61.7963460  50.1480913  39.1582377  62.1397903  50.0220156
  40.6182320  62.5206855  49.9023247  14.8876364  49.9169949  16.2379479
  14.9860317  50.7640555  16.6727304  14.0046007  49.9382332  15.8691156
  47.2108746  30.6199217  67.8509760  47.6455450  30.7652783  67.0106411
  47.8278923  30.9559155  68.5010767  12.4141574  32.2532678  49.6329069
  11.9833529  31.4102125  49.4918585  11.7252767  32.8188372  49.9819136
  32.3206115  23.0150175  41.7317963  31.8173242  22.3547149  41.2554169
  31.8693805  23.8388920  41.5478086  64.6361589   8.5834038  33.8245630
  65.1928997   8.9354837  34.5190501  63.8496017   8.2807827  34.2784119
  28.8210678   1.9472292  23.2313704  28.8201547   2.1601561  24.1645861
  29.2472363   1.0915949  23.1813455  31.3319523  76.0553256  49.4054317
  30.5291969  75.9873834  48.8885164  31.5610916  75.1492479  49.6121931
  87.7043819  11.2110949  68.5622072  87.9948997  11.6016829  67.7380276
  87.6005650  11.9545531  69.1561079  31.9829065  81.7348285  46.7475891
  31.8074686  81.4908402  45.8387852  32.6052744  82.4593940  46.6851854
  80.1417092   5.8577967  28.8140774  80.0614056   6.7879021  28.6026859
  80.6111971   5.4825270  28.0691051   4.4807441  80.5071881  29.9289441
   3.5903818  80.5729735  29.5837545   4.7564442  79.6165353  29.7122431
  72.0628071  19.2002404  32.8546715  71.9447470  19.7532165  32.0823312
  72.3002148  19.8109400  33.5524654  13.8872940  75.2955607  39.0436268
  14.1764433  75.2732560  38.1314158  14.6928103  75.4120007  39.5474315
  48.2354116  24.4486260  22.9382896  48.5438347  25.1039529  23.5641098
  48.5152483  24.7814250  22.0855498  33.8225395  57.5812700  40.5907393
  34.3382151  58.2521489  41.0382080  32.9884560  58.0093935  40.3977346
  49.6799183  23.8431025  53.1001616  49.9766207  24.2104220  53.9327955
  48.7255573  23.9070845  53.1366777  78.1949234  20.0210953  16.2295461
  78.6601448  20.6784511  16.7469287  77.4286413  19.7985315  16.7582321
  43.5758162  21.4352083  36.4412928  43.2802057  21.8956971  37.2266555
  43.8925886  22.1283913  35.8621693  13.7538178  71.1867967  27.5431919
  14.4495613  71.2077954  26.8861270  13.2594330  71.9928184  27.3943806
  25.4042179  69.7858575  21.0697103  24.9482090  70.3897694  20.4835558
  26.1202271  70.3038397  21.4374757  20.7316715  58.1478265   8.8444006
  20.7103283  58.9233711   9.4050312  20.8493979  58.4947207   7.9600728
  63.6211109  13.9557409  24.6722174  63.1889677  14.8009455  24.5492744
  63.9103031  13.9650702  25.5846357  17.6483583  10.5728805  45.1853085
  18.3590806   9.9408555  45.2932453  17.9715788  11.3706112  45.6040955
  31.5456986  24.7728491  19.8354995  31.3576484  25.2467561  19.0253890
  31.1150408  23.9254665  19.7227573   8.9921427  18.4374475  21.5959239
   9.2153376  17.5069821  21.5703988   8.0548453  18.4642828  21.4036083
  43.0415249  24.0308356  47.2231483  43.0994558  24.7326946  47.8714323
  43.9506578  23.7792206  47.0606709  29.4210768   3.9972305  48.2691383
  29.8455071   3.7949100  47.4353743  29.2071080   4.9282855  48.2092571
  32.2863102  21.8045330   1.1298368  31.8489981  22.6171088   0.8754571
  32.3053241  21.2816930   0.3282702  38.1635880  22.3330069  21.4841509
  37.4164677  21.7428780  21.5830922  37.8057313  23.0994368  21.0360932
  79.7263203  80.7196668   7.3723805  80.6786452  80.6362244   7.3239744
  79.5038162  80.4170200   8.2527947  22.4939394  14.4285417   3.7653983
  22.8779984  14.5647979   4.6315199  22.5851154  15.2746344   3.3271664
   7.1114738  73.5406336  32.7353811   7.3046524  73.1361857  33.5811567
   7.8320367  74.1544977  32.5932837  84.6415234  35.6395864  24.1760874
  84.9133587  36.5343189  24.3805170  84.3228817  35.6861210  23.2746792
  63.6911774  18.7565887  29.6039772  63.0734539  18.1790519  29.1555357
  63.4858561  18.6517930  30.5330062  58.1585360  18.2556653  10.9883487
  57.8100824  19.1411471  10.8847606  57.7227497  17.7454066  10.3057384
  52.5451136  11.0925984  15.7683408  52.9141426  11.2999439  16.6268623
  51.6001892  11.0552287  15.9164941  59.2789078   0.7820334  25.8063388
  59.7065830   1.5321836  26.2193775  59.8440838   0.5619325  25.0658226
   7.9231188   0.2921159  58.7637520   8.7173006   0.2400633  58.2319546
   7.8930589   1.2015097  59.0609550  50.1162815   2.4186657  12.5691664
  51.0643768   2.4833906  12.6838815  49.7580099   2.5763974  13.4426630
  68.6307573  22.3552561  15.6708920  67.6759434  22.3665762  15.6043315
  68.8414431  23.1095314  16.2212658  39.5939088   4.6006075  31.9931912
  40.3682566   4.5673788  32.5548935  39.6858931   5.4198080  31.5066934
  58.0430746  20.5198455   3.8596740  57.6898003  20.3544426   2.9855627
  58.0418062  19.6622086   4.2847508  78.7032652  34.1379833  41.6950226
  78.0465984  33.4646487  41.5171576  79.0487432  34.3692946  40.8328295
  87.3761027  54.8993961  68.9028118  86.7988770  54.1602592  69.0944467
  88.2165711  54.4966320  68.6845849  46.0775995  15.8972299  53.2705688
  45.9805632  15.9363317  52.3191023  46.5328360  16.7078340  53.4984064
  53.5011864  17.3671579  17.9741442  53.1895208  18.2671428  17.8786242
  53.9653587  17.3620093  18.8112509  21.5884304  20.9055948   3.2601708
  21.3648582  21.8339682   3.3262804  20.7962751  20.4478383   3.5415563
  40.4053259  19.1700184  30.5374622  41.0182238  18.5416031  30.9191394
  40.3698063  19.8856747  31.1721325  50.6253910  25.2182889  64.2599010
  51.2884045  25.9086752  64.2632627  50.4097652  25.0887895  65.1834631
  82.0371351  24.4196844  22.8928041  81.8129101  23.7948990  23.5824394
  81.5551254  24.1122246  22.1251011  38.4061575   2.2120254  59.1937780
  38.5293722   3.0894971  59.5558500  38.6703563   1.6222802  59.8999166
  11.7142296  24.0805769  24.6215200  12.5360489  23.6452389  24.3949676
  11.3629675  23.5659528  25.3481627  32.8578741  72.4745181  20.0625753
  33.7829954  72.2360399  20.0033140  32.7426035  73.1538251  19.3981302
  70.6371260  44.0523863  67.9657984  70.4232025  44.7987080  68.5256863
  71.5906239  43.9829206  68.0132294  78.7009089  45.1781626  71.5449658
  79.5787375  44.9805121  71.2185044  78.1313841  45.0657095  70.7838956
  81.4369927  65.5801859  35.7997274  81.5349636  66.5098002  35.5936909
  80.4919134  65.4507723  35.8791518  57.0540333   7.7969474  28.3248186
  57.6126194   8.3915371  27.8241396  57.4672318   7.7491313  29.1869164
  85.1361833  81.9282634  49.0677834  85.4601274  82.8015024  48.8469982
  85.9264193  81.3964152  49.1620970  15.3562045  60.4646397  24.5905495
  15.1726043  59.5977259  24.2286372  15.0223744  60.4256344  25.4868007
  46.4804459   6.0938025  20.1394343  47.1928692   5.8546275  20.7322907
  45.7373619   6.2696463  20.7166171  27.3606110  10.2949643  15.4888856
  27.8277206  11.1164784  15.3367174  27.3161960   9.8814559  14.6267545
  43.0975294  22.6148772   9.9699527  42.3033667  22.6460719  10.5033994
  43.4405804  23.5080314   9.9986625  59.3006516   6.2143600  16.6974354
  58.4487200   6.0269457  17.0915341  59.8602057   6.4500964  17.4374092
  65.7978010   6.8474579  37.5646353  66.7337370   6.9904304  37.4238682
  65.5096436   6.3664657  36.7888498  70.9742355  46.6342020  36.6712713
  70.7279348  46.3676548  37.5570035  70.5091143  47.4590063  36.5313029
  74.2918236  57.6474503  33.1245637  74.4950039  57.2243741  33.9588046
  74.7649986  57.1306685  32.4724317  24.7681219  56.5071538  29.6178150
  24.6564180  55.8529904  30.3076148  24.1860802  57.2237280  29.8707533
  65.8818340  22.9490709  31.3858175  65.2282715  22.2663879  31.5375757
  65.5616808  23.7018728  31.8828344  29.0775013  23.7277794  66.9291401
  29.9430966  23.9705658  67.2578239  28.6961317  24.5521188  66.6270638
  84.2523043  56.1626474  45.8107464  84.6065323  55.3459946  46.1626450
  84.8284190  56.3771133  45.0770370  23.7954092  18.1077254  28.4544778
  23.8114905  17.8551757  29.3776202  22.8650045  18.1465399  28.2329583
   1.3461954  70.4415587  30.1818395   1.9345243  71.1947074  30.1283026
   1.8570430  69.7702566  30.6341910  19.2654312  35.4678011  29.2418838
  20.0893450  35.0025845  29.0970612  19.5149207  36.2485623  29.7362471
  52.4199867   5.5872232  11.2132227  53.0232286   6.1179107  11.7335117
  52.5707197   5.8685994  10.3108156  18.9412642  29.9620533  32.0411301
  18.8154173  29.2890143  31.3722420  18.7499976  30.7852030  31.5916061
  85.3191815  73.7650332  70.9746981  85.0548039  72.8805211  71.2276363
  86.2393771  73.8227305  71.2318850  17.9277587  31.0204625  36.5387368
  17.3686850  30.3474760  36.1504579  17.3154140  31.6555691  36.9100928
  80.9666143  80.1318988  28.9888096  80.4352889  80.0283280  29.7782397
  81.7294011  80.6329288  29.2775249   2.2760943   2.1745209  22.1796823
   3.2035223   2.3952815  22.0938110   1.8153158   2.9291233  21.8129539
  13.6805756  66.2942043   8.8900363  14.3745834  66.9250324   9.0814638
  12.8735096  66.8075541   8.9266706  27.7178717  33.0583858  18.6510587
  28.1819391  33.8530278  18.3875847  27.4758601  32.6376677  17.8260386
   6.1438615  64.9556628  24.7612476   7.0209963  64.9039021  25.1409626
   6.2219340  64.5120349  23.9166570  27.9102451  68.2867828  19.0739298
  28.5501606  67.5757459  19.1080165  27.5352175  68.3138981  19.9541867
  37.7572513  20.0722551  37.7766705  37.9957366  20.3385997  36.8887424
  37.2230482  19.2872214  37.6559091  43.8662893  62.8583100  32.4925017
  44.5252831  62.1650937  32.5299835  44.1766388  63.4468523  31.8043661
  75.6809139  11.6107833  17.6160395  76.3011074  12.0372748  18.2073903
  74.8536396  12.0683599  17.7659595  35.2830148   2.8607297  10.8194375
  34.3738461   2.5671393  10.7607210  35.2270269   3.8162696  10.8130705
  19.0977175  63.4588650  48.7707663  18.1450302  63.5085443  48.6923409
  19.4259722  63.9274684  48.0033779  37.9654050   2.6449507  24.7150493
  37.3001742   3.3264703  24.8111272  37.5301957   1.8429720  25.0042820
  64.4236231  38.8700366  49.1046047  64.9320889  38.5465193  49.8482656
  64.1617870  39.7545576  49.3601370  77.7775621  36.4701939  32.6869321
  78.2720757  37.0070386  33.3061934  77.1061134  37.0590186  32.3424435
  42.2719271  77.3662344  62.3888588  42.4954636  78.0605230  63.0087185
  43.1114657  76.9630459  62.1678448  61.7040539  12.5570261  40.6241465
  61.0063648  12.3368776  41.2413979  62.1669388  13.2865703  41.0361338
  56.3768768  16.3767838  24.9618649  57.1011209  16.7287338  24.4443369
  56.1367464  17.0897555  25.5536771  51.0929060  32.8745651  51.3103151
  50.8535290  32.1257806  51.8564367  50.2971077  33.0761266  50.8180618
  64.5594072  31.7491388  18.1965029  64.9813509  32.5671911  17.9338551
  64.4957829  31.8077683  19.1497838   4.1505916  70.1020995  31.5931392
   4.6877915  69.3580189  31.3211226   4.6111591  70.8680227  31.2504005
  64.3224001  28.0101347  34.6621966  63.8130140  28.5142946  35.2966857
  64.5914078  28.6530089  34.0060091   2.9371282  17.2786212   1.3165426
   2.5175592  16.4932811   0.9652129   3.8740560  17.1236038   1.1966953
  58.7469053   5.9214848  38.3232260  59.6492863   6.1446381  38.5515690
  58.3746672   5.5712223  39.1325378  76.8143463  23.5438800  19.8701072
  77.6770544  23.1751633  19.6803498  76.2122345  23.0374122  19.3249631
  48.4440613  15.7278168  16.4169228  49.1203499  15.1622033  16.7896724
  47.6794624  15.5869091  16.9752872  66.2048435   1.8729341  48.7757826
  65.9639502   1.6993117  47.8658056  65.3980207   1.7258391  49.2693758
  12.7747989  10.9648490  34.7113061  12.0806658  11.2935102  35.2826142
  12.6634431  10.0142038  34.7216058  62.5021172  11.3607216  15.6760156
  62.0770931  12.1557796  15.3543496  62.6645374  10.8407569  14.8889410
  30.2675945  79.5561773  23.8322783  30.0330526  80.2031913  24.4975567
  31.1650259  79.7803086  23.5860801  60.1398325  17.7620065  26.2133193
  59.1969013  17.9185414  26.1622524  60.3252316  17.7202487  27.1514630
  37.4058087  79.9119371  14.4809008  37.4434168  80.1768371  13.5618556
  37.3384077  78.9575356  14.4525075  76.7808247  27.9138041  53.4252834
  76.1946535  27.7639294  52.6835489  76.6416883  27.1587324  53.9968967
  49.1930962  12.2120726  46.7243576  48.7199402  12.9147089  46.2786484
  48.5065269  11.6298985  47.0498180  82.1315861  22.4509454  37.9211617
  81.7342567  21.6426444  38.2452202  81.8469810  23.1228399  38.5406733
  68.3859777  20.8082271  21.0680008  67.7456903  20.8992410  21.7736745
  67.8587723  20.6464791  20.2856207  72.4514971  74.3969324  54.1872978
  71.9376455  73.8794145  53.5673285  71.8765030  75.1236668  54.4270277
  60.4302406   1.3060349  18.8366449  60.5500078   0.4579977  18.4091854
  59.5178556   1.5360811  18.6609590  78.5775034  74.3677525  49.3808596
  77.8343575  73.9154152  49.7800557  78.5510724  74.1058354  48.4605686
  48.2352924   4.5639926  43.7532616  48.8976383   3.9691815  43.4015131
  47.7127743   4.8175338  42.9923916  48.2589102  26.5011120  38.7552094
  47.9520321  25.9583783  39.4814992  49.1546822  26.7382169  38.9952183
  71.8028450  14.5008361  31.9419169  70.8542776  14.4036889  32.0256519
  72.1495914  13.6260021  32.1170306  42.5367975   4.8391968  30.4598117
  42.2058201   4.8373774  29.5616579  42.1686459   5.6323743  30.8491302
  35.0830586  82.8235637  30.8431149  34.2213614  82.6202030  31.2069130
  35.3788311  82.0007668  30.4535532  54.1802454  30.1321507  35.4858518
  54.7731209  30.1984048  34.7372961  54.7211599  29.7720361  36.1886716
   4.7901542  80.4869664  21.6542292   4.8798711  80.8490148  20.7726955
   4.2435963  81.1206523  22.1189308  53.5285759  48.3842897   9.0594256
  54.3539667  48.7693977   8.7650633  53.0745983  49.1008949   9.5028365
  68.2453537  -0.0414563  42.4177170  68.4070635   0.8778807  42.6296186
  68.8513994  -0.2324324  41.7018509  68.0763054   8.3142513  19.2961252
  68.2692337   8.8687718  20.0521135  68.3830786   7.4445450  19.5525098
  39.7031116  21.2205005  59.8572206  40.1646805  21.8003678  59.2514658
  39.5798206  21.7478037  60.6465149  45.3633404  37.1013784  16.5339947
  45.0621271  36.8309426  17.4013853  45.5612087  38.0330825  16.6288829
  61.6915941   8.2316589  16.3089919  61.6006708   9.1844410  16.2959027
  61.2447977   7.9594100  17.1105421  57.6929998  37.0063925  21.4942813
  56.7811012  36.9464612  21.2095308  57.6909733  36.6471410  22.3815060
   5.1868779  65.2930775  10.9012890   5.1507146  66.2349358  10.7344723
   4.6776969  64.9041632  10.1901543  80.9424210   8.7642592  41.2520170
  80.5504322   9.6267998  41.1156225  81.0316563   8.3997720  40.3714371
  25.9602482  75.4849902  58.8852835  26.2925465  74.8695758  58.2317686
  25.9364588  76.3271496  58.4309340  85.4943085  26.4503527  39.5545030
  85.9412670  26.3081312  40.3889084  86.0011101  25.9416461  38.9215660
  74.5764875  28.6708164  25.5907774  73.7466383  28.8062787  25.1333523
  75.1123762  29.4242144  25.3428960  56.8940973   2.6031372  42.4787140
  56.0618258   2.3930477  42.9022932  57.5475550   2.5007534  43.1706285
  58.7022638   8.8000095  44.9527407  58.6036348   9.4865084  45.6124544
  59.2089748   9.2115921  44.2526865  62.4604607  27.7452922  66.5347338
  61.7074442  27.8483200  67.1166086  62.1647263  27.1257377  65.8677053
  80.7313888  60.9482001   3.1394251  81.6266220  60.6108176   3.1704052
  80.3913038  60.6479250   2.2965677  35.2891374  20.1772833  54.8008585
  34.7353959  20.1333475  54.0213299  35.0108790  20.9768224  55.2475595
  36.9429619  73.2334766  67.9540968  36.8803866  72.3859814  67.5135660
  37.6927216  73.1429270  68.5422182  73.7560987  14.8847950  16.9357467
  73.5930967  14.1157007  17.4817848  72.9256868  15.0391340  16.4853811
  52.4055433  28.1400347  33.0003500  52.1261358  28.9341712  33.4558797
  52.1894073  27.4291468  33.6038017  66.8486834  21.0747051  41.5767336
  66.9499159  20.1354718  41.4223957  65.9655666  21.2746263  41.2663078
  37.0139050  16.7043316   4.9321100  36.4911175  17.3083389   4.4047579
  36.4493775  15.9406471   5.0517976  68.2019472  25.6852484  27.0956182
  68.5281706  26.3635373  27.6870036  68.0111170  24.9411345  27.6666784
  20.1541662  10.1200140  26.3332224  19.4074786  10.2005589  26.9266891
  19.7802770   9.7719103  25.5237389  30.7053150  70.3310351  69.0892152
  30.7212891  69.4293288  69.4099982  30.6140484  70.2460460  68.1401734
  70.8025026  10.1124334  33.7164569  71.1616135  10.1713705  32.8311324
  71.5406752   9.8291332  34.2559719  64.4387913  29.9687409  27.2592235
  63.5715818  29.5657825  27.2167063  64.8757648  29.6818781  26.4573550
   4.6025774   2.5389740  40.0780630   5.0957224   1.7611365  39.8172927
   4.7036382   2.5789645  41.0290718  74.9824381   2.0927086  56.4742136
  74.5029449   1.3181692  56.1802626  75.8276558   1.7536098  56.7689323
  40.2000696  82.5631557  35.2662277  40.6992561  81.7465848  35.2502370
  40.1736815  82.8456868  34.3520546  63.1510162  18.5187161  32.1997929
  62.3017263  18.0884755  32.2989392  63.7690353  17.9321158  32.6358914
  44.1819048  11.0032570  23.4878039  45.0902700  10.9101129  23.2007051
  43.9233255  11.8739593  23.1857347  27.4357404  69.0609764  11.5111740
  26.6532316  69.5194339  11.8173321  28.0830469  69.7537040  11.3794621
  49.2852592  14.0579188  24.9593234  50.1869917  13.8374913  24.7258186
  49.3257952  14.9744117  25.2325034  33.5078938  81.4453797  16.3732052
  34.3489487  81.4246055  15.9166706  32.9567654  82.0128352  15.8342385
  40.0627930  79.5994198  15.2592874  39.1192658  79.7561562  15.2970922
  40.1434071  78.6952236  14.9557054  57.6679087   2.9512751  22.0980334
  56.8841124   3.2398635  22.5655890  57.4113703   2.1256419  21.6872406
  69.7837305  16.1212552  58.5415220  69.4595098  16.6596544  59.2634916
  68.9930868  15.7829726  58.1211853   7.0364816  11.4464618  54.0942959
   6.9987828  12.1149207  53.4102122   7.9531271  11.1712409  54.1099851
  48.4610510  25.4579020  17.0503902  48.2714319  26.0768032  17.7555406
  48.2512474  25.9367514  16.2485683  87.7114010  22.5209522  55.2466822
  88.3395386  21.8099928  55.1193428  86.8909168  22.1827579  54.8879957
   4.8509714  32.1100783  22.0349216   5.2141687  32.4302840  21.2092185
   4.0241930  32.5825453  22.1321297  -0.1893213  49.9071169  25.7457685
   0.4873297  50.4719925  25.3725457   0.1781198  49.0249491  25.6910563
  80.8862591  23.8022590  30.0266838  81.2503147  22.9827881  29.6917820
  80.3165531  23.5342669  30.7476902  84.8616791  21.0648775  60.8796549
  84.1375351  20.9861994  61.5006590  84.9490166  22.0065188  60.7316208
  19.2687151  13.9478517  43.5404205  19.5923445  13.3313417  44.1972399
  18.8523027  13.3958972  42.8784752  61.3749647  35.8212996  18.9755166
  62.0691252  35.7703543  19.6326125  61.8336678  36.0088181  18.1565773
  64.6063328  35.6299591   4.4738311  65.4380322  35.7194567   4.0085369
  64.0033960  35.2750897   3.8205606  38.5638840  75.3199044  34.3289185
  38.2166845  74.6482643  33.7419057  38.0238993  76.0911897  34.1563773
  48.6565065  31.5105391   7.3832631  47.7188253  31.7013025   7.4074769
  48.9111853  31.6757989   6.4754856  61.0098171  41.5473127   8.5460663
  61.6933632  42.2045088   8.6768025  60.2219772  41.9439363   8.9178604
  85.6134129  53.6986113  64.1472816  84.7897053  54.1724586  64.2621994
  85.5656528  52.9790974  64.7767687  58.0438852  22.0582914  48.5212040
  57.9325867  22.0860696  49.4715071  58.9829350  21.9233942  48.3938742
  70.8310699  22.7100086  31.9540429  70.5627918  22.2385979  31.1653519
  70.0444746  22.7322030  32.4990273  54.8223734  14.8176551  18.0686879
  54.7865677  14.6414244  17.1285319  54.7649908  15.7707548  18.1360698
  68.5008097  16.1340296  26.6574955  68.5095644  17.0012605  26.2524438
  67.5813723  15.9805393  26.8750024  49.4653542  76.1953959  23.5657835
  49.0364821  76.9881186  23.8881040  49.3634112  75.5621436  24.2762995
  67.1766663  23.6616802   7.1234947  67.2746038  23.5654283   8.0707932
  67.1664476  22.7640200   6.7913270  63.8367796  28.2687759  59.0174913
  62.9362488  28.3444381  59.3330097  63.7850618  27.6457143  58.2926798
  59.3266201  28.1457949  19.1440594  58.5557222  27.7678990  19.5673180
  59.9947357  27.4635267  19.2101181  55.3247513  36.9322131  70.8006127
  54.8813118  37.5162778  71.4158056  55.2111210  37.3517121  69.9477699
  46.2273216   8.7704140  53.8757181  45.9377050   8.0182350  54.3920374
  46.5464020   9.3976998  54.5245123  69.8373747  43.3999395   7.9487926
  70.4623985  42.7111912   8.1750673  70.0325346  44.1105890   8.5596323
  79.2042971  15.4267728  16.8660772  79.7763777  16.1238265  17.1871185
  78.7276077  15.1317585  17.6419437  40.0015211   9.2839438  34.1189027
  39.9841976   8.3281016  34.1668415  39.9014688   9.4788778  33.1871200
  43.3451397  74.4172570  32.6975727  42.7360232  74.3039730  31.9679332
  42.8031904  74.7513738  33.4123373  66.9321394  17.4555802  35.7702398
  65.9901047  17.2948503  35.8247423  67.1171522  17.4792552  34.8313904
  73.3764124  14.2268705  27.7295542  73.0578709  14.9118066  28.3174539
  73.1430817  13.4081078  28.1670666  71.4047956  33.4737587   8.5576844
  71.5792370  32.5419593   8.6901629  70.4823065  33.5801172   8.7899172
  42.2463448   7.7571441  60.9209852  42.6913149   8.5583450  61.1972181
  42.1328194   7.8598167  59.9761025  38.2655890  65.7363239  44.0295124
  37.9246552  66.3543430  43.3829451  37.6344044  65.7692304  44.7483683
  67.2912884  32.3843217  35.5024123  66.5403318  32.6903224  34.9938297
  67.1413851  31.4450026  35.6093764  83.4166050  32.1381140  29.7518754
  84.1193485  31.4992476  29.6326113  83.3667946  32.2653151  30.6992769
  80.7479191  51.8358469  20.0801182  81.1202335  52.1028996  20.9205294
  81.5078354  51.6954756  19.5152700  48.1523115  52.3417190  41.7438602
  47.9619009  52.3608378  42.6817322  47.8090555  51.4989713  41.4469004
  24.8910999  29.3299341  10.9560466  25.1044393  30.2307844  11.1993277
  24.6827555  29.3767643  10.0229704  27.2161474  82.6719426   6.0994156
  26.6602506  81.9667672   6.4309843  26.7066850  83.4685563   6.2480457
  20.0967342  49.2846921  28.9425159  19.8557551  49.8579863  29.6701789
  20.3143866  49.8832443  28.2279563  63.9257765  19.4299889  46.9607830
  63.7363911  20.3500605  46.7768431  63.7787580  18.9838183  46.1267900
  15.9107229  70.7333326  52.4701881  16.4774057  70.0623178  52.0896149
  15.0965902  70.2725172  52.6728249  83.3267307  25.7224154  34.9749184
  83.3189297  26.0823321  35.8618402  83.2932186  26.4903545  34.4044995
  63.5489464  17.7978158  58.5877132  62.7411842  18.2532859  58.3504438
  63.2546902  17.0165098  59.0559101  15.5983850  70.2902031  56.8434048
  14.9499342  70.9573030  56.6181803  15.2637026  69.8925924  57.6472235
  56.4479685  51.8089914  50.3540993  56.9050169  50.9875822  50.1734591
  57.0530462  52.3031378  50.9072161  74.1433184  34.5085226  59.6133344
  73.2939713  34.0786223  59.7134439  74.7191708  34.0458606  60.2220790
  72.7536869  54.7728682  39.9771714  73.2421732  55.5300188  39.6541476
  73.2065535  54.5212984  40.7820654  62.5121212  58.8702011  27.6939225
  62.7982950  59.7706413  27.5404954  63.0655050  58.5619974  28.4115624
  75.5020094  38.9152241  65.2595377  75.8596897  39.2192078  64.4253349
  76.0752821  38.1932354  65.5170679  72.3561764  33.4610939  29.3349314
  71.9397449  33.8564730  28.5691023  72.4864054  32.5448513  29.0904474
  37.9787094  78.6039996  52.3504305  37.2824127  79.2444149  52.2045898
  37.8897268  77.9843596  51.6263008  76.9974089  25.1101494  28.4553766
  76.7433929  24.6937656  27.6317668  77.2582579  24.3831873  29.0208077
  50.8027697  56.2349272  56.4475155  49.9099350  56.5436792  56.6016340
  51.3596487  56.9550371  56.7434263   3.4633467  36.1195517  27.5372910
   4.3760130  36.3803935  27.4138761   3.4510347  35.6878853  28.3915424
  74.5505476  21.8813443  27.7155662  75.2975130  21.7802858  28.3055305
  74.6740627  21.2006950  27.0539832  11.4455435  25.5195785  39.1090679
  11.8470403  24.8961759  39.7143769  12.1823808  25.8904028  38.6234879
  75.5710077  50.0049686  52.4938917  76.2461901  50.6176376  52.7854300
  75.4066706  49.4493294  53.2557869  74.2987299  30.8729553  45.6087208
  74.6054792  31.0872507  44.7276926  73.4881020  31.3721848  45.7081318
  87.4698067  59.9718523  21.2641311  88.0363750  60.7076073  21.4963007
  87.3818302  59.4719219  22.0756483   3.3624574  62.9642391   4.4642216
   3.1273100  63.8789082   4.6201441   2.5255510  62.5234365   4.3175608
  81.0630417   4.7890902  21.9736528  81.2659264   4.3030268  21.1743927
  80.1228237   4.6612060  22.0996094  78.2259798  40.6086922  18.3407903
  78.0527687  39.7352004  17.9897285  78.4287786  40.4597616  19.2643297
  52.3531944  73.6189815  32.2033191  53.0138523  73.9959642  32.7843904
  51.5546734  74.1093948  32.3984933   9.2852804  66.7493963  38.6878014
   8.5684797  66.6712236  39.3173361   9.0538904  67.5099134  38.1546021
  10.9508344  44.8323679  31.3441348  11.1148950  44.1649437  32.0103669
  11.4246771  44.5220852  30.5724978  78.3209991  59.5423269  47.2641134
  77.4568748  59.1743326  47.4487972  78.8193989  58.8114786  46.8984795
  67.0431042  35.8283401  47.5961781  67.4191618  36.6634917  47.8742599
  67.2038317  35.7954597  46.6531420  86.3736534  54.9528217  19.8429298
  85.7831097  55.5954409  19.4498229  86.8579483  55.4461241  20.5050063
   5.4727289  19.7191894  37.8344512   4.9049684  19.9863648  38.5572910
   6.0516474  20.4686117  37.6950026  78.5753202  51.7320061  30.4252696
  78.1640387  52.3638010  31.0151148  79.0173197  51.1136627  31.0070968
  70.3256695  82.8173212  65.1896850  71.1602156  82.3537306  65.2592520
  70.0575678  82.9653172  66.0965769  65.9005165  50.0789738  20.2187204
  65.9206533  50.8318710  20.8094597  65.2668285  50.3212404  19.5434582
  47.3809099  42.9854918   1.4324772  47.0679235  42.8133535   2.3205313
  47.1371222  42.2037220   0.9368612  42.6943398   6.5616679  56.0770798
  42.4906540   5.7490164  56.5400457  42.1829033   7.2309768  56.5317106
  64.1011293   6.9576212  17.3162087  63.2688100   7.3685213  17.0824631
  64.3998392   7.4424310  18.0856045  63.3388509  70.9348582   6.3351019
  63.0503263  70.8774041   7.2459658  63.8997926  71.7100667   6.3099869
  41.8812656  50.8683538   4.5103243  41.1430120  50.7021332   5.0964826
  42.0133781  51.8153811   4.5541462  63.3079624  34.1151261  42.1799040
  63.3412075  34.8178482  42.8289890  64.0018702  34.3313742  41.5570402
  70.3984356  32.3191214  67.9283905  70.8447409  32.1812940  67.0928955
  70.7754898  33.1296968  68.2704878  74.7544956  10.2842736  66.6169691
  74.3911600  10.8366835  67.3091125  74.3240166  10.5876112  65.8176565
  82.0238781  22.5257301  60.8929253  82.7621269  23.0722380  60.6235838
  81.3505363  23.1495762  61.1643314  69.6422005  41.5374184  34.1333079
  69.6566820  40.5839348  34.2163682  68.7128401  41.7584944  34.0729713
  75.0727367  43.9596701  12.9504871  75.7400560  43.8530779  12.2725832
  75.3468895  44.7375584  13.4362400  43.3439085  72.2556114  37.9886603
  44.2830965  72.2935963  37.8078103  42.9479429  72.0182276  37.1501565
  79.4287443  19.7029901  23.9443135  79.2209673  18.7807202  24.0942454
  79.5472145  20.0674748  24.8214388  68.5107279  16.2309337  37.8445315
  67.9414320  16.6330218  37.1884394  68.9804697  15.5470073  37.3672247
  55.2797031  52.7220392  19.6421504  56.1530924  52.3306847  19.6261168
  55.3252888  53.4356594  19.0058315  77.7456284  34.2451453  58.7466621
  77.7546406  33.9218903  59.6475792  78.1901646  33.5632277  58.2430649
  50.1625909  76.1058186   1.1257704  49.2566766  76.1490654   0.8196791
  50.1128473  76.3335561   2.0541533  69.1932631  25.6255507   5.5276752
  68.5404968  26.1199689   6.0233343  69.6029282  26.2753129   4.9565202
  79.6961832  43.6720753  10.2019012  80.0604916  43.2601500   9.4184291
  80.3837967  43.5819101  10.8616650  60.4138470  34.1993976  58.6115646
  60.2096462  33.2704592  58.5038233  59.5684624  34.6412516  58.5320759
  46.1673594  59.1738415  50.2992249  45.9986734  58.2857275  49.9845314
  47.0909452  59.1674948  50.5505848  54.7254944   2.3610747  25.0476217
  54.9203444   3.0836242  24.4508076  54.6233082   2.7780047  25.9031677
  50.1048708  57.8014851  65.8390903  50.8257818  58.3073807  66.2140369
  50.1134872  58.0256891  64.9085569  53.3461411  73.8260564  51.9037104
  52.8375275  73.9414760  52.7063465  54.0441830  74.4779870  51.9666576
  66.8777895  30.4327035  57.2602654  67.4564648  31.1254120  56.9416380
  66.2644243  30.2831888  56.5407848  56.1067390  67.6730061  71.6842079
  55.5640030  67.6383352  70.8965063  56.4632320  68.5613251  71.6905260
  81.1003494  29.6961021  28.6937094  81.1989117  29.5413256  29.6331549
  81.9250870  29.3938541  28.3133435  17.2715494  65.1989889  15.7015479
  16.6987058  64.6808720  15.1361823  17.1729872  66.0966778  15.3842556
  78.8667488  48.7909555  47.2570515  79.0942907  49.3521118  47.9983807
  78.3673143  49.3593884  46.6708088  81.5416336  24.9006939  39.1659522
  81.9877148  25.5800986  38.6603332  81.7391205  25.1125455  40.0782824
  81.2553883  32.4536562  27.5003266  81.6157055  32.6806736  28.3575726
  80.7931519  31.6281796  27.6457810  71.9144344   2.2571358  67.6850605
  71.3998318   3.0403000  67.8801727  72.7139425   2.5910914  67.2782564
  77.9545259  38.1893182  69.3620920  77.5699520  39.0563774  69.4907093
  78.5558271  38.3008337  68.6257267  68.2029819  38.4487033  51.8778658
  68.7362385  37.8947997  52.4480104  68.6420012  38.4106159  51.0281372
  72.0964861  50.8308983  26.0177898  71.5029001  50.6426239  25.2908516
  71.5443707  51.2563944  26.6738009  20.2965853  39.0185642  50.1039314
  19.6179601  38.5396171  49.6282148  21.0766908  38.9368153  49.5553160
  61.8574078  82.6237658   8.0812758  62.3255474  82.0240456   8.6621499
  62.1993763  83.4894199   8.3047378  57.9689980  51.2267494  45.1210690
  58.1162214  52.1450901  44.8947763  58.5530806  50.7401419  44.5394373
  40.6086683  20.7366824  32.9886389  41.5649223  20.7398057  33.0310750
  40.3964472  21.3883233  32.3203897  78.3150196  63.0290031  44.4803095
  77.6982260  62.3412180  44.2298079  77.9989386  63.8107681  44.0273523
  76.7450094  15.4574776  51.1482620  76.1233187  15.5795908  50.4307508
  76.3771963  14.7401583  51.6644001   4.5499363  65.4347681   7.0168884
   5.4406967  65.1365494   7.2008522   4.0199747  65.0518082   7.7159746
  85.0918953  31.3058821  68.3246948  85.8211462  31.1917476  67.7152668
  85.4544918  31.8341069  69.0358446  83.2577991  34.8257279  53.8299513
  82.7109432  34.8278594  54.6155643  83.4517765  33.9011765  53.6756659
  10.6211302  57.6098108  28.4884119   9.7247907  57.5513172  28.8191628
  10.5243513  57.9187822  27.5876331  80.5571365  37.6561117  17.0127344
  81.0138321  38.3278346  16.5063322  81.2087917  37.3456717  17.6413810
  62.6168211   6.7119690  14.2059906  61.8333681   6.5957542  13.6684712
  62.2805364   6.8816896  15.0859554  83.6853695  28.9180017  46.9077921
  83.0771923  29.1195416  46.1966372  84.1004372  28.0972528  46.6426086
  72.0899105  37.5333405   2.9506359  71.6351509  36.7114902   2.7662727
  72.1601009  37.5593901   3.9049032  68.7569380  29.7441053   7.2403926
  69.5213127  29.8259735   6.6700721  69.1221285  29.5540810   8.1045455
  77.9521435  77.4595665   5.1942833  77.1766870  77.4170445   5.7538326
  77.8200643  78.2434558   4.6610840  71.0808992  10.2103674   1.5991534
  71.4121580  11.0951209   1.4451745  71.2658262  10.0428331   2.5232565
  73.3896351  49.1303349  27.6309848  72.9289770  49.6301365  26.9570255
  72.8349400  49.2071772  28.4072852  55.4858541  49.7132206  14.1959071
  55.5670309  50.6198120  14.4921148  55.2582788  49.2226648  14.9857152
  53.0696535  20.5736303  66.6159058  53.3421803  20.0500417  65.8623695
  52.9796982  19.9401212  67.3278093   1.7568418  73.1491804  44.1746521
   1.1438104  73.8528442  43.9618683   2.1262762  73.4011459  45.0209761
  84.9563503  40.3985453   2.7282843  85.5372620  40.7899046   2.0758907
  84.5288277  41.1455488   3.1471375  56.4876175  61.5207148   4.7269925
  55.8569670  60.8010244   4.7506469  56.4081240  61.8798828   3.8433012
   2.2807142  64.7494555  34.1698813   1.8307039  64.2383242  33.4972262
   2.0951578  64.2863178  34.9867702  14.9637222  37.8031278  29.9012661
  14.7342026  36.9319773  30.2247596  15.0201440  37.6987290  28.9514494
  31.2243768  66.2668467  48.4404469  31.9983122  65.7591724  48.6844063
  30.4926035  65.6623411  48.5641956   5.2247545  63.3174133  33.7075877
   4.7586939  63.9318752  34.2745543   5.6557104  62.7132988  34.3122053
  30.6869555  52.5509930  32.6289725  29.9519682  52.9359627  32.1516633
  30.2906346  51.8652630  33.1665015   8.3227083  39.5793557  43.3242941
   7.4288103  39.7881365  43.0530310   8.3453962  39.7909474  44.2575407
  79.8405123  74.5196772  30.0746822  80.0522614  73.6478901  30.4084277
  79.0556097  74.7771502  30.5582762  77.4809361  45.5475807  55.6471777
  76.7504501  45.5186224  56.2650633  77.0665884  45.6587362  54.7914934
  47.6170816   4.4140145  15.3545392  47.9388036   5.1838395  14.8853993
  47.7363672   4.6299645  16.2793982  81.6788006  37.1881199  64.1322994
  81.9255733  37.6478791  64.9347639  81.2206459  37.8466916  63.6101770
   2.4935934  60.9968281  13.8674068   3.2954428  61.5132570  13.7863898
   2.4890825  60.7027912  14.7783148  14.7227403  70.4120064  49.3788290
  14.6518156  70.8117342  48.5119867  15.3571245  70.9580374  49.8431969
   9.1096899  51.6738415  23.5535693  10.0596449  51.5923023  23.6382294
   8.9463159  51.6053963  22.6129007  18.2538435  40.7609367  50.6414652
  18.3673784  41.7074633  50.5552721  19.1027567  40.3943682  50.3940535
  73.8380146  32.9969049  22.9314518  73.0849457  32.6652694  22.4424338
  73.9004850  33.9181757  22.6792884  23.4809770   4.5105931  24.6628833
  23.0805387   4.5758817  23.7959218  24.4044389   4.3300912  24.4871950
  70.7530928  65.4887247  38.9216781  70.3393984  66.0428810  38.2598615
  70.8659315  64.6424246  38.4889269  63.3334303  53.7633514  56.9609261
  63.4111881  54.4782639  56.3291931  64.0294647  53.9288807  57.5968266
  14.8042931  73.9166431  71.7677129  15.0193371  74.5389227  71.0729070
  15.6166424  73.4323792  71.9153896   5.8960649  68.5380173  38.3764601
   5.4008219  68.8505888  37.6193190   6.1737844  69.3356466  38.8268948
  59.6211720  58.0181885  49.2494488  58.6791515  58.0012751  49.4184017
  60.0200129  58.0463839  50.1191378  63.9668455  14.8023126  53.7411737
  63.9574518  14.6268079  54.6820974  63.0715551  14.6214673  53.4548521
  80.4062557  45.2738714  62.2077847  81.1405087  45.7950974  61.8830919
  80.6387901  45.0708818  63.1138515  26.7835607   8.1267735  32.0374537
  25.8426847   7.9862687  31.9314170  26.9937124   7.7176949  32.8769326
  69.5175838  15.8308816  29.6543503  69.3773842  16.6621161  30.1078081
  69.3605757  16.0318875  28.7317586  12.0537986  28.9893910   4.6136281
  12.9754152  28.9369771   4.3604356  12.0628824  28.9138696   5.5678010
  75.6959009  18.1539989  53.4105110  75.0915813  17.8935826  54.1056490
  75.2160788  17.9840112  52.5998878  76.7974138  73.5936117  37.9986644
  76.1778879  73.8415051  37.3123932  76.3408375  73.7914515  38.8163638
  72.6405334  37.4767518  56.9999981  73.5134268  37.8449297  57.1368694
  72.6551676  37.1543884  56.0988331  33.2106104   7.9286954  19.7313964
  32.6997747   8.4133336  20.3797865  34.1128816   7.9860684  20.0457859
  67.5427914  46.4289141  58.0183887  67.9515648  46.5779161  57.1657848
  67.8503084  45.5620050  58.2832193  68.7204981  39.7142982  20.1096487
  69.1814280  38.9258289  20.3961635  69.1483307  39.9567509  19.2884231
  20.2094116  13.0619523  53.0810118  20.5347624  12.4094197  52.4608660
  20.1138773  12.5831887  53.9043522  82.4372864  52.9002285  33.0888152
  81.8938446  53.5339403  32.6204967  83.1814766  53.4115028  33.4066272
  74.8054171  57.9532290  23.3428788  74.7277260  58.2212257  24.2585063
  74.8921776  58.7747812  22.8593922  70.4924154  58.6939383  45.6760788
  69.9981165  58.3544016  44.9300146  69.8289347  58.8681459  46.3436747
  13.7123854  54.8057605  63.7976716  14.1777498  55.5962802  63.5242740
  14.2569525  54.0853931  63.4802596  23.9218607   3.2925698   4.5703170
  23.3814420   2.7845761   3.9652452  24.6455946   2.7074429   4.7940683
  11.1367723  26.4886165  28.1899166  11.1218092  26.6577625  27.2478986
  11.4248869  27.3152280  28.5771346  76.9392300  62.0174980  25.4499793
  76.7823505  62.9255056  25.7090998  76.1651421  61.5442228  25.7549977
  72.8598642  53.9333296  50.1434374  73.6156559  53.4349012  50.4542065
  72.8429556  53.7787771  49.1989517   4.9790880  76.8758869  42.2782421
   5.8864233  77.1762180  42.2256327   4.6828863  76.8480110  41.3684559
  36.7664453  81.4112091  18.2023871  36.9116804  81.9089699  17.3977911
  37.6213857  81.3966274  18.6326218  23.1771108  74.7954702   8.1230158
  23.9161417  75.1238155   8.6351293  23.1818983  75.3275013   7.3273087
  56.2302303  25.9656334  51.0559034  55.7326460  26.4607430  50.4051256
  56.8351173  26.6050076  51.4321280   5.0822470  29.3938971  59.5041275
   4.3310568  29.3082237  60.0911570   5.2163908  28.5121727  59.1565657
  50.9065771  64.7092152  16.2725723  50.9686232  65.4859018  15.7165706
  50.2767467  64.1440773  15.8251762  30.3399393  19.7922969  22.4336290
  30.5573961  20.7170486  22.3162460  30.0514051  19.7277904  23.3440232
  87.1226978  27.4383640  35.8757305  86.9365597  28.3138704  36.2149525
  88.0636883  27.3247790  36.0094047  12.0082304  45.3130341  17.7758682
  12.4294683  46.1724997  17.7652133  12.6471063  44.7281170  17.3685086
  68.6166048  48.6300755  42.7977705  68.5814285  48.7919092  43.7405348
  69.3265629  47.9972076  42.6897240  70.4593945  80.9071541  42.6272488
  70.8821249  81.7386055  42.4122715  70.2338266  80.5266285  41.7783976
  35.4506755  19.3522441  18.0493116  35.6011415  18.8172305  18.8286400
  34.7282982  18.9174688  17.5961292  15.4029390  66.6219711  69.7942114
  15.1332590  65.7054234  69.8529100  15.4432794  66.8000603  68.8545895
  88.3169842  58.6423874  40.3707314  88.3541393  58.2983923  41.2632084
  87.7534771  59.4135046  40.4345322  71.6839170  75.2616549   7.9583675
  71.6387987  76.1280537   7.5539547  72.5065660  75.2682877   8.4476930
  85.5767155  70.5175257  16.6407478  85.0827885  70.2916050  15.8525705
  85.1249886  70.0557184  17.3470807  70.8185720  43.2782602  61.2879944
  71.1087322  44.1766739  61.4457703  71.5734863  42.8501797  60.8841610
  64.9799681  55.7331038  31.2857223  65.0572872  55.6144762  32.2323895
  65.4580641  54.9929619  30.9117508  74.9242813   3.3924772  61.9870673
  74.0838940   3.1423951  61.6030804  75.0130493   2.8297950  62.7563123
  12.3249647  64.4270134  30.9608340  13.2016775  64.3683243  30.5811477
  12.4568960  64.8652029  31.8015552   4.0895769  82.3282433   6.1089301
   4.3832800  81.5001202   6.4886421   3.9759943  82.1378422   5.1777601
  86.4383411  64.2578936  29.5801926  87.2283649  64.6673965  29.2274833
  86.4487362  64.4799089  30.5112314  63.8135481  64.8482132  33.3382893
  64.5695543  64.5848942  33.8630247  63.8035870  64.2315340  32.6062799
  73.3698606  36.8733621   9.2314565  73.4248304  37.6863003   8.7291187
  73.6123323  37.1255183  10.1224434   8.2247469  61.2395811  37.6744509
   8.4688017  61.1782312  36.7509222   8.4717962  60.3919840  38.0442858
  86.7547035  64.5131063  44.4254684  86.7732334  64.3154335  43.4890842
  87.6588440  64.3893623  44.7143269  77.4625731  55.5577993  38.4246826
  77.5832748  56.3486862  38.9501905  77.8289175  54.8551989  38.9616871
  72.6299906  53.2976389  43.2158518  71.9089031  52.7513218  43.5285807
  73.4108305  52.7583551  43.3411169  61.2813425  23.2598424  31.4904380
  60.8965778  24.0835834  31.1910415  61.6860390  22.8860545  30.7076645
  17.0893308  60.1068068  32.0635486  17.3711893  60.7718420  31.4354444
  16.2987348  59.7312117  31.6760945  27.9863760  60.4964161  54.3360996
  27.2611257  59.9113083  54.5549583  27.8302118  61.2793398  54.8641872
  32.9312155  28.2075334  67.2719145  32.1240351  28.4912157  67.7011061
  33.2950994  27.5454688  67.8597021  86.4954758  30.3830600  62.8187990
  86.0651112  30.6466627  63.6321402  86.1390114  30.9750509  62.1564436
   4.8653719  81.5170860  41.9693613   4.3267462  80.9750748  42.5458527
   4.8083231  81.0884666  41.1153889  83.8668156  72.4155617   9.3008637
  83.2120132  72.0475340   8.7075478  83.4681320  72.3490238  10.1685369
  64.8432691   1.9058462  19.0409763  65.1782091   1.7841669  18.1525810
  63.9662416   1.5229030  19.0208252  77.7777052  61.5719223  33.1832004
  77.5634384  60.8157492  32.6368260  78.6107779  61.3417816  33.5946131
  85.1723194  62.3125982  24.3913841  84.8931885  61.5414286  23.8978100
  86.0962868  62.4199772  24.1655636  45.2974310   0.7737634  50.5280638
  44.8786249   1.3085839  51.2024546  46.2272253   0.9918591  50.5925798
  85.3223038  70.0898600  42.7692509  84.7024345  70.8192348  42.7699375
  85.9865665  70.3394604  43.4116602  73.1558895  25.5781245  55.1790047
  74.0048409  25.4632187  54.7520304  73.3513784  26.0819507  55.9690523
   8.6939737  54.5428371  33.3723688   7.7931043  54.6742153  33.6680222
   9.0947267  54.0064383  34.0564036  86.8551826  65.4824162  54.6779203
  87.6752567  65.1502275  54.3127394  86.9143295  65.2898836  55.6136894
  48.6155224  63.4392738  15.3844953  47.7065754  63.2151937  15.1848948
  49.0197515  62.6063156  15.6274176  69.7192097  31.6000128   2.7733916
  69.3292665  30.7856798   3.0912527  70.2115917  31.3416505   1.9942626
  21.0743067  18.9958978  38.4425592  20.1262209  18.8671196  38.4145832
  21.4155790  18.1827819  38.8148594  65.2494431  36.3765526  71.7686415
  65.5314064  37.2907948  71.7985296  64.8827410  36.2675667  70.8912086
   2.2646543  73.6047745   7.1410489   1.3986131  73.4970474   6.7478591
   2.1445867  74.2869616   7.8016824  80.5596733  49.2617321  27.4896216
  80.7899189  48.9092541  26.6299820  80.9561443  48.6524153  28.1123424
  79.5844412  29.4753289  31.6936755  79.9808979  28.7113857  32.1125388
  79.0569448  29.1117454  30.9824872   2.9831812  67.1808338  23.5510230
   2.3214933  67.7089548  23.9976740   3.6510488  67.0198011  24.2175436
  73.4030771  20.4337549  22.1146059  73.3903456  20.9483433  22.9216194
  73.5803843  19.5387495  22.4040151  69.3350649  43.6121559   3.4684953
  68.9947653  42.7977276   3.8388062  69.6344423  44.1134453   4.2269921
  65.6002522  30.4378867  46.2118578  65.5453444  31.0551286  45.4823160
  66.2048244  29.7609091  45.9078407  87.5771999  58.1869078  33.3246183
  88.2880974  58.4000063  33.9291406  87.3086548  57.3023558  33.5729861
  87.6164913  80.3799248  49.6607637  88.4368610  80.4416370  49.1714525
  87.8843021  80.3908730  50.5796719  67.9101975  37.6596786  65.7453476
  67.8652699  38.5909225  65.5285327  68.5897858  37.3118449  65.1679341
  13.3345053  75.1918221  28.8426876  14.2797109  75.1454782  28.9864659
  12.9618189  75.2638054  29.7214103  30.9920713  68.6167383  23.3210301
  30.6292841  68.0670738  24.0156388  31.9199011  68.6996794  23.5412073
  79.7006512  79.6879625  20.3806829  79.0915346  79.0600872  19.9921179
  80.3040218  79.1503191  20.8936286  66.4400148  80.5616093  59.5955944
  66.7875004  81.4534855  59.6014166  66.9943237  80.0926590  58.9718485
  82.2104263  77.9639530  66.8080330  83.0991840  77.8927803  67.1562815
  82.2414970  78.7228584  66.2255144   6.8809816  38.8631892  34.3919635
   7.1545717  39.4087386  35.1293612   7.3882887  39.1917777  33.6497355
  59.5239973  63.9632416  35.8582187  60.3936577  63.6877203  35.5683827
  59.0504646  64.1527510  35.0482249  19.8561785  75.3729057  56.6138077
  20.6281492  75.3661060  57.1797037  20.1556036  75.7885361  55.8052111
  81.8229961  65.9642458  58.8820314  81.2540817  66.4810896  58.3115482
  81.3755798  65.1223612  58.9673567  85.8951378  50.7509327  49.5004511
  85.3913498  50.3562927  48.7886333  86.0619640  51.6468763  49.2077351
  70.3893692  23.9795638  69.8380990  69.5437176  23.5318042  69.8130265
  70.3568966  24.5939685  69.1048298  20.4258367  61.3970089  12.6728463
  19.5314333  61.5216446  12.9902375  20.9343836  62.0753574  13.1172121
  67.5699139  70.5445719  40.5952168  68.1839514  70.1889992  41.2376785
  66.7082071  70.2739859  40.9121895  61.3663244  52.8754139  40.9473085
  62.1241522  52.4047899  41.2943506  61.7420673  53.5541773  40.3866529
  39.5806820  12.8727437  40.9375994  39.8588402  12.3040391  40.2196638
  40.3816063  13.3175613  41.2148897   1.6837141  59.4610643  38.2262230
   1.1385938  59.2052126  38.9702725   2.2667333  60.1344252  38.5767889
  45.4745466  79.8773336  29.4440007  46.2341721  79.3074852  29.5643044
  44.8628790  79.3547800  28.9253163  71.4293671  27.6215148  37.9082537
  70.7003403  27.1461630  37.5097656  72.0329905  26.9366980  38.1961751
  49.3260033   8.3906556  64.4921402  50.1677496   8.6494495  64.1170101
  49.5231659   7.6068402  65.0049655  27.5045034  70.5134630  52.3959351
  28.3810255  70.3332090  52.0561504  26.9441149  69.8656273  51.9687223
   9.4691107  38.8047314  23.5724926   8.7119219  38.4409308  23.1136322
  10.1151010  38.0984163  23.5661316  58.9285469  54.0887547  48.2627630
  59.1953182  54.0257120  47.3456526  59.6668434  54.5148277  48.6982107
   3.6561701  33.5322785  36.5788841   3.8449404  34.4632101  36.4607048
   4.2850229  33.2423902  37.2397542   7.6168272  66.2750816  41.4502430
   8.0930921  65.5616283  41.8749571   7.9336569  67.0667696  41.8850803
   2.9298231  66.4145327  37.1981525   3.8697931  66.2420225  37.1439934
   2.5236818  65.5499983  37.1359921  66.1016836   7.7129075  70.4092264
  65.7456293   8.3419511  71.0367298  66.9811906   8.0380532  70.2169609
  13.0762121  47.2490072   9.5996606  13.9324304  47.3524809  10.0148761
  13.1485006  47.7339792   8.7775862  77.2168064  65.1536322  54.3347311
  76.8720293  65.1615858  53.4418201  76.7290115  64.4567394  54.7736311
  73.0888708   0.8328720   1.4264162  73.0067594   1.7854686   1.4716824
  72.1969945   0.5092951   1.5531881  85.4285908  76.1365795  56.2439632
  85.1197338  76.9494343  55.8438253  86.3010025  76.3492203  56.5754986
  57.7353287  75.2480364  26.1802483  57.0954895  75.8778429  26.5121865
  58.3517933  75.1294613  26.9028401  68.4319973  58.7188625  19.5273662
  67.8246880  58.7451601  20.2667689  69.1807175  59.2420149  19.8136568
  85.1499176  57.7088785  27.6473403  85.0221443  58.4956932  27.1174169
  84.2926407  57.5421667  28.0391455  64.9886656  28.0103111  15.9815609
  65.2308512  28.0585432  15.0567639  65.5225277  28.6829662  16.4043570
  49.5702124  78.9931345  16.9113171  49.2529774  79.7673368  16.4463317
  50.5202913  79.1052866  16.9429088  87.0050621  60.4385424  47.3233032
  86.7304707  61.3249874  47.5579119  86.4914417  59.8691750  47.8962278
  20.4474375  71.1857748  21.4707017  20.9391138  71.6723537  22.1323061
  21.1095735  70.9033918  20.8397794  20.7143900  24.9890041  35.0857997
  19.7957727  24.8065257  34.8881102  20.7066938  25.8641529  35.4734635
   9.9353525  65.6232834  32.7068949   9.1513559  65.1609850  33.0033112
  10.3863260  64.9937057  32.1443248  72.8033876  50.0613117  35.9171724
  72.8962898  49.7856188  36.8290901  73.7024593  50.1660919  35.6058502
   4.7780344  59.9689150  11.0152400   4.8597070  60.9207010  10.9546745
   5.2567407  59.7376156  11.8112075  87.9962635  48.4498596  48.8304090
  87.3484898  49.1051197  49.0897322  88.1872654  47.9698849  49.6362448
  10.0844993  10.9977910  36.0309887   9.5660963  10.4308125  35.4600024
   9.4379463  11.5477941  36.4733672  87.0613766  40.1712227  23.2479739
  86.3569260  40.4233074  22.6509500  86.7617035  40.4632473  24.1088748
  37.4607107  58.1807089  35.9665275  37.1780607  58.9979362  36.3769960
  37.4275705  58.3606195  35.0269723  64.6197748  54.7854424   7.3880047
  63.6759853  54.7356606   7.5397021  65.0051928  54.2938280   8.1132662
  84.1904545  33.2118750  35.2704644  84.2954254  33.2573414  36.2208033
  85.0852680  33.1833816  34.9317503  10.6862852  60.9469271  47.0626831
  11.2592336  61.6881275  46.8662739  11.1517450  60.4575539  47.7409887
  80.4050446  64.4951344  39.8434925  80.4303646  64.3705416  40.7922125
  81.3077545  64.7065973  39.6055174  82.2838306  82.4542809  18.6594677
  83.0594635  82.0776653  19.0751421  82.5089264  82.5010586  17.7302885
  17.2169515  45.4539919  11.8853223  17.8484556  46.1133003  12.1729803
  17.4665949  44.6605158  12.3589301  79.2712736  37.5689435  40.8024311
  78.8665962  37.5029874  41.6673708  79.2437649  36.6768718  40.4564762
  36.6983148  81.8035984  67.4777794  37.4891779  81.2677383  67.4177074
  35.9783575  81.1773109  67.4026155  86.5379524  35.9534717  38.6974335
  86.5907097  36.7629552  38.1893134  86.9432735  36.1707830  39.5369077
  14.0138742  25.2335310  18.5608339  13.8183901  24.7692394  17.7469230
  13.6643431  24.6677017  19.2492366  10.8765909  39.5078182  28.3298373
  10.9062502  38.5958695  28.6191559   9.9456236  39.7303557  28.3343196
  76.7748404  55.5865526  19.2392063  77.2777033  55.0153446  19.8197949
  75.8945847  55.2105522  19.2368197  82.5269318  66.0209703  55.3748560
  81.9850063  66.5130091  55.9916544  82.8822517  65.2980995  55.8920002
  70.7104540  54.3961287  46.0601616  70.4005289  53.7574339  45.4180956
  70.5510998  55.2457190  45.6490231   5.1758119  73.3009434  24.7045350
   5.4453108  72.5173569  24.2253780   5.1853296  73.0346203  25.6238914
  13.2059786  78.8522387  11.2731767  13.9429876  78.8121986  10.6637180
  13.2108137  78.0011082  11.7111099  33.3611751  53.7264395  29.3492341
  32.7938390  53.0376101  29.0030050  32.8945279  54.0580034  30.1163960
   4.7567865  42.7077866  21.8155193   5.6748030  42.4367571  21.8098307
   4.5951769  43.0249262  20.9269595  20.6536235   2.2695538  57.0765495
  20.9937229   2.0696732  57.9486799  19.7641124   1.9159982  57.0795250
  59.5210266  50.8609962  41.4678431  59.7377586  50.4396534  42.2995424
  60.3311777  51.2954855  41.2011862  75.0559092  45.9014273   7.3486638
  74.1265774  45.6811666   7.2849673  75.3915358  45.3271580   8.0369955
  75.7883024  30.7672954   0.4909216  75.3877354  30.3636527   1.2608881
  76.5187263  31.2775803   0.8406727  84.5261860  66.2671614  28.2267952
  83.7150574  66.6356611  27.8767657  84.5355988  66.5378189  29.1448855
  54.9756193  13.9142823  33.3192658  55.8169460  13.6413896  33.6852360
  54.3315840  13.3601904  33.7602115  79.3029785  56.6564369  41.8056631
  79.9325991  56.8158388  41.1025238  79.1878271  55.7062149  41.8131876
   3.8309500  77.2110081  49.1706133   3.1222269  77.4125242  49.7816133
   4.5641729  76.9552231  49.7302485  82.5623512  69.6977472  23.9932704
  83.5004139  69.6199083  23.8194251  82.1494675  69.1401911  23.3338070
  13.4389421  65.2859735  33.5184216  13.5476038  66.2164974  33.3220792
  14.0306494  65.1256084  34.2535377  62.6032019  66.4809465  39.7506618
  62.3654270  66.1036062  40.5976009  61.9549799  66.1284351  39.1409254
  22.1841165  65.6894112  49.6600676  22.0518228  64.7835255  49.9395323
  22.8604337  66.0252047  50.2483463   2.0205328  65.9600210  39.9557328
   2.6367304  66.3861990  40.5514765   2.1621153  66.3936853  39.1142321
  87.0487612  18.5511205  38.9310956  86.8078535  19.4739816  39.0118694
  86.2702911  18.0742833  39.2189264  47.8405084  37.8903291  25.3264904
  47.4189176  37.7038476  24.4876099  47.4833193  38.7381265  25.5908322
  74.7238541  78.8357925  34.7316837  75.6010866  79.2150784  34.6784544
  74.5158482  78.5860777  33.8313460  62.1903133  62.7406025  46.8974733
  62.3266125  63.1289768  47.7616596  61.7407370  61.9142866  47.0744419
  72.1461058  64.9181080  23.8446403  73.0751038  65.1382065  23.7756777
  71.6925430  65.7516718  23.7194347  40.0774374  16.3820931  31.9719982
  40.8486356  16.7732236  31.5615249  39.3529977  16.9508836  31.7114258
  58.5510921  47.2865200  22.0147395  58.5233784  47.1086788  21.0746145
  58.9154816  48.1691790  22.0808864  87.3117065  80.5156231  16.8702233
  86.9868755  79.6545839  17.1335447  86.9415188  80.6549644  15.9985685
  75.5849695  76.6982174  25.6279802  75.4847622  77.6495647  25.6615305
  76.3963366  76.5258503  26.1056876  54.7991800  59.1446543  41.0795879
  55.6992674  58.8189840  41.0752010  54.8777628  60.0689793  40.8436251
  24.0617010  64.3928099  33.7909293  23.5480139  64.9691582  34.3567729
  24.9627134  64.4982004  34.0963817  80.4941177  59.6529579  26.2689543
  80.5900383  58.9842653  25.5908060  80.1319027  60.4102612  25.8090425
  11.4328136   1.5337655  16.6247666  11.7001714   2.4527356  16.6091645
  10.8488359   1.4670083  17.3802435  52.4799299  37.5545239  19.2884147
  52.6188087  36.9569278  18.5536885  51.9060755  37.0725965  19.8839557
   4.7863504  59.7981787  22.0392823   5.4738256  59.2727947  22.4486423
   4.2641565  60.1228333  22.7728701  17.4689314  71.4520454  13.2353389
  17.1597597  71.2471390  12.3529232  16.6752741  71.6764975  13.7211013
  71.8019533  70.7810402  17.1636224  71.1454535  71.4767504  17.1986306
  71.4196777  70.1198101  16.5866721  12.4560186  55.4104042  40.2342415
  12.9607126  54.7179365  39.8076248  13.1117269  55.9396458  40.6883097
  84.2992401  23.8881254  52.2397852  83.8237095  23.9107323  51.4093733
  83.6414623  24.1106582  52.8985977   4.1450712  60.6573677  35.0408077
   4.4555303  60.9704494  35.8904099   4.8060247  60.0231123  34.7631598
   5.4814646  80.5534935  52.7938175   5.4900572  81.1590004  53.5351086
   5.1748201  81.0816002  52.0567274  12.1804163  78.5386229   1.1264411
  12.6676103  78.9121008   1.8608706  11.4287683  79.1210508   1.0167120
  24.1113081  19.7809789  47.6778889  23.9511480  20.5762479  48.1859446
  23.4040441  19.7621247  47.0331812  87.0027161  79.6526766  23.9568734
  87.8342724  79.3362188  23.6038923  86.8387413  79.0966558  24.7185707
  16.1699793  38.4343410  58.2345963  16.1008474  39.2556453  57.7478600
  15.2638361  38.1920266  58.4254313  40.4347134  51.6145849  38.8686252
  40.4544830  51.6061401  37.9116654  39.5453525  51.8928385  39.0873647
   3.8849851  80.8631325  18.4280372   3.4034273  80.0904560  18.7234986
   4.3904611  80.5568981  17.6750791   0.5288104  31.6298767   1.6993483
  -0.3444215  31.2941929   1.9018610   0.4516486  31.9775577   0.8108671
  56.4514723   2.9195401  16.8009281  56.4794912   3.8019750  16.4311111
  57.0946397   2.4260327  16.2919998  80.2963161  68.9236403  21.7895389
  79.4071245  68.9436913  21.4357471  80.8593655  69.0792322  21.0312510
  17.5803556   2.1100327  52.3254824  17.2500887   1.9893739  51.4351988
  18.5088005   1.8840787  52.2692013   9.1564199  59.6373272   8.2235926
   9.9075147  60.2171469   8.0975276   8.5460016  59.8813963   7.5278521
  22.6902506  82.4998093   8.8536936  22.2797987  82.9074955   9.6162903
  21.9946119  81.9729900   8.4602880  73.1623459  77.3035717  36.3880420
  73.7257242  77.7929592  35.7885957  72.5833511  77.9652119  36.7664981
  15.4091253  13.7835500  35.3007793  15.0709905  13.3470056  36.0826516
  16.3604488  13.7540051  35.4024792   2.3581526  59.1693974  31.0048842
   3.1767961  59.4305468  31.4266229   1.7167303  59.1550541  31.7152357
   4.0756151  42.7379751  14.7295618   4.2635271  41.8894434  15.1306999
   4.2826101  43.3765697  15.4118967  47.9994900  28.3497668  70.3595262
  48.3488114  28.8243629  71.1138232  47.0558912  28.5068656  70.3937314
  77.6068687  79.5061588  25.9334469  77.7043104  79.0886116  26.7892432
  77.4897194  80.4351521  26.1321521   2.0779630  81.8238068  36.7812681
   2.5119707  81.2683296  36.1337233   2.1306154  81.3263416  37.5973463
  47.2836771  49.9687192   3.0452499  47.6721182  49.8339459   2.1808532
  46.5401067  50.5500028   2.8857058  16.8928358  69.0737343  26.9144654
  17.2082350  68.7649393  27.7638197  15.9626314  68.8480949  26.9079304
  50.9623337  79.0624475  40.3728628  51.6682005  79.7014713  40.2747345
  50.3475904  79.2748833  39.6705866  74.0094662  51.0422230  49.7210121
  73.9239883  51.5203953  48.8962221  74.8479080  50.5862808  49.6477509
  19.6237680  76.2548828  36.1822677  19.2599413  77.0392418  35.7716084
  20.1412794  75.8410025  35.4915309   9.8908922  47.8433418  37.1677971
   9.2313787  48.5279703  37.0557475   9.8507711  47.6220989  38.0982137
  10.4473135  46.0343122   9.3024844  10.4375955  45.2028990   8.8282585
  11.3729498  46.2740278   9.3466979  68.8825989   3.4679672  19.2972422
  68.8865137   3.4723437  18.3400607  69.7801208   3.2398221  19.5393884
  33.2312519  72.1808150  30.5591917  33.6671145  72.2110692  31.4108634
  33.4861786  71.3354602  30.1895690  28.5779268  68.3264509  41.5434456
  28.4888870  67.4417928  41.8979645  28.9569933  68.8347915  42.2604752
  86.8215601  65.9587435  65.3836493  87.0868151  66.4786987  64.6250204
  87.0686476  66.4930324  66.1384438  59.6885745  61.4813844  63.6000488
  60.0003593  62.2845177  64.0171824  60.1434152  60.7784180  64.0639327
  34.8943019   3.6834621   4.3288028  35.7022762   3.4190083   4.7686598
  35.0487232   3.4857559   3.4050617  31.8989927  76.2136796  11.4950526
  32.5517256  76.0809871  10.8076179  32.2354157  76.9499674  12.0058680
  65.5160093   4.1393685  47.4722099  65.7523584   3.4348220  48.0755186
  65.5319357   3.7295163  46.6073370  64.2815638   7.1299666  29.4769478
  64.5253658   6.2106466  29.5848441  64.9935722   7.6168752  29.8919129
  22.8962469  22.4515939  14.8571885  23.1725669  21.9940901  15.6512725
  21.9416428  22.4843884  14.9195516  24.6960384  72.6542440  43.9947939
  25.0495798  71.7791524  44.1543436  23.7484867  72.5489786  44.0801811
  32.9508328  22.5189948   7.1003562  32.9455805  21.7089939   7.6103592
  32.0873666  22.5481796   6.6882855   2.0584256  68.8679293  20.9620833
   2.3371393  68.4293678  21.7659569   1.8660195  68.1540564  20.3541374
  16.8437018  37.1381752  55.8972363  16.6522469  37.4609612  56.7777960
  17.6210703  37.6268260  55.6267707  38.0431873  82.2905345  24.5980668
  38.7865097  82.6376083  25.0912595  37.7006991  83.0448622  24.1185641
  68.2421749  64.9741582  65.8482597  68.1910555  64.8138742  66.7905585
  68.3181970  64.1022066  65.4607658  62.8634691  19.1228163  38.8308573
  63.4603357  18.7069988  39.4530129  62.1389008  19.4403887  39.3697262
  56.7913485   1.1977560  20.3438616  57.2887135   0.5518050  20.8454633
  55.9053135   0.8379918  20.3020597  15.9685166  73.1414846  26.8178487
  15.6641752  73.6474553  27.5712419  16.8241865  72.8056100  27.0847702
  35.9909422   0.0237895  65.9265487  35.5335075   0.8643676  65.9468661
  35.6976730  -0.4276751  66.7180071  63.8658237  17.0929694  26.5226626
  63.2329559  16.6466439  27.0852518  64.6796370  16.6034377  26.6422606
  50.9468395  35.9114268  20.9291697  51.3641674  35.8747724  21.7898250
  50.0253040  36.0893062  21.1172128   3.5241771   2.5085387   1.1352933
   4.0817550   1.9208243   1.6451272   3.0215535   1.9269569   0.5648864
  20.7425243  60.7483390  29.6814418  21.0078747  61.3541320  30.3734231
  20.7515604  61.2772086  28.8836670  66.6744423  12.7751184  60.8175802
  66.4810896  12.5755894  61.7335701  66.3487053  13.6664844  60.6927013
  78.6327689  53.7443547  69.3113635  78.1489031  53.8137285  70.1343406
  79.5354025  53.5702841  69.5781643  23.7455017  81.8459465  33.5882187
  23.6499960  81.9453552  34.5354390  24.5402081  81.3232438  33.4811664
  81.6612720  25.7145333  11.2848508  82.5337315  25.4980731  10.9559345
  81.4350605  24.9850845  11.8618798  55.4478390  65.2457467  38.2490420
  55.7461960  64.3365279  38.2258105  56.1341793  65.7347134  37.7950788
  58.4929276  39.2560625   4.2388529  58.9601660  40.0734329   4.4115424
  57.7068281  39.3101168   4.7823262  78.3633273   7.9797367  66.2219171
  77.6763194   7.3501710  66.0030691  77.9594319   8.8352517  66.0763322
  52.1463776  21.1344337  10.8355927  53.0670071  21.1496639  10.5739784
  52.0075083  21.9748759  11.2721741  70.7487869  41.7020226  41.3175392
  71.0775471  41.4151144  42.1694994  71.5064335  42.1021652  40.8908224
  74.1816092  25.5917406  27.8525329  73.8493204  24.7241569  27.6220560
  75.0327492  25.4226828  28.2565236   4.2106451  51.8186287  66.8502836
   3.8604750  52.6627950  66.5656827   3.9289679  51.7374055  67.7614878
  32.5784809  80.7101221  23.2050657  32.9789812  81.5469119  22.9692316
  33.3145172  80.1013079  23.2669353  48.3003426  25.5688190  20.5288482
  48.6840057  24.8935556  19.9693370  48.3120775  26.3605857  19.9910760
  11.7031826  70.0637225  68.6297746  11.4904513  70.8836965  68.1841074
  12.2493185  70.3281740  69.3700646  74.7404711  77.4877075  56.1656718
  75.0122111  78.0155496  56.9165186  75.4382746  76.8406395  56.0626773
  77.0101547  38.5916996   8.7842757  77.5509453  38.3571386   9.5384347
  76.9489574  39.5462322   8.8210428  73.8942337  14.1963553  45.8453369
  73.1719542  13.6955392  46.2244463  74.4523859  13.5370409  45.4330254
  20.7852442  58.5462573  14.6175575  21.4164192  59.2281058  14.3874896
  20.5402882  58.1539944  13.7794900  47.8448105  25.3950191  25.9446764
  48.4789181  25.9739876  26.3676882  48.2734394  24.5392537  25.9314466
  73.1356764   5.1527184   8.8760144  72.6025867   5.8813137   9.1941255
  73.2775831   5.3464419   7.9494262  63.4857368   6.8866450  26.3594079
  64.2321348   6.9173408  26.9578934  62.7292252   6.7403650  26.9273186
  29.7993214  79.6181166  17.7537441  29.0567190  79.1431090  17.3807228
  29.9363596  79.2137539  18.6104488  54.5520639  21.5788960   8.0625921
  53.8438559  22.2199631   8.0016971  54.4507456  21.1919522   8.9322138
  59.9858236  26.2732100  33.0615354  59.7636223  27.1606040  33.3433032
  60.9160280  26.3180232  32.8403068  75.5888367  30.4155326  16.1057377
  76.3866568  30.7214284  15.6742942  75.7724428  29.5032191  16.3298082
  76.4825289  53.6322419  63.5841523  75.7750123  54.1178576  63.1600825
  77.1802609  54.2773191  63.6993800  84.6554470   3.3435780  37.5355506
  84.8605728   3.9367399  36.8128371  84.6748161   3.8994932  38.3145332
  37.8514511  83.1935822   7.3390669  36.9792158  83.2692498   7.7259940
  37.7514107  82.5374505   6.6493464  70.8943224  21.6367817  17.5433373
  70.4351854  22.2029281  18.1637454  70.2565098  20.9586954  17.3205698
  71.5715551   6.9658726  26.6440511  70.9856224   6.9024199  25.8898044
  72.0100212   7.8099030  26.5363860   0.9085962  33.5122490  11.2615621
   0.8255789  33.6335921  10.3157198   1.0867521  32.5778675  11.3684416
  87.1123123  12.5074995  24.7798228  86.4688873  11.8137240  24.6351886
  87.7522659  12.1199703  25.3769064  82.5946617  13.8499415  26.6341949
  82.0913601  14.5718169  26.2576103  82.9261684  13.3681691  25.8764148
  39.6981835   2.6179576  29.4303298  39.4024205   3.3735174  29.9381542
  40.3407907   2.9772276  28.8186002  28.8261475  54.8696367  67.6270152
  29.5028462  54.2227237  67.8265254  28.9683213  55.5693595  68.2645149
  31.6921169  62.6343706  12.8616941  31.5471155  63.5456505  12.6071870
  31.5463812  62.6237991  13.8076746  56.9942045  30.6516695  24.4471025
  57.8576708  31.0348916  24.6013761  56.4420414  31.3950729  24.2048240
  28.8228924  82.7392557  21.9481111  29.7767336  82.8148352  21.9747138
  28.6307795  81.9514219  22.4566793  74.4052076  29.6172976  39.9935842
  75.1779938  30.1405811  40.2062130  74.1062021  29.2779589  40.8371925
  54.0304899   9.6803820   9.7136307  54.4137430  10.2736187   9.0675521
  53.1249666   9.9772197   9.8038828  52.6003695  12.6103973  26.6823697
  52.5539589  12.3842978  25.7534146  52.1723986  13.4644663  26.7426729
  45.1335079  67.9610863  33.0388761  46.0390026  68.0953482  32.7590919
  44.6087486  68.4065333  32.3737168  75.5095577  45.6402254  36.2712789
  74.7936153  46.1827612  36.6019082  76.2835121  45.9538984  36.7390776
  37.7379305  76.4997908  19.4025850  37.4951822  76.6325036  20.3189325
  37.0555193  76.9515988  18.9061844   0.3173563  30.0320315  42.7784395
   0.3660223  30.6001520  42.0096064  -0.0840548  29.2254257  42.4551916
  73.1159735  27.8954840   6.1296284  73.2377625  27.5413060   7.0105135
  73.1145859  27.1260762   5.5602050   4.1864702  27.4656606  66.3916540
   4.2094442  28.4017754  66.5901375   5.0548002  27.2746277  66.0370588
  28.7779743  82.6851690  42.2515535  28.8078386  83.4532470  42.8219891
  28.7967188  83.0446589  41.3646221  -0.0578819  71.6741757  58.5574297
  -0.5248295  71.5354304  59.3814079   0.7821812  71.2322525  58.6808411
  55.8807022  82.7402509  19.0091646  55.4843838  81.8925898  19.2107415
  56.2739212  82.6212729  18.1446087   2.0608541  32.8584456  30.5748892
   2.6964876  32.2308636  30.9188962   1.3194963  32.8034091  31.1778760
   2.8256723  22.8467178  31.0552216   2.9741499  22.4945068  31.9327950
   2.4128935  22.1285415  30.5755758  60.1400328   4.1777316  70.5988646
  60.9945297   4.5654273  70.7879734  59.6061659   4.9115673  70.2943945
  65.8867516  80.6746463  62.2920416  66.6285576  80.4055218  62.8338317
  66.2725319  80.8713393  61.4383928  57.4752951  20.3471637  24.9317336
  56.7910671  19.7820342  24.5730019  57.5437307  20.0868821  25.8503222
  65.8548689  13.3047807  40.2863359  66.5956545  12.7601087  40.0202608
  65.4169321  13.5309255  39.4657850  61.9848377  65.3351501  42.1086025
  61.9633228  64.7759619  42.8851843  61.6014416  64.7975233  41.4156389
  27.2583754  17.6315500  59.6418373  27.3726065  17.9408122  58.7432043
  28.1492407  17.4845124  59.9595956  83.0669301  52.7003304  54.9851577
  82.8660862  53.6361901  54.9929861  84.0160744  52.6580755  55.1016502
  29.5615131  83.2751342   5.1321042  30.1946623  82.7966202   5.6672454
  28.7087233  83.0172608   5.4820812  56.4813995  20.7310772  34.5852733
  56.4871693  21.1371970  35.4520297  56.2664700  21.4466310  33.9869261
  72.8546333  26.2027216  46.7295980  73.1203747  26.8540096  46.0804176
  73.5975552  25.6015921  46.7837858  30.3442788  12.4572480  42.7865028
  29.7977471  13.0223358  42.2404146  29.8592067  11.6337729  42.8396654
  58.9575291  21.9535542  31.1219001  59.5873404  22.6619387  31.2551808
  59.4612455  21.2631965  30.6907296  22.5302012  73.3969387  32.6248217
  22.5316460  72.4838939  32.3374557  23.4512169  73.6566326  32.6021385
  80.4690838  13.9900959  19.6586645  79.5505524  13.7230003  19.6241069
  80.9590530  13.1852734  19.4900775  46.0469389  18.2394624  23.1171679
  45.1987791  17.9048824  22.8257608  46.4776850  17.4841475  23.5174012
  58.7676937  81.1883707  24.0134263  58.4904892  81.5666807  24.8478580
  58.8404591  81.9381831  23.4229016  86.1599827  21.7330718  50.9770489
  85.6367588  21.3811302  50.2569008  85.5535698  22.2921753  51.4627504
  86.4896202  22.0660138   6.3274413  86.8365479  22.5244117   5.5621034
  87.2394943  21.9815421   6.9163245  87.7761459  38.8346863  57.4818659
  87.5399590  38.1849551  56.8198299  87.6490307  38.3834219  58.3163929
  17.6611294  30.5570761  68.7647624  17.7387299  30.9492449  67.8950421
  17.5494351  31.3026408  69.3545846  12.4820921  31.9102407  17.5042725
  11.8900987  31.2270260  17.8189039  12.7317259  31.6247678  16.6253972
  30.4962713  81.7982864  53.7139940  31.2702782  82.3585313  53.7712193
  30.1996786  81.8913075  52.8086710  57.1187925  12.3709309  24.4463634
  57.1849346  12.4545002  23.4951162  56.3629007  12.9087937  24.6820712
  74.7618954  72.4959497  65.2591006  74.1156428  71.8020896  65.1281486
  74.4772809  73.2011585  64.6778039  40.1179106  72.4442068  26.6532445
  39.3892796  72.1404150  26.1119151  39.7204144  73.0659798  27.2628570
  74.7771597   5.1457310  17.9728389  74.6200752   4.5246962  17.2615921
  73.9540148   5.1639909  18.4610295  22.7611715  74.7018179  44.3558598
  23.6639530  74.5425990  44.0804195  22.7727730  75.5898711  44.7128725
  87.0410728  27.2138238   7.7328879  86.6543484  27.1357346   8.6050016
  86.5893936  27.9588389   7.3364341  48.9832258  23.1333351  19.0243983
  48.2858658  22.5023389  19.2026293  49.0290022  23.1762838  18.0692589
  35.5272150  27.4291706  21.4866424  34.7982454  27.7456021  22.0202208
  35.1292753  26.7967820  20.8883452  46.3816643  10.7928836  33.9495134
  46.7961693  11.2872076  33.2423639  45.6341934  11.3304377  34.2113447
  57.4364901  25.1169848  33.6753559  58.1789351  25.6345081  33.3636260
  56.9396734  25.7198858  34.2284513  21.0994417   1.9694711  60.5224995
  21.8061430   1.8751718  61.1611800  21.2602026   2.8186370  60.1110355
  72.4731922  11.7523229  41.7670822  71.8013620  11.8507183  42.4417639
  72.3724079  10.8519435  41.4582300  81.5634155  22.1623015  24.4290018
  80.9228134  21.8596554  25.0726366  82.3438263  21.6357279  24.6019387
  55.8098428  57.2748343  66.6424606  55.7339017  58.1371598  66.2339775
  56.3294928  57.4285011  67.4314998  24.6959748  40.0147314  61.4932875
  25.0373997  39.4362311  60.8113806  24.8348202  40.8974583  61.1501459
  27.7590019  76.7592439  30.9341502  28.6059219  76.8428358  31.3722968
  27.5213701  77.6561943  30.6991124  56.0148270  69.7526339  47.4697495
  56.1447460  70.4854253  48.0717230  55.5811913  70.1408937  46.7098475
  11.6120941  68.0799249   9.0964764  10.9902031  68.3772400   8.4323305
  12.0631582  68.8765863   9.3759459  63.1732321   2.3459287  40.8876896
  62.7781391   3.1807917  41.1389542  63.9145136   2.2425440  41.4843893
  10.7906570  29.9168466   1.4556177  11.3747348  29.7009038   2.1825703
  11.3713731  30.0048207   0.6998022  71.0553360   7.0275944  35.6158948
  70.7770443   6.9810039  36.5305614  71.7103481   6.3350010  35.5292583
  59.7294552  58.3451202  37.4760485  60.2668697  57.7185228  36.9914961
  59.2129547  57.8052905  38.0744123   3.4590265  34.5582485  10.6786287
   3.8860914  33.8428736  10.2073741   2.5578329  34.2598748  10.8013570
  78.4042072  28.6623931  27.0911932  79.1889668  28.2743216  26.7041707
  78.6753416  28.9238453  27.9711699  75.3674507  32.5080013  34.2793941
  76.1330891  32.9923725  33.9705014  75.1130533  31.9622755  33.5352874
  13.2924196   4.5211813  28.6160302  14.0142366   5.1218396  28.8015699
  13.4486410   4.2291847  27.7179408  71.0676289   2.1976459  20.1105261
  71.4912510   1.3468023  19.9972165  71.7492247   2.8348878  19.8970401
  44.9864292  31.9535232  24.5286989  44.3020487  31.5923977  23.9652753
  45.8056021  31.6896915  24.1096759  34.2765314  69.1009882  48.9395809
  34.9523575  69.3469027  49.5712614  34.1046602  69.9040630  48.4478855
  77.5752687  14.3506062  12.5258052  78.0527401  14.1602778  13.3332872
  76.7631960  13.8499653  12.6040673  85.0463574  18.1842236  57.2617356
  85.2343838  18.2998018  58.1931428  84.2783062  17.6133255  57.2414832
  43.2949240  61.8867996  12.8237772  43.5840542  60.9838727  12.6920307
  43.9346869  62.4151972  12.3465645  83.8647270  50.8300877  40.7401705
  83.3481503  50.1701975  41.2026930  83.4821606  50.8624077  39.8633361
  22.8092653  77.9202053  24.6304154  23.2618792  78.2112175  25.4220510
  22.4477846  78.7220254  24.2527294  19.5411410  60.5486135  65.1456533
  19.3996538  60.1677434  66.0123436  19.2231764  61.4480118  65.2244644
   1.7201635   8.3867514  26.3235116   1.2620279   9.1342366  26.7077184
   1.0484907   7.7094823  26.2435412  63.8262224   9.3379581  50.3212118
  63.9908981   9.7179639  51.1841774  64.4730234   9.7519493  49.7498178
  26.6343846  35.8066909  67.2250928  26.0506405  35.5568169  67.9413558
  27.4312176  35.2985911  67.3771698  54.3610859   7.9406685  15.5020046
  53.8256216   7.9629678  16.2951052  55.1386356   8.4531027  15.7234979
  38.3196671  80.0461137   8.7695205  38.2072765  79.2827541   8.2030553
  39.2457039  80.2730301   8.6847246  72.1623564  48.2814693  10.4267216
  71.9116354  48.9191437  11.0951078  72.7790165  48.7521458   9.8659837
  56.4458019  74.6601847  45.9637213  57.0377476  75.1824459  46.5050840
  55.9361870  74.1480115  46.5915728  32.7938110  67.8178301  11.4407265
  33.4411842  68.3231011  11.9325042  33.1848747  66.9485894  11.3528395
  68.1594593  78.4453142   6.1956048  67.4285729  78.1877711   6.7574924
  68.1946976  79.3989274   6.2705165  77.6868534  38.9227390  22.0996451
  77.6548147  39.8773432  22.1624017  76.9297218  38.6240458  22.6033950
  15.6724085  30.0549165  66.0635416  15.4213394  30.1315121  66.9840468
  14.8423065  30.0669567  65.5870704  26.3790829   4.1534950  71.0875072
  25.5113394   3.7956668  71.2751515  26.7717011   3.5245897  70.4820616
  41.4724047  69.6635094  11.7597651  41.1691124  70.5551580  11.9306791
  42.3401625  69.6244743  12.1618831  28.9495826  46.8700933   2.9132885
  28.3042288  47.2877979   3.4836161  29.5896983  46.4892960   3.5145211
  84.1728783  23.8379860  56.8243170  84.9270058  24.4180202  56.7190599
  84.5542431  22.9833984  57.0254898  25.7841444  12.6494026  34.7224617
  26.5183663  13.2343233  34.5353293  25.4040122  12.9932404  35.5308604
  28.9520216  32.7398658  10.8526266  29.7286391  33.0531096  11.3162827
  28.3903480  32.3824859  11.5404010  50.1554728  30.9471059  13.2570183
  50.5014038  31.7316747  12.8315604  49.2074680  31.0096216  13.1403542
  57.8991079  20.4513001  21.1946917  57.8515911  21.2794065  20.7169771
  58.0097008  20.7087874  22.1099520  10.6165334  18.8881218  10.4842556
  10.2155802  19.5203960  11.0806596   9.9049780  18.2901704  10.2553988
  36.4537525  11.1278534  25.9458566  37.3253727  11.3750160  26.2547541
  35.8527160  11.6085708  26.5149760  43.9562542  71.9056514  24.2753267
  43.2838661  72.2035733  23.6626530  44.2236359  71.0499206  23.9399719
  67.3190975  18.2389271  17.8931069  67.1781826  19.1033792  18.2792377
  66.5356445  18.0813539  17.3662281  11.2773544  53.3515409   6.4290208
  11.5473301  54.0780166   6.9907856  11.5399487  52.5666025   6.9097960
  62.2258711  10.2205110  54.2223167  61.7537212  10.9818971  54.5593596
  61.6011667   9.7905535  53.6382675  71.6141987  37.9615402  11.5143549
  71.2783241  37.4395680  10.7856822  71.4349270  38.8674879  11.2626600
  79.8278999  21.4018822  26.4298201  79.0847063  20.9085441  26.7769647
  79.4298840  22.1057630  25.9176016  67.4210310  19.2106032  59.7535181
  67.1494722  18.5103738  59.1600847  67.4914980  19.9844217  59.1945314
   9.5179381  81.5364079  51.1263172   8.7758841  82.1407418  51.1452858
   9.3071379  80.9202222  50.4248111  74.1796207   0.5996455  29.4601202
  73.5360670   1.3078290  29.4834948  73.9510012   0.0435762  30.2049375
   2.9631571  58.3127239  19.8388290   3.3759550  59.1492465  20.0534511
   2.1112398  58.5525945  19.4742429  57.2712517  26.7174721  20.6847239
  56.9418907  27.5846863  20.9207153  56.7273378  26.1100745  21.1861777
  83.7559795  28.5399294  28.0427504  83.5368252  28.5246134  27.1111035
  84.5786572  29.0272188  28.0872965  82.4123573  19.9777484  13.6531699
  82.7854538  20.8001900  13.9703894  82.6845455  19.9289763  12.7367806
  46.7331934  40.3870869  26.3906884  47.1622086  40.9384441  27.0450449
  45.7990503  40.5610657  26.5061808  71.7988682  15.1425934  44.0329599
  72.4298096  14.7958052  44.6637344  72.3339415  15.4354286  43.2952785
   9.6188757   1.7194957  34.3615007   9.1891119   1.5084322  33.5326552
   9.1368124   2.4760306  34.6954131  15.4748079  10.4269576   9.7141564
  15.6156465  11.2264442   9.2069876  16.1488172   9.8233163   9.4017982
  68.2470560  22.7585912  33.1037712  68.0533838  23.5870695  32.6652002
  67.4805260  22.5932646  33.6527061  66.3659859  10.2915919  35.7139301
  67.2696877  10.6013119  35.6536531  66.2970543   9.9239802  36.5950322
  86.0886288  11.1746860  43.2829285  86.3001442  10.9765494  44.1951990
  86.1013699  10.3241789  42.8439426  66.0049725   0.7454759  22.9724240
  65.8756304   1.4805503  22.3731160  65.3395176   0.1071459  22.7156448
  71.7728550  77.6533893   0.1024828  71.0809548  78.1159797   0.5752607
  72.5825245  77.9306605   0.5311915  47.1391249  30.1096892  56.0562706
  46.7895174  30.1271939  55.1653719  48.0789137  30.2554202  55.9476757
  53.8724089   3.5855645  27.5948071  54.4247532   3.3931947  28.3525300
  53.8645363   4.5411956  27.5405979   1.0688707  52.2309256  15.3968453
   1.9483396  52.5656557  15.2215278   0.5056783  53.0037594  15.3548610
  68.0119467  23.5498524  41.2403822  67.5646305  22.8099990  41.6511869
  67.8582096  24.2833233  41.8358755  80.7892132  30.2865291  25.1165509
  80.3204823  29.4855928  25.3511238  80.1049709  30.8859682  24.8186898
  72.0611191   3.8164386  22.4404263  72.4522543   3.1026489  22.9441595
  71.4635134   4.2433694  23.0542898  75.0911713   7.5521255  16.6874814
  75.0461245   7.0290184  17.4878323  74.1875553   7.5882298  16.3737726
  80.8642101  24.7227216  26.8152547  80.1810741  24.3052149  26.2906146
  81.0160351  24.1144729  27.5385904  31.6527302  62.8998974  57.0830297
  31.2297518  62.0412305  57.0797968  32.3740894  62.8138974  56.4597559
  41.5836382  34.3261576   7.9651672  40.7070303  34.2915940   8.3480525
  41.6466665  33.5291934   7.4387556  60.3299046  39.4080496  15.8807480
  59.4420719  39.1283512  16.1038053  60.8272362  38.5931969  15.8106947
  20.4708406  31.4904428  19.2646587  20.7855627  30.5868387  19.2384779
  21.2102720  32.0107985  18.9504707  65.9322453  43.3803511   5.1866442
  66.3794136  43.6829996   5.9770089  65.0707197  43.0967855   5.4925835
  87.0641518  46.8096066  56.1228085  86.8923759  46.1993790  55.4056311
  87.0897865  46.2586594  56.9051313  49.1219902  23.3786488  39.7469592
  49.3826199  22.6030111  39.2502785  48.2574320  23.6037683  39.4033241
  54.2425854  79.1962746  49.3666983  54.9671394  79.5297196  48.8374901
  53.5241348  79.8066565  49.2008591  33.1386876   0.9064177  39.5445418
  33.9346552   0.5083008  39.8969150  33.3567715   1.1141097  38.6359525
  30.2991642  59.0058688  65.9322612  30.1153530  59.9446074  65.8973799
  31.1224808  58.9408342  66.4161412  60.2549982  24.7204089  22.8573489
  59.8299837  25.4398751  23.3242130  59.6325541  24.4792151  22.1713305
  35.7106382  70.7625559  36.9589782  34.9511225  70.8963862  37.5259495
  36.4634258  70.8368495  37.5455141  52.0974476   0.1701452  43.0971686
  51.4972622  -0.5259846  42.8299443  51.5266735   0.8687688  43.4171192
  64.9265528  36.2756014  -0.2240687  65.4147053  35.4758978  -0.0280692
  64.3830252  36.4203286   0.5504390  31.9994671  12.4314405  50.0345628
  31.2896282  12.3559381  49.3968598  31.6662008  13.0412294  50.6928341
  73.4811211  17.9434752  49.6907616  73.1814051  17.7455342  48.8035059
  74.2650795  17.4061000  49.8042202  39.8692162  65.9863427  14.8383999
  39.1274292  66.0319129  14.2351508  39.7659046  65.1443878  15.2818763
  79.0352058  26.2508440  14.1695929  79.9385405  25.9986949  14.3610239
  78.7941742  26.8395615  14.8848164  69.4220114   8.5339487  16.9671190
  68.8762474   8.4309971  17.7467167  69.8492622   7.6841271  16.8599200
  86.4389896  40.3773975  46.8687391  86.7924595  40.0016308  46.0624552
  87.2060966  40.5185843  47.4235773  45.5108738  22.1209049  53.8553286
  46.1601353  21.5701556  54.2927837  45.5515575  21.8553853  52.9365921
  22.8727879  71.1345438  63.5893736  22.4125065  71.5887169  64.2951373
  23.5494198  71.7508964  63.3091722  32.6385147  80.9272501  32.0700836
  32.4876339  80.4018685  31.2843084  33.5142071  80.6746234  32.3626113
  58.8757896   3.6778104  12.6430631  59.1185856   4.2240232  13.3906817
  57.9202938   3.6334637  12.6791143   1.0787889  35.1958227  47.6768923
   1.5151521  35.9208441  48.1242943   1.5273210  34.4127393  47.9960012
  59.4778156  50.3295803  47.4854183  58.7781143  50.3101015  46.8325233
  59.0206337  50.3348446  48.3263636  37.2525198  23.0394126  71.5222637
  38.0741007  22.6137067  71.2772856  37.1599037  23.7587119  70.8975537
  73.4976196  49.5294523  32.4010706  73.0110693  48.8202620  32.8212500
  74.4171810  49.2892838  32.5148892  83.0856228  27.0759797  18.9196050
  83.7209129  27.4745727  19.5143771  82.2362709  27.3866868  19.2331350
   9.7607538  30.8656621  24.5567060  10.4433080  31.5236187  24.6887636
   9.0937063  31.0781789  25.2094865   8.4258291  68.2285500  27.1165514
   8.2242224  68.1107998  26.1882639   8.9921972  68.9997673  27.1426916
  74.4668150  17.1978676  18.2779765  73.7174034  17.1087086  18.8667607
  74.3792534  16.4667225  17.6664293  71.6508896  32.6563503  71.5298881
  71.1852867  33.4480954  71.2604575  71.8429119  32.7953006  72.4572784
  33.6176998   8.6170865  64.5513253  33.5601170   8.7568189  63.6061315
  32.9519446   9.1975118  64.9202464   2.3167154   8.4945560  12.0153964
   1.9197294   8.6584944  11.1599696   3.2051966   8.2003415  11.8146944
  81.3547230  43.1578636   7.8819114  80.9884644  42.7654934   7.0893610
  81.9305801  43.8520479   7.5613940  85.9341335  49.2017937  23.6332607
  85.2066231  48.7864065  24.0963125  86.5230465  49.4966221  24.3278790
  46.7536320  34.2738984  70.8185156  46.3328709  33.9276371  70.0315644
  47.1939148  33.5179697  71.2070451  61.6187334   9.9436921  25.4895473
  62.3307276  10.3550005  24.9995279  61.9939756   9.7636753  26.3515329
  78.6902761  23.4177256  24.9918246  78.8157845  23.7874365  24.1178727
  77.8207111  23.7179661  25.2562881  67.8991365   5.8005011  45.9412956
  67.5398207   5.9008902  45.0597954  67.2566891   6.2230086  46.5113640
  83.4334564  27.5098896  32.8267932  84.1842747  27.9520965  33.2229686
  83.6250973  27.5062418  31.8889809  60.2785301   7.4560004  33.9778876
  59.7518349   7.3615897  34.7715569  60.3519773   6.5665227  33.6319590
  53.9378548  69.0191650  22.2287917  53.9573240  68.6696959  23.1197023
  53.2695436  68.4994221  21.7821860  77.7801704  23.7127280  36.3390088
  77.2634888  22.9447961  36.5830445  78.5876513  23.3517098  35.9731221
   5.8579084  51.9236279  13.3782434   6.3694307  52.4245167  14.0136051
   6.5132257  51.4881659  12.8331149  32.7373335  21.9299459  13.2821596
  32.1107504  22.2639203  13.9241004  32.4959394  22.3636985  12.4637365
  75.2358961  40.0729322  37.7776313  75.9074593  40.6212950  37.3720002
  75.1999092  39.2911935  37.2264290  62.1050596  22.1357822  53.0657005
  62.7878141  21.9694567  52.4157619  61.3687372  21.5929985  52.7838469
  19.8376200  74.4901752   7.0402044  19.9269506  73.6754465   6.5457624
  19.9638483  74.2314053   7.9530776  77.7420044  64.8090649  41.9008350
  77.8992987  65.5872059  42.4356127  76.9680405  65.0276232  41.3817549
  10.6652703  62.8833036  67.2575076  10.1076712  63.5591416  67.6429434
  10.0632490  62.1718387  67.0392818  54.0098429  13.7142754  30.7867312
  54.4179916  13.7737858  31.6505051  53.3107519  14.3678105  30.8066225
  17.8905317  27.3801041  37.2165608  17.2484705  28.0687857  37.3889303
  17.3740217  26.5750980  37.1788883   2.8324625  14.1635835  11.7495966
   1.9944307  13.7204599  11.6170013   3.1663248  14.3141735  10.8652413
  49.4866657  76.3952494   3.5595432  48.7531376  76.3428068   4.1722569
  50.2537680  76.1658287   4.0840936  75.9755182  22.8718257  44.3504953
  76.0657024  23.4925413  43.6274385  76.8453693  22.4830246  44.4422865
  70.0033808  49.3965769   8.4823251  70.6862211  48.7404060   8.3430451
  69.8740292  49.7941303   7.6212502  79.6092922   9.0873004  56.8106608
  79.3619282  10.0070287  56.7150657  79.1412480   8.6389352  56.1062912
  55.3028488  21.1969018  28.3091640  54.9812794  20.3865170  27.9140687
  54.7005033  21.8715978  27.9958034   5.2304003  35.5925560   5.6043261
   4.9570104  36.1874652   6.3025898   4.4114610  35.2424455   5.2536398
  60.1861620  13.1373525  59.6737671  60.2081108  12.4908435  60.3793001
  61.1051702  13.2685351  59.4404364  62.1008778  14.4908154  34.5072556
  61.5107203  13.8250005  34.8602939  62.0316172  15.2220106  35.1210856
  35.4230625  76.2985292  47.1600771  36.3273365  76.0516819  46.9662142
  34.8929102  75.6674394  46.6733503  74.3319321  29.8737574   2.8728721
  73.8903856  30.1940560   3.6594304  73.6366224  29.4647241   2.3576379
  27.2156164  62.3894596  25.5069280  28.0431768  61.9808054  25.2532077
  26.5584108  61.7084026  25.3638339   3.3086511  64.9924564  27.2179818
   3.0637762  65.1596451  28.1281018   4.2657301  64.9790859  27.2260427
  24.2749616   5.3245503  55.6838179  25.2007314   5.4877031  55.5033445
  23.9638445   4.8393726  54.9195957  67.7691889  38.3984089   6.2279522
  68.0286169  38.6993599   5.3571153  67.6330519  37.4565315   6.1251605
  78.3187246  12.8331423  38.3705902  78.9904118  12.9952252  37.7081704
  77.7564573  13.6070180  38.3359075   3.0909368  63.5699224  19.4790316
   3.7756082  63.4817648  18.8159502   2.8381655  64.4923639  19.4411397
  79.8587704  38.4364724   2.1278344  79.0313864  38.9043641   2.0149466
  79.7552061  37.6383328   1.6096829  84.8017025  26.5210152  45.6237316
  85.5811691  27.0734048  45.5642605  85.1328182  25.6694889  45.9092093
  61.6821606  78.8188291  23.3360863  60.8819611  78.4785089  22.9359579
  61.7837460  78.3087960  24.1396904  52.1851635  24.2096496   4.2860836
  52.9753494  24.2278218   4.8259988  52.5096750  24.1281462   3.3892667
  20.3110906  68.9749098   2.5604960  21.1764738  68.6055470   2.3846284
  20.4707453  69.9104786   2.6847965  31.2101872  81.7599077  39.6045017
  30.3462917  81.4395043  39.3451643  31.7417271  80.9690165  39.6950078
  86.7350864  27.2749376  29.1277361  86.8365002  26.3803864  29.4528890
  86.0487461  27.6531911  29.6773720  84.4542725   2.1349145  67.8526596
  83.8367207   2.2317125  68.5775675  84.2546494   2.8665544  67.2686363
  34.0351793  11.6535139  41.6873407  34.7122785  11.0996878  41.2987089
  33.7785742  12.2482741  40.9826136  19.8337919  71.2607172  10.3121912
  20.1572497  72.0256761   9.8363298  18.8863880  71.2772599  10.1765895
  73.3202362  34.1627860  19.8704946  73.8379717  34.9253798  20.1286268
  73.9183331  33.6352968  19.3410909  74.9797010  31.3815451  58.9425850
  74.5751619  31.7624998  59.7219801  74.3593788  31.5646410  58.2369614
  67.7385569  35.3177929  13.9299238  68.6429071  35.0196624  14.0273702
  67.8138638  36.1853170  13.5324788  80.9695625  40.7611656   3.1519791
  80.1346302  40.4069042   2.8459823  81.3338566  41.2091637   2.3885545
  85.1611042  40.3393936  38.4128308  85.3225708  40.9772110  37.7175999
  84.6524811  40.8203411  39.0656924  30.5331632  57.4841881  27.0377278
  30.9645960  57.1088219  27.8053141  31.2337992  57.5815439  26.3928509
  11.8866464  21.3842535  41.3060045  11.8199274  22.2819853  41.6313601
  11.0939047  20.9538865  41.6262913  56.5870762  39.8437667  55.9144545
  56.3631248  40.1183558  56.8036556  56.1961555  38.9744568  55.8266163
  51.2234116  45.8237934  25.9729075  50.7847834  46.4478350  25.3946257
  52.1080542  45.7470083  25.6154966  77.1918106  46.8701220  38.3888769
  76.9520664  47.7959919  38.3498335  78.1256771  46.8554878  38.1793356
  64.9372816  15.3700316   3.0998033  65.0942373  16.3087022   2.9973534
  64.0193605  15.2525735   2.8551459  76.6669703  12.7516484   8.6745036
  77.1465302  13.3119333   9.2846948  75.8276224  12.5912046   9.1057634
  24.3747064  22.6827788  19.6474028  24.4236299  22.5110459  20.5877995
  23.4539339  22.8913569  19.4896042  86.5646839  21.3209915  29.7166252
  85.7452583  21.5967703  29.3058753  86.3437462  20.5068421  30.1689267
   6.6152021  35.0162435  29.1331124   5.7363149  35.3263760  29.3513012
   7.0372316  35.7669449  28.7152910  55.0213051   6.1296350  27.3992157
  55.7634974   5.5766565  27.1550941  55.4206705   6.9338870  27.7307510
  70.2180195  44.7182941  33.6421728  69.2731237  44.7418642  33.4910178
  70.3064251  44.5399809  34.5784521  34.4745088  57.6958418  29.2011690
  35.2280569  57.1758461  28.9218807  34.8154545  58.5864353  29.2837834
  41.5673603  68.2646279  53.3066515  42.0072617  68.9661936  53.7867836
  41.9596256  67.4599509  53.6455552  33.7995359  31.3679957   9.8609579
  34.7221872  31.5311360  10.0567269  33.5580751  32.0630097   9.2486805
  41.6625616  66.3432789  44.3440914  42.0969984  66.4764881  45.1865578
  42.2273180  65.7266188  43.8782358  20.2203581  22.7519035  14.8498082
  20.1201937  23.5666227  15.3421783  19.4528505  22.2320151  15.0882888
   1.5009138  47.3069048  22.7428794   2.4023649  47.5455284  22.5268340
   0.9637090  47.8878498  22.2042274  31.9542906  56.3573265  29.1187596
  32.7614614  56.7277098  28.7616658  32.1902391  56.0765743  30.0029206
   0.8367559  17.6777661  19.4074607   0.5615637  16.9394827  19.9510038
   0.7970354  17.3434222  18.5114312  68.0935127  19.2182447  69.6098961
  68.9296753  18.9993144  69.1986288  67.7102692  18.3715392  69.8389055
  42.8777361   5.1885599  10.5498350  43.3158922   4.3546075  10.7194591
  42.0682716   5.1416504  11.0585618   2.0620844  71.6613007  39.7528934
   1.7324850  71.6640997  40.6515551   1.5137789  71.0215521  39.2986727
  77.5064182  37.1969724  66.1087894  77.9382610  36.4767694  65.6493855
  78.2183838  37.7916408  66.3448191  27.9959740  55.7067041  71.7414453
  27.6142754  55.8209745  72.6117781  27.2655453  55.4147689  71.1960186
  45.9595299  31.5255451   7.4347275  45.8970356  31.5829873   8.3881563
  45.7968569  30.6027555   7.2392017  62.4846220  39.3935108  69.3700027
  63.3308983  38.9477849  69.4070864  61.9302750  38.8120580  68.8495731
  34.1442949  78.3279619  55.5215263  34.2830546  79.2735827  55.4688120
  34.8324997  77.9538611  54.9713898  51.6020986  44.5518446  14.0842259
  51.8602201  43.6342001  13.9974225  52.4078485  45.0048065  14.3328738
  73.9722776  30.5078912  32.8320837  74.3829918  29.6463156  32.9044247
  73.2635355  30.3831363  32.2009301  74.6599627  57.3984003  42.4946070
  74.7476673  56.4735079  42.7250767  75.1779509  57.4963140  41.6956520
  71.4429760  31.5644813  22.0215416  71.3354111  31.8308449  21.1084628
  70.7103968  31.9768810  22.4792337  67.2737503  42.5905943   9.1028702
  67.3498344  41.6405821   9.0138853  68.1096601  42.9289293   8.7819064
  75.2065182  38.6129975  33.9244318  75.8423471  38.4450769  34.6199608
  74.4441175  38.9719629  34.3784380  24.4180479  18.6093423  63.1116581
  24.4128885  18.9349648  64.0117598  25.3325262  18.6780164  62.8373575
  82.1429157   4.5955577  40.6696415  82.1965027   5.2681834  41.3485622
  81.2546062   4.6760863  40.3222895  73.2430220  59.8597717  42.0458555
  73.2253122  60.5471277  42.7117825  72.9271173  59.0784311  42.4996567
  86.7729092   7.6528794  56.0197067  86.5670967   8.2834578  56.7098093
  87.6750183   7.8551722  55.7716894  61.8230581  24.9656200  11.9820249
  61.6180229  24.0432501  12.1350753  61.2710333  25.4400349  12.6036608
   9.5545599  56.9807243  17.6270330  10.2059004  56.3221931  17.8685355
  10.0489542  57.6385403  17.1380687  56.1380911  37.2715330   8.4917128
  56.0972214  38.1180072   8.0466950  56.8664980  37.3590851   9.1065240
  29.6731550  15.0198175  71.5552051  29.6744330  14.4691564  72.3381504
  28.8656981  15.5294849  71.6221594  63.1994073  69.0198330  65.9834109
  62.3274009  68.7799458  65.6699012  63.0638521  69.2760638  66.8956624
  48.1674940  70.8021203  26.2641454  47.5560410  70.1879004  25.8578324
  48.0119736  71.6304138  25.8102989  12.2499432  65.9858803  60.5348913
  11.7400088  66.5945367  60.0003521  13.1539358  66.1142449  60.2475647
   3.7061521  34.9340892  29.9126267   3.1652567  34.1552997  30.0435877
   3.7104055  35.3689075  30.7653546  69.0476084  50.0078106  12.0341468
  68.7405252  49.9821520  11.1279058  68.5205078  50.6922579  12.4463630
  83.3557510  18.0329835  36.9593263  83.2648182  18.9595389  36.7369318
  82.8639507  17.5738609  36.2784672   7.4384519  70.4222679  46.5822077
   7.9808447  69.6528196  46.4090443   6.9120142  70.5274725  45.7897282
  77.6753139   1.0218435  33.6455846  78.4121561   1.0357179  33.0347633
  77.9376268   0.3987340  34.3231964  31.5240976  40.2544594  28.9659214
  31.3370725  40.7957029  29.7329354  30.6658861  39.9452114  28.6759806
  18.8617822  19.5903015  34.0597320  18.4257242  20.1317835  33.4017968
  18.8498995  20.1233006  34.8547196  74.3214750  38.2273054  20.8984780
  73.7714195  38.5383725  21.6174412  75.1267815  38.7391376  20.9742618
  65.9242296  15.9223962  40.9168100  66.8644094  15.9784937  40.7460976
  65.7082462  15.0018692  40.7677698  75.2413130  32.5644922  28.0033159
  74.5196199  31.9543362  28.1552935  75.1976776  32.7586412  27.0670295
  73.4771681   2.3375051  26.1164975  73.5214138   2.2177348  25.1678514
  72.7037191   1.8414629  26.3847256  80.3263283  62.7319431   8.5826463
  79.9766254  62.7645540   7.6922089  80.2493572  61.8122768   8.8366634
  68.6576462  32.0236135  17.8550625  68.2573986  32.8918171  17.9025269
  69.5426655  32.1488285  18.1975460  27.7821752  13.9009523   9.2281747
  28.7001154  13.7038839   9.4146639  27.4806806  13.1610727   8.7010044
  86.5543461  55.4239416  43.6694813  86.1474800  55.4378510  42.8031683
  87.1398067  54.6669960  43.6469984  54.1655302  13.3680880  54.2341805
  53.9142275  12.9302096  53.4209490  53.9905834  14.2949283  54.0711021
   7.7399751  49.9974108  30.8624792   7.6042387  49.5888376  30.0075674
   7.5518057  49.3020821  31.4928317  27.7346308   7.6235963  68.3584059
  28.0313141   7.3313857  67.4965341  27.7497322   8.5792209  68.3056096
  12.1175310  23.1696105  19.6981633  11.4240858  23.4034395  19.0811658
  11.6570875  22.9817963  20.5160570  75.7531118  52.9508209  23.0275941
  75.7564068  53.8279676  22.6443982  75.2473927  53.0440474  23.8349295
   4.0444299  61.9108534  51.1288929   4.7115537  62.1310711  50.4787493
   4.5407507  61.7047977  51.9210052  69.1981602  12.6805806  59.7552824
  69.4785166  12.4460864  60.6399536  68.2441568  12.7337408  59.8125553
   8.7485906  60.7547140  34.7193837   9.3064329  60.0088692  34.9401999
   9.2896482  61.2968016  34.1452575  82.9797649  46.1329365  27.3311496
  82.0581436  46.3095236  27.1422863  82.9924202  45.2251673  27.6345062
   8.9266321  47.7503633  33.3342505   8.1610224  47.4606895  32.8380990
   9.4543859  46.9593430  33.4437752  48.0373669  11.2781751   5.3392464
  48.8200903  11.7688584   5.5898559  47.8155136  10.7672596   6.1176932
  55.5101235  74.8144665  18.5329485  54.7033913  74.5093378  18.1178546
  56.1302502  74.0960678  18.4081256  79.4220972  53.4660959  38.7035179
  80.0488091  53.7534571  38.0395222  79.3004370  52.5326490  38.5299945
  82.4675083  17.3250568  43.6763096  81.8789864  16.9962370  44.3558359
  83.3327198  17.0073020  43.9344978  80.1425457  38.4727335   5.2728158
  80.9205437  38.0682182   5.6566453  80.2424812  38.3375645   4.3304926
  80.9999180  22.3813343  44.6787977  81.6566467  21.6908765  44.5882368
  81.5038300  23.1949663  44.6613550  29.9660809  74.8791757  34.1308856
  30.0525219  74.3036786  34.8908615  29.8964436  74.2827317  33.3854771
   5.6564066  22.8311133  26.6611910   5.4269335  23.7581539  26.5966487
   4.9235746  22.4352407  27.1328568   6.6306223  61.3261489  72.0161745
   7.2243418  60.5818347  72.1148149   7.2001089  62.0562796  71.7736278
  56.5690660   8.3420563   0.4857664  57.3212099   7.7529484   0.4268931
  56.8225145   8.9890152   1.1441284  61.2602806  26.0435009  19.1227400
  61.6991091  26.3270402  19.9247789  61.2601900  25.0877190  19.1748321
  27.7330565  55.5312347  23.9287210  26.7998958  55.3241587  23.9793563
  27.8953743  55.6790829  22.9970431  13.4532799  70.5239777  70.6847477
  14.2816176  70.0722889  70.5232994  13.0761828  70.0705151  71.4386719
  82.5882721   1.9270815  35.3505468  83.4427929   1.4980528  35.3948307
  82.1858978   1.5779394  34.5552945  57.3120205  54.5561973  53.8259892
  57.1588366  55.2312021  54.4871513  57.0594780  53.7387745  54.2552606
   3.9093038  44.5031023  23.6347079   4.2534181  43.8961744  22.9793787
   4.5159742  45.2433014  23.6175799  67.8498411   2.0420408  27.6925588
  68.4165955   1.7357385  26.9846058  67.8219318   1.3113131  28.3102083
  23.9258119  41.4956713  11.5682983  23.9357588  40.5505323  11.7194474
  24.6836969  41.8236256  12.0523286  81.8553829  46.1267614  35.9669995
  82.0225716  45.4874659  36.6595149  82.6377392  46.0936546  35.4165006
   0.7981035  21.2941408  -0.1814191   1.5825674  20.7474613  -0.1368121
   0.6621763  21.5918469   0.7180945  66.7304373  17.9387331  25.8589244
  67.1134758  18.8073671  25.9813499  66.0852814  18.0575371  25.1618648
  76.8323135  35.5411649  12.4038208  76.7973042  36.3797402  12.8640366
  75.9881878  35.1301837  12.5903165  87.4749851  36.6260362  12.5845516
  88.1261730  36.4524031  11.9048238  87.6394749  37.5314021  12.8481507
  75.7464552  31.1487675  23.6551380  75.0210857  31.7674375  23.5696006
  75.6522179  30.5637670  22.9033899   2.2155973  35.1791167  39.3728161
   3.1023237  35.1432848  39.0141177   1.6848585  35.5419874  38.6636829
  72.0741940  55.2989769  30.0830388  72.1163654  55.4901695  29.1460752
  72.0764351  56.1589766  30.5033112  82.2403336  41.4959002  34.4379973
  81.7494297  41.8413448  33.6924028  81.6212082  41.5266275  35.1673579
  75.6631851  42.5879526  18.4106469  75.3160191  42.8282881  19.2696857
  76.5815210  42.3736525  18.5748518  27.4111578  55.0539017  10.2554500
  26.8097421  54.5454121  10.7994735  28.1192991  54.4444513  10.0472414
  23.3577940  71.3950253  16.2272167  24.2967436  71.4241886  16.0434806
  23.0868074  72.3130274  16.2358749  59.0716124  32.2364712  24.5750809
  58.6100435  32.5796175  23.8099408  58.8458824  32.8410506  25.2820206
  82.6022339  71.4274120  17.4427307  81.8267727  70.9395695  17.1654296
  83.1417370  71.4879084  16.6543698  75.0638294  36.8376231  30.2521539
  75.5716038  36.0388756  30.1093364  74.6103048  36.6880107  31.0817122
  81.2479687  33.6242223  16.1913109  81.7825317  33.4386086  16.9633365
  80.5610371  34.2093349  16.5106714  77.5221855  43.2170345  69.2714478
  77.3214943  42.2832729  69.2078440  76.6988976  43.6208106  69.5460416
  59.2162514  41.1744118   0.3768887  60.0403070  41.6178274   0.5782563
  58.5517788  41.6793776   0.8456311  10.2026674  80.1613808  10.7373273
  11.1346552  80.0336742  10.9143138  10.1660845  80.4094219   9.8135471
  64.0069008  65.1441002  19.6891081  63.7723637  64.6220589  18.9218414
  64.7064734  64.6465874  20.1125646  54.9268961   4.9065605  39.7379732
  54.6216297   5.8090174  39.6451473  55.8744144   4.9844679  39.8492002
  49.2623997  18.8010871  -0.1665250  49.6540165  19.5864773  -0.5486675
  49.0165663  19.0634012   0.7205994  30.2069940   5.7841775  12.1114719
  30.7578745   5.2500436  12.6837242  30.5761137   6.6648671  12.1775424
   6.2971994  75.4277802   4.1884980   6.2461397  75.8322573   5.0545382
   7.0396444  75.8595324   3.7658975  15.0110163  70.7896427  37.4748985
  14.8931374  71.0970048  38.3737127  15.9037508  71.0499100  37.2479121
   2.2097418  30.7440996   8.4453958   1.9416162  30.4433823   9.3136752
   2.2362444  29.9484158   7.9139650  80.9342384  42.1240091  13.8361323
  80.0598145  42.4490643  14.0505099  81.1900330  41.6042662  14.5981491
  84.6648788  73.5045624  39.0503550  85.0123501  73.2998323  38.1822658
  83.9779377  72.8534222  39.1930604   0.8247301  50.1848221  10.2464199
   0.0114557  49.7338629  10.4732692   0.7989713  50.9954166  10.7548535
  23.3531400  61.5462351  39.2721677  22.4509451  61.8351173  39.1349602
  23.8679430  62.0680046  38.6565638  24.7079832   8.7310029  72.0323090
  25.0016768   9.4327165  71.4512923  25.0146944   7.9276992  71.6117575
  86.1381912  68.8796091  12.7163374  86.6805649  69.2369509  12.0132267
  86.5577602  69.1843033  13.5209179  71.3581181  49.2558718  13.1573188
  70.6822491  48.9089775  13.7396383  71.0317802  50.1176023  12.8981876
  85.0117970  56.8334007  22.9613757  84.9125671  57.5044727  22.2860622
  84.2742538  56.9789648  23.5538888   7.0745100  77.5606541  66.5073429
   6.8303551  77.9453544  67.3491434   7.7601876  76.9284634  66.7227767
  86.3249969  19.2673087  31.4450026  85.8082390  18.4629226  31.4914489
  86.4611626  19.5176160  32.3588061  31.2356819  46.2090744  61.0589377
  31.1764015  46.8315260  60.3341822  30.7726826  46.6359816  61.7797832
  15.8471987  75.1770735  24.6463418  16.4866564  75.8840227  24.7332644
  15.9225103  74.6841908  25.4634237   1.7863741   4.4132707  26.3914347
   2.1931209   4.4309709  27.2577357   1.1025419   5.0816819  26.4342093
   8.9869537  33.4720895  39.1373849   8.0867042  33.7499139  39.3064976
   9.2616214  33.9952752  38.3843446  16.0225508  48.5491848  36.4257622
  16.6074964  49.2627573  36.1710262  15.1919386  48.7558126  35.9972596
  15.4381640   4.4683648  44.0813701  16.0529549   4.7941304  44.7387449
  15.6512053   4.9613954  43.2890527  63.4524822  40.4939651  62.1142244
  62.5950289  40.0940275  61.9690990  63.2963753  41.1583424  62.7853918
  26.1998262   1.1969945  14.4446695  27.1292677   1.0137269  14.5817375
  26.1381139   2.1519372  14.4673681  85.2571678  51.7158890  44.8983717
  84.7706223  52.1231699  44.1816902  86.1518860  52.0399570  44.7950220
  86.2066174  50.4801464  28.0336857  86.6351891  51.0192585  28.6984491
  86.9146061  50.2172089  27.4456000  32.6061746  57.6262093  37.3947620
  33.0860826  57.7540922  36.5764928  33.2372495  57.8473806  38.0796337
  13.1545564  63.6687851   4.8494279  12.9774210  63.5484982   3.9164823
  13.4446642  62.8079271   5.1510781  15.1509878  46.1282301  29.4000936
  15.4085371  46.8492317  29.9745989  15.5659315  45.3559208  29.7842622
  36.3369972  23.4954597  46.4946286  37.1166021  23.0700923  46.1375372
  36.6390020  24.3635465  46.7619221   4.1844579  36.0594273  37.3797011
   4.8946401  36.4626741  37.8789663   3.7613413  36.7915082  36.9310737
  29.4921476   3.9282800  64.0629379  29.4601280   3.8391734  63.1104318
  29.5648939   4.8708392  64.2130093  19.1071626  23.9523292  52.3266506
  19.5352766  24.1311145  51.4893961  19.4014856  24.6586037  52.9017878
  72.9315069  57.9112101  68.2904673  72.7293077  58.8134527  68.0428743
  72.2794536  57.3842239  67.8285742  52.5721662  72.0039319  23.6023148
  52.2379845  71.2385916  24.0700825  53.4812181  71.7828368  23.3998974
  82.7725282  56.0393476  41.7559576  82.3959825  56.1432266  40.8820868
  83.6373687  56.4448404  41.6938591   2.8113857  29.5519209  17.0343125
   2.4060309  30.4076672  16.8942547   3.7105271  29.6591401  16.7240214
  13.3751118   5.3110290  65.0500202  13.5042071   5.5876613  64.1428041
  13.5841417   4.3769342  65.0476456  37.3049991  68.7567138   7.6765831
  38.1141888  68.2484816   7.6205357  36.8899881  68.4578131   8.4856899
   2.6146147  38.6258173  44.8161459   2.8671768  38.3218980  43.9443207
   2.6562494  39.5803690  44.7584152  12.7082668  14.0602442  10.7982262
  12.1973120  13.3604904  11.2050446  13.0236469  14.5852562  11.5338333
  66.2278369  44.0261936  47.8777313  66.8879393  43.7331772  47.2495270
  65.5591086  44.4520378  47.3413658  85.8295302  59.0804005  56.6223431
  86.3050622  59.7097635  57.1645641  85.0722060  59.5677519  56.2980270
  87.0058833  14.2247148  22.7088650  86.0946117  13.9557310  22.5928314
  87.2673116  13.8320537  23.5417565   1.7977518  77.8294277  56.5487671
   1.4014184  77.8107834  57.4198627   1.2810531  77.2069168  56.0371685
   0.6722648  22.2460600  28.8799389   1.2619312  21.4926239  28.9093598
  -0.1709907  21.9018741  29.1743763  60.9982804  52.0257950  56.3163328
  61.9462302  52.1474791  56.3693953  60.6716707  52.3144770  57.1685171
  78.1637975  58.4308528  16.2165554  77.9765388  58.4191715  17.1551903
  78.7809726  59.1538714  16.1044319  82.4493418  18.4343715  32.4121483
  83.3739696  18.1996723  32.3333176  82.1833192  18.6623760  31.5213783
  79.2761871  81.0842323  59.0996742  80.1193628  80.7577801  59.4138622
  79.3352696  81.0216141  58.1463528  31.6158104  36.7966986  71.4001703
  32.4668431  36.4424992  71.1422634  30.9818649  36.1572814  71.0753727
   1.2960923  41.9569874  66.9538498   1.3518529  42.5420523  67.7093744
   1.7386281  41.1569500  67.2372818  23.0529714  58.1470871  69.6834993
  23.7168026  58.8043737  69.4748497  22.9075193  57.6834059  68.8588333
  31.9132601   2.6399561  22.0875652  31.1837683   2.9464050  21.5489014
  31.8978344   3.2084699  22.8574951   9.5608997  52.1939039  67.4852133
   9.7829413  51.8765879  68.3605623   8.9705014  51.5284777  67.1318436
  76.5192524  68.8351154  54.0832853  76.5450707  69.2184734  54.9599838
  77.2654334  68.2359648  54.0617990  23.4825217  72.0060037   7.5565298
  23.5833823  72.9512881   7.6683148  22.8926807  71.9149040   6.8081816
  50.8398936  71.3759831  45.3527021  50.2282015  70.8497563  45.8676291
  50.4434023  71.4211729  44.4826555  26.4158630  30.7919598  63.4387112
  26.3109565  31.5262723  62.8337240  27.2435713  30.9669280  63.8865042
   6.7502660  77.9292440  56.2663651   7.2516960  77.6327753  57.0259047
   7.4116749  78.2485580  55.6525135   8.9433825  35.4534245  47.2607231
   8.7720710  35.6126976  46.3325453   9.8642445  35.1942253  47.2932863
  67.3887184  41.1375332  52.1441555  67.7829269  40.3339720  51.8048525
  67.9515222  41.3898516  52.8761530   0.3832053  43.1977129  47.2307491
   1.3228604  43.1960726  47.0483303   0.2417243  42.4167109  47.7657700
  24.6520782  70.9705734  53.4434652  24.3129706  70.0921679  53.2712984
  25.5605435  70.9396410  53.1435204  75.3369406  17.3486984  44.6642971
  76.0435012  17.8595805  44.2693233  74.8359957  17.9861605  45.1731491
  26.3508511  58.3422709  54.9284983  26.4271069  58.9804554  55.6378222
  26.0183668  57.5512505  55.3527212  20.1039171  57.3056841  38.0716848
  20.8188295  57.9015636  37.8479552  19.6079087  57.2107315  37.2585487
  44.9235301  79.9329900   2.5778301  44.8020344  80.8783268   2.6662071
  44.7667938  79.7570609   1.6500815  15.3014081  72.5879048   0.4689320
  14.3956583  72.5920986   0.1593645  15.2512102  72.9311966   1.3610418
   1.3027011  70.4552889  55.9546280   1.8993774  70.8798885  55.3382492
   0.4701895  70.9124374  55.8355904  33.6846338  58.4491487  26.4559372
  33.0439578  59.0403028  26.8512829  34.2661391  58.2090803  27.1773537
   1.3094204  78.6530875  27.0921238   0.3885429  78.5609316  26.8477448
   1.7841046  78.1479477  26.4320191  72.2614577  25.8807325  61.1684752
  72.6794306  25.0203204  61.2034559  71.4209858  25.7568288  61.6094828
  22.9590583  43.0571365  57.3854160  22.1028066  43.2079268  57.7858210
  23.5530400  42.9406214  58.1269312   5.8847696  45.8564615  42.3246622
   5.3805727  46.2279844  41.6007948   5.6977767  46.4314365  43.0667305
  74.1420451   1.9961880  71.3819933  73.2034972   2.1066806  71.5341425
  74.3892828   2.7530256  70.8506727  74.3261503  22.0819660  20.0127133
  74.2345403  21.6391083  19.1690834  73.8050733  21.5543838  20.6180008
  85.1611005  57.6181360   3.9028366  85.6024061  58.3390089   3.4535940
  85.6152974  57.5451608   4.7422512  23.9685570  10.5570169  16.7122467
  23.9490925  11.5139528  16.7009266  24.7328268  10.3267332  16.1839588
   8.7151772  45.2518511  48.9945364   8.2134902  45.9295177  48.5414314
   8.1523919  44.4780827  48.9663887  32.3274589   8.4126836  22.4353576
  32.6229215   9.2018050  22.8894734  32.6892066   7.6908481  22.9494810
  88.0033688  69.8569727  51.1297321  87.7100764  69.3523312  51.8883801
  87.5723676  69.4401073  50.3836155  75.2166787  53.0970812  51.4166784
  74.7516123  52.3581839  51.0242796  74.8659542  53.1561661  52.3053455
  72.5452760  17.5298941  66.8877363  73.1500676  17.3090780  67.5960445
  73.1119326  17.7865779  66.1602402  79.0300070   4.7398277   8.9684780
  79.6136127   4.7511478   8.2098492  78.5624014   3.9075514   8.8985356
  12.4577689  40.2241850  41.8250513  12.6576209  39.3090415  41.6280651
  11.6698718  40.1859283  42.3672533  74.1664289   9.4586178  21.4547547
  73.8006829  10.1292129  22.0316036  73.4340964   8.8674684  21.2802132
  35.7432437  80.3768635  52.6092958  36.3234758  80.9628105  53.0953312
  34.9173045  80.4027557  53.0924034  85.3368032  59.9071884  42.0561409
  85.3779936  59.5502043  42.9433298  85.8175723  60.7332754  42.1078062
  71.7268649  70.3743839  57.8656626  72.3346737  71.0222435  57.5091743
  71.0164633  70.3346682  57.2253609  14.4666255  70.3347683  43.6439276
  14.5856202  69.4570494  44.0068054  15.2808738  70.5115747  43.1727886
  74.9767903  17.6816642  28.8785362  74.8475817  18.0794978  29.7395039
  74.1313425  17.2849011  28.6687088  66.8716315  37.1609902  68.0466509
  67.2041944  37.2662282  67.1552706  67.3977187  37.7644277  68.5713673
  62.3350034   0.6728359   8.2073792  61.7760743   1.2805315   8.6916741
  63.1860162   0.7323213   8.6415108  77.5073806  38.7490296  46.7533731
  77.9920235  37.9259968  46.8163776  76.5869311  38.4872389  46.7750692
  71.1380492  35.5237671   6.7733629  71.2474309  34.6865507   7.2242983
  71.1257957  35.2953764   5.8438929  15.8727860  65.2078581  65.0785494
  15.4336905  64.4273758  65.4165936  15.9423220  65.0543690  64.1363001
  27.4002957  40.6285715  32.7297783  27.6846361  39.8603821  32.2345376
  28.1807280  40.9069252  33.2090235  28.1470895  62.7330351   2.4180689
  27.5146627  63.2797527   2.8842986  28.9861321  63.1758308   2.5452372
  34.6013355  77.3667765  66.3683176  33.7893915  76.9900894  66.7075586
  35.2842903  76.7593431  66.6526222  45.0982761  31.7119145  65.4462814
  45.1241446  30.7626057  65.3263712  45.5306911  32.0634985  64.6680546
   9.3317109  69.3809366  64.3691826  10.1088274  69.8538208  64.6670151
   9.4184297  68.5098124  64.7562838   3.2693443  44.5996809  30.7245541
   4.1887501  44.3733883  30.5841374   2.9020995  43.8401365  31.1767220
  37.8186767  80.1784395   0.6702145  37.2832518  79.8436474  -0.0491325
  37.7059238  79.5367717   1.3714846  12.9830003  83.1679535  17.6637447
  12.7272534  82.2537041  17.5413847  13.6293924  83.1434727  18.3693016
  33.6929154  39.6570230  68.0459118  33.5847330  39.7634697  68.9910030
  32.7993512  39.6006131  67.7074003   9.1235977  42.7312088  61.8517256
  10.0743544  42.6647091  61.9404459   8.7815261  42.0330954  62.4101686
   6.2213285  10.3001924   5.7693537   7.0894725  10.1914879   5.3811033
   6.3396390  10.0661274   6.6899260  45.6477594  50.2572298  70.4462719
  45.3994370  50.1468277  71.3640833  46.0181475  49.4111395  70.1949167
  72.6454364  22.7532192  12.9248627  71.8791471  22.6629253  12.3583992
  73.1881068  23.4113498  12.4905689   4.5380480  19.6154781   6.7944296
   4.3364031  20.4609438   7.1953734   4.9701102  19.8383852   5.9698876
  69.3107918  30.6156468  46.6957378  69.3081382  30.2722931  45.8022451
  69.3027797  29.8365307  47.2517490  59.9150789  23.8251777  53.7299164
  59.3751934  23.3178707  53.1237896  60.7376866  23.3385940  53.7827023
   4.2481560  52.0417786  49.7640753   4.0052366  52.9440069  49.9719381
   3.4127906  51.5818834  49.6810579  10.2035856  15.6028593  69.7612810
   9.3749058  16.0639954  69.8911858  10.6251705  16.0670316  69.0380669
  19.0070546  64.8109293  54.3916845  18.7767315  65.2924013  55.1862717
  19.5452273  65.4222107  53.8887548  75.8473459  47.3932981  41.2045527
  76.2633601  46.9892788  40.4430199  76.4010683  47.1392775  41.9428635
  24.2786527  76.1760330  47.2184229  24.8358727  75.6323719  46.6614914
  23.7248850  76.6587591  46.6047859  58.2823944  10.8880134  28.7952049
  57.9885738  10.9634109  27.8873451  57.6076107  11.3380619  29.3034943
  56.1040495  12.3173424  10.2071007  56.4331539  12.0390220   9.3524368
  56.6996628  11.9113584  10.8369072  85.7104812  16.1479374   1.7061384
  85.2270733  16.9087072   2.0282848  85.6656824  16.2217899   0.7528456
   9.7413158  23.8232088  68.9271927  10.0823867  24.5360160  68.3869982
  10.4648733  23.5987592  69.5122719  81.3582537  44.6879101  64.7285843
  81.8276653  45.4079533  65.1497936  80.4784557  44.7234678  65.1039791
   6.4105589  27.1113249  32.0640095   6.5611131  26.8761774  31.1484345
   5.5196364  27.4610229  32.0780953  10.3830266  10.8722663  41.4881611
  11.2910306  10.6972504  41.2409163  10.1692009  10.1835942  42.1176386
  40.6875036  15.5633827  18.8935860  40.1473675  15.2767368  18.1571587
  40.0609396  15.7427879  19.5946320   6.2875755  36.8791004   9.6372803
   7.1287115  37.1531959   9.2717751   6.4770968  36.0521551  10.0805386
  84.7864567  35.4625173  12.5417526  84.1417323  35.5569931  11.8405922
  85.6075392  35.7661815  12.1546562  10.9560316  17.2876737   6.7062980
  11.4223533  17.9961678   7.1499425  11.2638348  16.4909360   7.1383733
  26.6227031  74.6120214  66.0447693  25.8719850  75.1623297  65.8215809
  26.2464213  73.8807392  66.5345335  45.9544115  58.5026680  31.8538483
  45.5264871  58.2092963  31.0494621  45.7497268  57.8227268  32.4957379
   7.9616559  36.6068625  49.6345854   8.1143022  35.9778976  48.9293671
   8.5178149  36.3023376  50.3516531  62.7307366  19.4134041   4.6547993
  63.5515566  19.8994013   4.7341450  62.0873527  19.9533649   5.1138552
  64.8861836  26.7220159  23.7381085  64.5705639  26.0640712  23.1186493
  65.7016919  26.3564630  24.0809639  48.2580291  15.5948396  11.1026009
  48.5479127  16.3178154  10.5462750  47.5632773  15.9717460  11.6425045
  47.6363121  23.6112734   6.3017710  47.7864228  24.0827556   7.1211632
  48.1239353  24.1095777   5.6459196  86.2678911  35.0417447  47.7030373
  85.9739295  35.6789398  48.3540392  87.2189635  35.0139475  47.8075409
  22.9671884  38.5554647  43.1407118  23.5327363  39.3255305  43.0825329
  22.9080391  38.2332349  42.2413254  71.5924309   3.2166620  17.0248421
  70.8209763   2.6636787  16.9011505  72.2533987   2.6277204  17.3888596
  81.6230737  43.2528349  17.7207096  82.0764242  44.0901228  17.8189572
  80.7420526  43.4165712  18.0571945  83.2350336  14.4395157  12.3517235
  82.8803764  13.6505361  11.9418915  82.9336534  14.3942257  13.2591160
  20.5685759  55.3260851  49.9815130  20.8030939  55.8209085  50.7666159
  21.3508081  54.8127890  49.7793531  21.9093299  17.7297187  59.0667629
  22.4513841  17.0114481  59.3931007  21.1509252  17.2979176  58.6735678
  76.4073609  19.1796871  18.0326088  76.5477656  19.6808286  18.8359650
  75.7634924  18.5141464  18.2749279  61.9798942  58.2996698   1.5545853
  61.8727933  57.8324934   0.7260283  61.6035683  57.7130457   2.2106989
  42.1131866  63.6946963  18.4473141  42.3169535  62.8195928  18.7773140
  42.6398187  63.7795852  17.6525219   3.4568462  50.7874727  41.3855982
   3.2846504  50.8896637  42.3216200   4.0910336  51.4750004  41.1822701
  79.5311485  25.6175657  18.7792595  78.7500153  25.3464075  18.2970436
  80.2561126  25.1971908  18.3167179  78.3862684  28.0740972  16.1751755
  78.2452641  28.9283748  15.7670506  78.7498055  28.2774587  17.0369824
  37.7074862  77.2423124  71.7124891  38.5185838  76.8954468  72.0840216
  37.9672337  78.0636644  71.2951851  63.1836073  28.2897897  18.2458695
  63.7758265  28.2823606  17.4939068  62.5553463  27.5911995  18.0628594
  58.2255954  15.0846954  16.4675530  58.7174175  14.7451015  15.7198818
  57.5510025  15.6408258  16.0778435   2.6237521  68.9891624  48.6443329
   3.5152495  69.2237854  48.9020443   2.3705457  68.2997942  49.2582464
  60.0743750  64.7075605  60.8701897  60.9070805  64.2610741  61.0234213
  60.2985051  65.4436350  60.3008127  85.0825058   4.1153856  11.7877300
  85.3899585   3.2841106  12.1492394  85.7532631   4.7494837  12.0411785
  33.9832783  59.4204378  65.2593946  33.3485341  59.2353106  65.9515381
  33.5084248  59.9760437  64.6412945   9.6450126  30.3406692  48.0008793
  10.0160468  31.0001111  47.4146175  10.4063678  29.9166179  48.3967972
  29.6790028  48.9094162  38.1551290  29.1373134  49.3401861  38.8163733
  30.1482630  48.2281303  38.6366606  21.7620366   2.8916261  64.4143867
  22.3750137   3.0012509  63.6874247  22.1591645   3.3766553  65.1377630
  38.1221900  12.5712444  63.0412160  38.0842338  11.6990758  63.4337924
  38.2461033  12.4078656  62.1062372  85.0361691  17.6336237   9.9443348
  84.2474805  17.1078726  10.0777252  85.5621587  17.1242233   9.3278320
   1.8370049  81.0149621  28.9486988   1.1879056  80.4612683  29.3826588
   1.8191259  80.7331513  28.0340965  16.4583755  64.7727346  48.1889820
  15.5073571  64.8527384  48.2624388  16.6058850  64.4889784  47.2867870
  37.6272297   2.0516960  51.6710043  37.1793628   1.7202227  52.4493217
  37.3523092   2.9663852  51.6077995  78.4155783  41.4087772  28.4195232
  78.0104557  40.6340456  28.0297852  79.3406913  41.3395691  28.1837106
  77.4844216   3.8241096  27.3046215  77.4864708   3.1096359  27.9416092
  78.4085809   3.9631172  27.0976456  75.9295700  20.5665060  11.2535675
  76.2141643  20.7387682  12.1510990  74.9809490  20.4571863  11.3199051
  53.8054843   7.0205065  21.2478932  54.0199001   7.8077455  21.7484005
  54.6496470   6.7036005  20.9266575  73.4932171   6.5117069  12.9631718
  74.1457377   6.3907667  13.6529740  73.8856040   7.1544834  12.3723229
  65.1160835  28.9237209  31.7324265  65.6687932  29.2219444  31.0100659
  64.2487965  28.8163706  31.3418873   1.2111098  61.8025589  47.4942112
   0.3111796  61.5557671  47.2810173   1.3820814  61.3806725  48.3362436
  33.9634704  82.9091738  21.8238361  33.9197513  82.4732970  20.9727581
  33.3983948  83.6759995  21.7295082   8.5392976  45.8468866  43.7817478
   7.6651186  45.7030058  43.4193373   9.1319227  45.4543257  43.1407118
   6.9617026   4.2213437  68.8627529   6.4613502   4.9974629  69.1147947
   6.4177697   3.7891099  68.2043123  74.6866415  16.2249609   5.5598934
  74.1721211  15.5725380   6.0351284  75.5931948  16.0402580   5.8054073
   6.7074686  57.0782280  64.9969530   5.7946122  57.0444298  65.2829313
   6.6613138  57.3486423  64.0799046  13.8207328  46.3358450  67.3413086
  13.1747484  45.6392622  67.4583960  13.5193169  46.8147182  66.5692568
  86.5521482  39.6010804  69.5272255  85.6082341  39.4869280  69.6377993
  86.6577558  39.8455954  68.6078262  50.9372131  30.3941437  22.9630573
  50.6623290  31.2898632  22.7671917  51.8580244  30.4751297  23.2116135
  50.5932334  46.3405895  64.1031361  50.1605156  47.1121883  63.7375927
  50.1994637  45.6023598  63.6381721  34.1781878  66.5503073  68.3941078
  34.6570349  66.4108849  67.5771046  33.9569759  67.4815607  68.3861542
  79.8340903  13.2794281   3.2461746  79.4324361  13.4525152   2.3947390
  79.7566782  14.1073652   3.7202652   5.6733806   4.9616905  16.9672878
   5.6830962   4.4986625  16.1295899   5.0081618   4.5074173  17.4843510
  67.4140952  43.5331770  13.5918720  67.9118977  43.5148187  12.7745064
  66.6346316  44.0492292  13.3860500  29.9020457  56.2247801  65.5484867
  29.3605971  55.8734512  66.2553310  30.1024222  57.1197701  65.8224773
  80.6721005  47.6921844  58.7889194  81.0440478  48.1791449  59.5242834
  81.4326498  47.3509979  58.3184052  47.7789956  80.6276940  11.7403324
  47.0963042  80.0859402  11.3445194  47.3002761  81.3040232  12.2195347
   3.6866599  52.5168467  63.6300278   2.7680975  52.3261881  63.4399652
   3.7907228  53.4415579  63.4057188  76.6044286  40.8338833  55.9011030
  76.0477820  41.6125822  55.9036779  76.9716910  40.8049202  55.0176382
   0.9893267  35.1750517  32.6670313   1.5407240  35.9572935  32.6498985
   0.7832907  35.0070643  31.7474866  67.6060711  35.7462736   9.6138104
  68.5578470  35.6514593   9.6507557  67.2816895  35.1812931  10.3150948
  55.4038311  14.8633142  11.4459236  55.9497110  15.3528257  12.0612534
  56.0262857  14.3573089  10.9236820   8.4946752  72.4626541  50.8189201
   8.0053771  72.3964500  49.9988985   7.8209144  72.4909306  51.4982414
  83.8130351  80.3354930  11.6469296  84.2851230  80.0889896  10.8515652
  83.9992162  81.2679766  11.7566879  67.3187737  20.0176426  13.1041916
  68.2207356  20.2633138  13.3099659  66.7870067  20.5191084  13.7222489
  16.1422241  38.8646555  65.1500034  16.9164085  38.6041403  65.6490040
  16.1946094  38.3534837  64.3424177  38.6404967  78.4100485  36.5703440
  39.2476392  78.8557720  37.1610570  38.0761552  77.8974056  37.1490908
  35.7116032  71.7077589  20.1349783  36.3298416  70.9966087  20.3031445
  36.2374449  72.5043297  20.2070832  81.9938079  68.9289904  19.7148943
  81.7202184  68.9953995  18.8000333  82.9458729  68.8387156  19.6742225
  84.9651656  38.4635520  51.7879009  85.5793524  37.8524327  51.3810349
  85.5213299  39.1375780  52.1785450  20.5788493  69.3000317  59.6058607
  20.8397508  69.6095800  60.4732370  20.0085115  69.9899817  59.2668676
   1.7343269  17.8744550  11.4361199   1.8001734  17.4982019  10.5584343
   2.5313888  18.3953996  11.5338047   6.6494639   1.1739822  24.0020283
   6.0409648   1.3414188  24.7216995   6.7386849   0.2211900  23.9805802
  58.4158721  18.3455749   1.7490633  58.3728700  18.1759306   2.6901253
  59.1723445  18.9225908   1.6440304  36.0860794  81.4866279   9.4343002
  36.7614435  80.9583305   9.0088375  35.3776842  81.5321325   8.7921723
  14.1751075  68.9823294  59.1641855  13.2255983  68.9804697  59.2852640
  14.3550456  68.1828642  58.6695051  10.4490638  29.6224928  57.9932785
   9.5353866  29.6333790  58.2784176  10.9536409  29.6978498  58.8031864
  30.0019899   1.6584012  65.5899668  30.2840758   1.0381505  64.9176979
  30.0291218   2.5110146  65.1557398  49.6995590  11.4356275  15.8583363
  48.8340948  11.1432501  16.1442001  49.5211492  12.1509119  15.2477940
  57.2774533  33.4940243  65.0157976  58.1221178  33.4755445  64.5658731
  57.5000933  33.4437299  65.9453869  19.1678882  64.7359848  58.6390591
  18.8089216  65.6068563  58.8092327  19.4785357  64.4339895  59.4925976
  15.6211150  36.8144011  51.3766003  16.3795209  37.2184229  51.7982864
  15.8269024  35.8797646  51.3582993  80.1678225  60.6699610  52.1044970
  81.1168090  60.5482721  52.0753574  79.8548117  60.3118658  51.2738180
  19.2793143  50.1314592  53.8779497  18.9398515  50.0832748  54.7716379
  19.8422706  49.3619013  53.7937593  76.2330912  35.8959766  17.1966560
  75.4589961  35.9119840  16.6338452  75.9965525  35.3062864  17.9125794
  75.8553169   2.7139517   7.0085867  76.4758549   2.4546619   7.6897152
  75.9345065   3.6667581   6.9625624  20.7601445  57.0576619  22.8170212
  20.6919884  57.1847438  21.8707474  21.2089019  57.8421544  23.1323345
  58.4656422  67.3404192  19.6644123  58.4317987  66.5134691  20.1452835
  59.0403455  67.1613621  18.9201744  27.2823405  62.0590591  39.8265243
  26.9588518  62.6693821  40.4891682  26.4925885  61.6541910  39.4679046
  18.2474589  37.1864653  52.6966906  18.4603143  36.4899445  53.3178043
  18.2298064  37.9831314  53.2270145   2.2070402  70.1198530  58.7346506
   2.4315655  69.3736601  58.1787539   2.6906812  70.8542776  58.3565712
  52.0078651  56.3449617  23.1138619  51.5460990  55.9521909  22.3730953
  52.7975492  55.8131834  23.2130535  36.2871242  14.9064660  53.1604719
  35.8298850  14.2550600  52.6286507  35.9990501  15.7484555  52.8079128
  22.9273391  24.1059041  60.8258295  23.5364795  24.1587710  61.5622950
  23.2970238  24.6932530  60.1665974  67.8947523  39.0067840  41.5417433
  68.5717133  38.9654303  40.8662844  67.4189237  38.1807899  41.4548445
  18.1905591  41.6919470  62.4094105  18.4617639  41.1092806  63.1187630
  17.2389841  41.7483282  62.4963379  23.6793423  49.2429781  64.1940975
  24.2006850  48.6820841  63.6197901  22.7859426  48.9106274  64.1068792
  32.9608893  62.7138519  71.9167995  33.1175756  63.2955503  71.1729527
  32.6166916  63.2876873  72.6012516  60.1871671   9.8140569  37.2454365
  59.4926864  10.0535341  37.8590973  60.9406638  10.3362127  37.5208100
  31.5764594  55.1105690  68.7449121  32.2339439  55.8001804  68.6533451
  30.7384920  55.5708742  68.6984015  67.3846653  60.4417658  70.5608463
  67.0923475  59.8590279  71.2616968  68.3363620  60.4745722  70.6579494
  33.9861059  79.6038246  70.2186680  33.2870007  80.2504635  70.3153276
  33.5376191  78.7589741  70.2550125  57.2752636  24.2185590  47.3033047
  56.3479369  24.0658185  47.1217346  57.5815885  23.3987901  47.6910782
  14.8147648  70.7143997   9.9537666  14.0307348  70.5644416  10.4820164
  14.4838887  70.8405184   9.0644749   9.4229966  42.6645756  54.4346905
   9.9480993  43.2477903  53.8866425   8.5343707  42.7461386  54.0883875
   3.7991717  73.3189774  42.3887587   4.5130730  73.6717176  42.9199409
   3.1265962  73.0735350  43.0240822  77.0497599  62.3298693  58.9876413
  76.6921941  61.6770697  59.5895004  77.5393942  62.9307127  59.5493078
   3.6076719  57.6002979  37.6757789   2.9040641  58.2491779  37.6867437
   3.5512722  57.1713972  38.5296488  71.9302450  57.3468538   4.4656571
  72.6514385  57.7638193   4.9370964  71.1982094  57.3662134   5.0820835
  78.2776420   7.1154973  50.9597445  78.7640446   6.6097352  50.3087139
  78.5084885   8.0262563  50.7768250  20.2583765   6.3622186  60.9109259
  19.9416130   7.2644135  60.8669472  19.6680181   5.9309480  61.5287542
  52.1420353   1.8495557  63.8671160  52.6283067   1.6409776  63.0694532
  51.5119021   2.5170705  63.5958481  50.7588903  46.8883367  21.8421658
  50.0123571  47.2592016  22.3126705  51.5216015  47.3264738  22.2197064
  87.3972291  64.8854733  41.0575867  88.1551492  64.3522739  40.8178234
  87.6073047  65.7606173  40.7316589  44.5083337  29.8581311   1.7108354
  44.7390907  29.5792672   2.5969604  45.2962726  30.2919576   1.3834482
   4.2986664  71.6143894  63.8718319   4.1071999  70.6768417  63.8479471
   3.5501689  72.0001888  64.3269634  19.2169292  18.6188980   1.8255671
  18.6611135  18.8723989   1.0886582  19.7353656  17.8859611   1.4935072
  59.1898489  61.2398767  45.4850483  59.0551805  62.1873713  45.5037928
  59.7482204  61.0622978  46.2419605  13.5118675  81.8680668  48.7738991
  12.7769947  82.4626350  48.9244938  14.1288912  82.3780346  48.2490683
  77.1464535  26.3847253  42.9724121  77.2478434  26.6251466  42.0514584
  77.0064303  25.4379174  42.9587650  15.6214786  47.3482609  68.9592695
  15.3819442  48.1892061  69.3487120  14.9921298  47.2254944  68.2485771
  27.3464942  70.3263283  45.5173540  26.6419816  70.9360838  45.7366562
  27.0119214  69.4690514  45.7807350  18.3276033  65.3076172  68.4028673
  18.7747979  65.5608463  69.2104101  18.0778658  64.3943596  68.5436440
  42.4508047  52.0845842  36.5182066  42.9726887  52.8323364  36.8093038
  42.8412580  51.3323116  36.9630218  88.0114899  40.1359506  11.1205776
  87.2083889  40.2746053  10.6185444  88.6954628  40.0430055  10.4574211
  31.7032156  20.9585854  35.0838661  31.2740415  21.7485330  34.7552061
  31.4404904  20.2710244  34.4719219  85.9113012  13.7622400   3.9983090
  85.7203661  12.8958221   3.6390122  86.7608248  13.6615558   4.4277342
  76.9929682  54.3127962   0.2187403  77.7575396  53.7800928   0.4375704
  76.7902408  54.7841402   1.0268076  28.4426999  68.0832767  48.0648565
  27.8639174  67.6891708  47.4122286  28.7411594  67.3456478  48.5968876
  46.4830332   4.6790788  41.2892818  46.8788987   5.1658532  40.5663967
  45.8769029   5.3003404  41.6928482  49.4312475  24.8298116   4.4991310
  50.3750346  24.8828073   4.3485029  49.0526478  24.7562023   3.6230715
  73.6022917  81.4344025  71.7681408  72.8814533  82.0422077  71.6032267
  74.1860429  81.5459251  71.0177898   6.7730458  11.2535663  14.7126110
   6.1461313  10.9737392  15.3796204   6.4264901  10.8982940  13.8941296
  85.1524168  68.7575769  60.7793140  85.5140951  68.6980391  61.6635513
  84.3778470  69.3119001  60.8741856  33.8913124   3.2758233  37.3673177
  34.5771079   3.0005071  36.7589426  34.3652799   3.6640069  38.1027770
  14.9235499  56.8587351  40.5697107  14.9746561  56.5648794  39.6601677
  15.8237958  57.0911217  40.7972765  61.9190042  22.1483609  63.7285709
  61.4517229  22.4598405  62.9534149  62.4480169  21.4164254  63.4113216
  10.0277128  34.4430539  66.2546253   9.6853437  33.8578412  65.5789471
  10.6090250  33.8909337  66.7775726  19.8656189  76.9705725  46.3353777
  19.3645728  76.3960457  46.9142580  19.2293429  77.6175356  46.0307121
   7.1961505  23.2188411  10.2282723   6.4284189  23.6523433  10.6009682
   6.8799527  22.8318926   9.4118603  27.3042607  61.7419767  61.6479158
  27.5189781  62.1778584  60.8232117  26.3474536  61.7212534  61.6658449
  72.7870618  44.5094248   5.8872946  73.0441843  45.0712438   5.1562222
  71.8330227  44.5800920   5.9196623   2.0002260  13.2493875  47.6754284
   2.6908817  13.5104749  47.0662832   2.4641409  13.0279633  48.4828854
  12.8684807  67.3721933  50.7974768  13.7814748  67.5404167  50.5642891
  12.3846853  67.5050831  49.9822998  40.6182480  80.4587555  64.7876644
  41.2726641  80.9310722  65.3023291  40.8075762  80.6992817  63.8807297
  77.9988919  42.9758306  16.4943607  78.5775445  43.4870287  17.0601090
  77.8193794  42.1787210  16.9929894   9.0505725  20.2507234  56.9941568
   9.3808907  21.0581017  56.6001225   9.5810443  19.5577943  56.6008615
  29.2506479   0.3674695  51.9533348  29.4569890  -0.5644897  51.8819284
  29.1759968   0.6663796  51.0470676  66.6624658  17.3679635  49.8513556
  66.0310977  17.3057458  50.5681086  67.5144260  17.2514245  50.2718496
  62.9496459  28.8000961   2.3559673  62.0266913  28.9400717   2.5676115
  63.3616297  28.6058088   3.1978424  24.5035100  61.9944906  61.7111588
  24.5485735  62.9246712  61.9324398  24.0495014  61.5936804  62.4524117
  50.6808632  67.0536159  28.0691250  50.2431529  67.9006003  27.9839142
  51.1596268  67.1135305  28.8958271  54.4780684  70.7794762  41.1869812
  55.3321409  71.0487080  41.5250635  54.0061522  71.6004515  41.0472441
  40.2194309  68.4304762  56.9024467  40.7450390  69.2148399  56.7451525
  39.6204138  68.3900881  56.1569405  24.1968846  59.8126936  46.2054491
  24.0435266  60.7276440  45.9697008  24.0186620  59.3250465  45.4012918
  55.9249728  24.9467656  69.0892839  55.4017465  24.2292115  68.7320900
  55.3087752  25.4512116  69.6203804  14.9869401   0.9081741  13.7406548
  15.3041370   1.8099828  13.6920937  14.6986349   0.8041855  14.6474560
  32.1430456  24.4774625  30.4026484  32.5954827  23.6661527  30.6335211
  32.6969033  25.1709363  30.7612038  63.0094855   7.4555299  62.9232407
  63.3848637   7.6912114  63.7716389  62.8271716   6.5185163  62.9939842
  13.2156420  48.4284973  45.1144028  13.0207372  49.3130207  44.8047876
  12.4332833  48.1668472  45.5998755   6.7159827  15.8734222   5.8005961
   6.8193705  14.9386068   5.9785278   6.4319022  15.9134336   4.8874004
  23.8661623  73.3571768  50.2161455  24.1085529  72.4739742  49.9378824
  23.4734845  73.2365894  51.0807276  22.1213102  79.7565985  52.3764801
  22.8138661  80.4149628  52.3202944  21.9999266  79.6161985  53.3155155
  66.7825226  58.1642576  13.3030232  67.0144974  58.5942503  14.1261490
  67.2000287  58.6987921  12.6276024  76.3365446   9.6117159  19.6586712
  75.9187971   9.6103903  18.7974365  75.6157361   9.7446247  20.2742966
  39.1870575   1.5931699  67.7401543  38.8871818   1.7183873  68.6405039
  38.9802503   0.6794545  67.5437164   5.4200800  27.1790310  10.4065998
   5.6249220  26.6497226   9.6358116   5.3592808  26.5463682  11.1223324
  21.3027120  56.8586969  57.2496319  21.7580914  57.5616598  56.7862654
  21.9084144  56.1182594  57.2163677  67.2529368  12.1460434  32.9934128
  66.3325672  11.9306560  33.1442745  67.2375081  12.7651878  32.2635754
  11.3635051  68.7378263  59.2013884  10.6151223  68.7158728  58.6050081
  11.0323274  69.1761255  59.9852562  64.0496962  19.1673084  18.7809189
  63.4658430  19.4217821  19.4954785  63.8907997  19.8190733  18.0981453
  44.0518968  15.7070920  41.2629843  44.3987410  15.1075074  40.6023598
  44.3596011  16.5706918  40.9877634  78.1995509  11.8766399  29.3721016
  78.2449280  11.8745466  28.4159763  77.6506375  11.1226221  29.5874794
  81.8543349  78.3489843  21.0386379  82.7582465  78.6238142  21.1923893
  81.7938910  77.4852701  21.4467819  12.5801277  74.5605230  61.8592834
  11.9883430  74.9384546  62.5098133  12.3494053  73.6318254  61.8365097
  15.2168953  52.4342823  44.4769192  14.8898017  52.6441383  45.3516769
  16.1691284  52.4883175  44.5579338   4.1274507  74.1770883  11.1256321
   3.8006122  73.3284612  11.4243611   3.3733947  74.7624632  11.1960991
  66.1645810   0.2882095  34.2949017  66.3053338  -0.6455902  34.4512375
  65.2454118   0.4327818  34.5195397  42.3229294  18.2144639  55.5171824
  42.9637759  17.5195214  55.6674862  42.7556091  18.8112924  54.9065924
  15.5529904  41.7371750  40.9059620  15.3432918  40.8773804  41.2706661
  16.1516440  42.1278334  41.5425396  70.8107916  73.4214497  66.1109829
  71.2130025  72.6443958  66.4991093  71.3711587  73.6337042  65.3645468
  40.0561195  35.4698750  67.8361225  40.0789123  34.5191380  67.7274561
  40.6090122  35.8049485  67.1302414  62.9763351   6.9766994  20.4097469
  63.5003410   6.1955305  20.5870064  63.5945563   7.7030702  20.4898842
  30.5605412  57.9824257  34.4298482  30.4491568  58.3927774  35.2874255
  30.4394507  57.0472622  34.5942616  67.6851748  78.8143011   0.4933270
  68.4558938  78.7460657   1.0568579  67.3745309  77.9134985   0.4022749
  19.5778520  78.4190031   1.9866474  20.3016861  78.3937402   1.3608225
  19.6832330  79.2548128   2.4411257  36.8673611  69.4296217  67.9910088
  36.7396712  69.7659969  68.8780165  36.3465214  70.0110865  67.4370623
  76.2650874  56.1418390  45.6119299  76.7769960  56.7838812  45.1200247
  76.9200388  55.5817604  46.0285568  56.3568418   5.2405641  71.3826990
  56.7368715   5.7777783  72.0778322  56.7501920   5.5772683  70.5776310
  84.1138086  73.5438251  48.4920883  84.5110771  74.1057825  47.8267956
  84.7978529  73.4342909  49.1526318   3.6511452  17.6389309  27.9956158
   4.5093663  17.9970642  27.7688416   3.7248213  17.4086757  28.9217861
  59.7724986  38.5535188   1.6017540  59.2478010  39.2511316   1.2089832
  59.2000490  38.1676288   2.2647913  54.2054694   4.5854089  43.7386322
  54.0655082   4.0924546  44.5471096  53.8010710   4.0481183  43.0574465
  28.6800337  67.2008467  61.2400723  29.4004416  67.3125076  60.6197739
  28.5694957  68.0649090  61.6368341  20.9339070  62.5217152  38.4106159
  21.4518499  63.2965374  38.1924081  20.0540280  62.8605032  38.5757518
  59.6371126  71.2594128  65.9439087  60.1906490  70.9741068  65.2169800
  59.7842598  72.2035265  66.0007906  14.6895480  73.2305956  48.0534029
  15.2043867  74.0375042  48.0615139  15.0201821  72.7280283  48.7979412
   6.5319973  38.9621449  56.2108898   7.0586151  39.7345018  56.4167261
   7.1462250  38.2304788  56.2710571  43.3163643  74.2949343  70.9780836
  43.1832838  74.9808264  71.6323519  42.7745199  74.5633602  70.2360678
  13.8687658  45.1554918  70.3440523  14.0757549  45.8715534  69.7435188
  13.4191215  45.5786943  71.0754538   8.1049335  79.8471785  33.1908798
   7.2163898  80.1223183  33.4167552   8.5839814  80.6659508  33.0630064
   8.3699644  37.9234338  39.1057634   8.4776968  37.2290778  38.4557676
   9.2313969  38.3373451  39.1590929  79.5338222  81.1229992  51.0803843
  79.7356197  81.4611912  50.2079535  80.3305516  80.6663513  51.3504362
  86.8158017  73.5421415   3.3733328  86.3232146  74.1896959   3.8775833
  87.2253738  74.0468450   2.6706513   0.9440191  58.8501974  28.5151489
   0.9048612  59.6769567  28.9959438   0.5449684  58.2108351  29.1052445
  18.1873357  78.5031939  35.5417681  17.2550273  78.6771774  35.6712389
  18.6300564  79.2213678  35.9939361  21.2904154  22.9923627  55.0968218
  21.8567084  23.7096497  55.3815174  21.5933632  22.7843759  54.2129707
  67.0857661  11.6543290  66.3367128  66.8314355  11.1820790  67.1295071
  67.9751842  11.3520905  66.1528206  65.4575436   6.2420651  59.3935823
  65.5271285   5.5808637  58.7049580  64.5596640   6.1596486  59.7149086
  70.6484888  39.1252752   1.1444433  70.6681333  39.7780843   1.8442114
  71.1845170  38.4041734   1.4744814  30.0226495  75.1912044   7.5703438
  30.5379605  75.4404210   8.3375366  29.5462716  75.9868072   7.3330410
  23.6323398   3.4762380  53.7674999  24.2524462   2.7849099  53.5356188
  22.7926855   3.1694982  53.4252691  52.0806001  33.1703945   2.9925068
  52.6899277  33.7594600   2.5475844  52.1883498  32.3313852   2.5445278
   6.7232864  10.2545926  32.0766163   7.2041910  11.0813329  32.0383692
   7.1184175   9.7157380  31.3912487  32.7294459  11.5104482  26.8467212
  32.3349374  11.1556336  26.0500383  32.5600853  10.8457753  27.5143766
  87.4409042  51.1781355   8.3030804  88.1025587  50.7454153   8.8427075
  87.7374469  51.0396524   7.4035748  50.4805177   3.5385987  47.7942514
  49.7014802   3.5520360  47.2382402  50.3575414   4.2722604  48.3966208
  16.0715216  79.9342655  17.7058228  15.3642242  79.7179889  17.0982178
  15.6240731  80.2149056  18.5041149  19.0116262  41.8041086  54.7608280
  18.7504685  42.4159765  55.4490471  19.7277403  42.2470665  54.3056345
   7.4687893  27.5252243   6.7476328   8.2215912  28.0828281   6.5511616
   6.7080743  28.0770870   6.5659960  10.5414944   1.4486310  52.7039051
   9.5916956   1.5281102  52.6155949  10.7641833   2.0316789  53.4296465
  42.9999113  79.1972113  58.0280304  42.5700235  78.3422565  58.0061913
  43.8385582  79.0548897  57.5891161  71.3238869  78.6495825   8.8595970
  70.5321060  78.3205457   9.2850979  71.1973284  78.4510751   7.9317959
  84.7480498  42.2819563  33.0550964  83.9506922  42.1216150  33.5598190
  84.5647894  41.9089266  32.1928414  64.9164694   2.9122827  27.8759456
  64.8421948   2.7268311  26.9398260  65.7412308   2.5023457  28.1366277
  77.2842549  41.2045332   8.8173206  77.7664314  41.4357515   8.0234202
  77.9542421  41.1575647   9.4993313  59.2783873  10.6243512  47.1897602
  58.5593765  10.7910535  47.7992439  59.9717753  10.2508447  47.7337599
  56.7816561   2.2936437  32.8522396  56.6265004   1.6487309  33.5423446
  56.4029401   1.8994328  32.0664883  24.2775226  51.6704369  43.8742590
  23.7347865  50.8959961  43.7262154  24.4846487  51.9892406  42.9957962
  24.3403745  73.0101585  56.5190029  24.5251131  72.0744562  56.6000175
  25.1797247  73.4359837  56.6933489  85.2106731  29.1905591  49.9044275
  85.3645437  29.5009038  50.7967520  85.1961630  29.9866292  49.3731260
  83.8177878  45.5623674  52.4844742  83.8271821  46.5112782  52.3590994
  83.2309362  45.2364206  51.8021297  18.2400787  44.4431543  37.0881915
  17.3793471  44.5161295  36.6758227  18.0563259  44.4425201  38.0275869
  75.2250431   6.4524885  26.8316277  74.6721552   5.7576080  27.1889599
  76.0009037   6.4533754  27.3922356  37.5841427  81.9259167  53.7696409
  37.9715538  82.1849155  54.6057415  38.3345819  81.7620468  53.1984854
  62.3147173  38.0764719   1.0162838  61.5051876  38.5640665   1.1684235
  62.4119179  37.5253530   1.7928465  27.4287926   3.2076451  55.6576204
  28.1104637   3.3198258  56.3201714  27.5085279   3.9806077  55.0986910
  10.9146585  15.2971646  66.8412018  11.7270937  15.3862187  66.3429594
  10.6696119  16.1956498  67.0623589  62.8295554  50.1878019  21.3727101
  63.1481479  50.7154222  22.1050652  62.4295322  50.8214708  20.7771595
   9.4023449  50.4251714   6.9214590  10.1521285  50.8618685   7.3256262
   9.6664674  49.5074793   6.8557938  67.8538888   4.1382977  59.2540073
  68.3493178   4.2399880  60.0666857  67.9847424   3.2229135  59.0066671
  86.5920411  46.7653890  22.2302445  86.6829096  47.5683065  22.7433594
  87.4686228  46.6035505  21.8814667  20.1041245  67.5909328  28.0038643
  20.3643513  67.2412920  27.1516514  20.4213500  66.9448090  28.6348343
  46.9397354  80.2819157  58.6313581  47.8678417  80.2291393  58.8595343
  46.9043016  80.9193420  57.9181576  54.0946023  37.1692653   5.8407934
  53.4494345  36.8494316   5.2101620  54.6533330  36.4122196   6.0166700
   2.4248304  81.4800094  12.4139221   2.2612085  82.0573710  11.6681965
   3.2019701  80.9802340  12.1639069  24.7692191  75.4694651  15.1111038
  25.2050530  75.5114602  15.9622868  23.8985389  75.1221012  15.3047093
  21.8355584  73.4558344  55.2029514  22.7193618  73.2089186  55.4752684
  21.4424229  73.8409138  55.9861422  23.2787871  46.3587141  52.8659296
  23.2964826  45.6222200  53.4770727  23.4427929  45.9634590  52.0097160
  76.1750506  34.6534343  19.8079212  76.3129626  33.7646099  20.1353367
  77.0525549  35.0340744  19.7714050  22.3944664  81.1633682  31.1717176
  23.0129409  80.6489849  30.6529379  22.9273868  81.5479565  31.8676472
  82.9679576  81.1400223  57.2004604  82.2758755  81.2701225  57.8487873
  82.6789871  80.3834915  56.6901827  39.7575665  56.7108107  42.3209763
  39.0390491  56.1607456  42.0089006  40.2284575  56.9631147  41.5267229
  37.6079273  71.3815451  44.8917198  38.2485771  70.7269001  45.1696348
  37.9649568  71.7353106  44.0770912  62.5248473   0.5065438  65.6399584
  61.9461768   0.9304425  65.0061750  62.0087998   0.4649732  66.4450645
  52.6964896  81.7052172  25.0903137  52.6113813  82.1314763  25.9431275
  53.6264270  81.7808675  24.8764809  32.2881590  73.9265295   2.5129278
  31.7662225  74.3973394   1.8631991  31.8721996  74.1334005   3.3498343
  82.5561677  52.6172777   6.8877133  81.9287978  53.1136366   6.3621004
  82.7771936  51.8602701   6.3452013  10.7206686  54.3333956  22.5059231
   9.9029715  53.9816709  22.1539410  10.4743226  55.1758905  22.8876885
  12.6313269  48.1104994  39.9890900  12.4508858  48.9544153  39.5749950
  13.5081649  47.8768444  39.6844697  29.9817967  77.5773096  64.6876431
  29.5548034  77.5405884  63.8317442  29.7944784  76.7270708  65.0854301
  27.0511396  56.9715067  16.1675556  26.1394556  56.7629953  15.9636505
  27.4062116  57.3187299  15.3492745  20.6907327  14.5235201  12.2280319
  21.4430673  15.0759836  12.4401863  20.6353529  13.9044185  12.9559525
  51.8598413  69.1377211  63.7919998  52.4647760  69.6638632  64.3149376
  51.3849354  68.6099386  64.4339800  38.4914582   4.6621987  67.0053530
  38.4444266   3.7234494  67.1863699  39.3288886   4.7778890  66.5564013
   8.4252961  80.0245043   7.9558762   9.3427475  80.1897093   7.7385576
   8.1635125  80.7809778   8.4807118  55.9092300  19.6764085  63.3663082
  55.4772156  19.7410676  64.2180252  55.2023094  19.7856900  62.7302647
  27.8771091  69.6682072  26.8853688  28.8226485  69.7921753  26.8027854
  27.7260065  68.7717485  26.5857649  41.3741636  73.1501293  41.8634081
  41.3098383  73.5852289  41.0132408  42.3100948  72.9853439  41.9779253
  56.9437354   3.8868520  52.9774427  56.5055745   3.7111566  52.1447468
  56.2311714   4.0773198  53.5875273  18.1053598  37.8876682  27.1387585
  18.8890178  38.4195181  27.0000370  18.3534725  37.2705694  27.8271397
  10.9440429  48.4466120   4.8930939  10.5427749  47.7246423   5.3768023
  10.5807073  48.3747526   4.0104492  27.9318881  76.2290668  54.2049408
  27.2398186  76.2817097  53.5457754  28.7284446  76.4783382  53.7363291
  17.4123056  38.6155077  18.7309273  16.4919670  38.3525797  18.7222584
  17.8840215  37.8468605  18.4101494  73.1532305   4.7480866  43.5090637
  73.8176649   4.8043916  44.1957903  73.3146494   5.5127332  42.9563475
  21.6256309  60.8647299  68.7917185  21.1140299  60.0598097  68.7104654
  21.9269133  60.8663511  69.7002649   9.4977274  10.7441136  54.7279835
   9.2310228  10.3199384  55.5435610  10.2135935  11.3258836  54.9835539
  31.8492293  75.9129047  19.7096777  31.5622044  76.7093420  20.1563787
  31.0376787  75.4529715  19.4950211  59.7098414  30.6430765  15.4583462
  59.6518554  29.8814769  14.8814209  59.6274712  31.3948484  14.8715885
  68.9896267   6.0291383  69.6553516  69.5512789   6.7960736  69.5431995
  69.2763465   5.6411263  70.4820776  67.7049582  11.2119863  29.7102308
  67.5098603  12.0620248  30.1047087  68.3525818  10.8192918  30.2955532
  50.4493182   6.3285920  34.1742539  50.7885449   6.8463036  33.4440899
  51.0934704   5.6305215  34.2925525  37.3173816  62.0959039   8.7169464
  37.7917774  61.8337675   9.5059116  37.0448501  62.9970880   8.8896473
   0.5742867  38.2489916   7.2024019  -0.3197710  38.2934137   7.5413998
   0.7129295  39.0969988   6.7806347  40.0413828  20.9334943  49.9449921
  39.8063081  20.7621476  49.0330601  40.7692640  21.5528867  49.8923826
  17.9822683  72.0844316  69.7999716  17.4162257  71.9605350  70.5618620
  18.7203383  72.5964117  70.1306677  19.4526012  46.2897154   7.1358545
  18.8205774  46.0773321   6.4490708  19.2143209  47.1735616   7.4156292
  15.7569718  66.0636854  51.5752506  15.2881789  66.3940954  52.3415995
  15.5387318  66.6805601  50.8766270  36.3617729   6.0922429  59.0572166
  36.6876858   6.8784329  58.6191368  35.9225374   5.5973241  58.3655834
  72.4509946  67.9645109  29.7919607  73.2798484  68.2089043  29.3802524
  71.8117479  67.9953289  29.0801716  64.7989259  21.0614534   5.4793318
  65.3404943  21.7210623   5.0459107  65.2131860  20.9346147   6.3328751
  77.0629082  53.6717268   5.0327452  76.9205032  54.1931196   4.2427500
  76.5702616  52.8654428   4.8796137  54.1692257  76.0612297  45.1556063
  53.6718750  75.6194401  44.4673491  54.8405409  75.4280996  45.4100037
  83.3367239  29.9406095  14.9831589  83.0760108  30.6634851  14.4124516
  83.6890064  30.3672024  15.7642754   3.3456118  69.8455282  10.5282887
   3.2058747  69.1513201   9.8842629   2.7224023  69.6516557  11.2284763
  18.8112457  43.6050363   2.2701128  19.0005548  43.3608099   1.3641651
  17.8568418  43.5686727   2.3335465  46.1984396  78.8212967  52.0381021
  47.0618010  79.2323685  51.9949579  46.0905123  78.4007168  51.1850548
   5.2544368   4.9844496  23.3820351   5.5217344   5.5582373  22.6640137
   4.3447042   5.2261584  23.5558136  27.5692753  12.4390122  64.5745087
  27.0207164  11.9788167  65.2097511  28.3529115  12.6830003  65.0670624
  27.7774453  51.3752747  52.6653099  28.1677318  52.1180630  53.1259298
  26.8352795  51.4788961  52.7987957  57.8266018  29.1189382  55.2399778
  57.2406309  29.5038316  54.5882654  58.4394615  29.8218247  55.4558325
  55.4093163  10.4486176  50.9280205  55.7374375   9.7423551  51.4845800
  54.5798939  10.7054040  51.3309479  78.8494270   4.4905278  44.1243458
  79.6296375   3.9561459  43.9762354  78.4602802   4.5921323  43.2557440
  76.5687977  35.7033630   9.3208988  77.1798049  36.0571476   9.9672325
  76.2949346  36.4641710   8.8086422  26.8272567  53.6500263  56.9949150
  27.1602345  54.5471239  56.9709969  27.3985004  53.1665277  56.3981390
  40.3409243  58.9686441  44.3696880  41.0542345  59.6051836  44.3224192
  40.4785395  58.3981133  43.6135197  68.4991346   1.4495989  50.4107006
  67.7610169   1.5759941  49.8145111  68.9888011   0.7184644  50.0339993
  28.6942663  16.6515157  50.6102848  27.9702654  17.2475430  50.8021021
  28.3518305  15.7829568  50.8213997  79.3744057   3.4681222  69.6512413
  78.7073105   2.8651425  69.9793243  78.9676826   4.3323514  69.7138119
  30.7748113  11.6424653  69.5591354  30.4996131  12.4481580  69.1216803
  31.4250713  11.2600991  68.9699078  65.8806413  24.0812203  65.9877062
  64.9590819  23.9319703  65.7763195  66.1151045  23.3536527  66.5638113
   8.7162447  29.6788383  34.8552227   9.4324368  29.8787093  34.2524362
   8.4448791  28.7918210  34.6190238   2.1750760  21.2503934  53.6944389
   2.1745284  20.2937460  53.6619568   1.6241844  21.5153694  52.9578686
  66.1984590  30.9186244  51.4410162  65.6954864  31.0447383  50.6364346
  65.5410746  30.7066488  52.1036911  44.0706835  68.7500361  69.9225664
  44.6862254  69.3796745  70.2979279  44.5357249  67.9139033  69.9517345
  49.3416528  80.5921543  34.2368865  49.5909754  80.9303760  33.3768415
  50.1303385  80.6897004  34.7704530  49.1910839  28.6324215  67.7342701
  49.0973663  28.4278607  68.6646509  49.1946459  29.5889473  67.6985216
   0.1593310  23.2991457  70.8810520  -0.6524528  23.8005924  70.8049631
   0.5233618  23.5596514  71.7271328  20.1182734  52.1296083  10.7291515
  20.2333420  52.5148629   9.8604878  20.4628848  52.7891361  11.3312252
  87.4856047  23.4868646  66.7866373  87.5417039  22.7490568  67.3938656
  88.3761565  23.8359761  66.7509937   6.1741006  24.9382734  45.5880976
   6.0976344  24.0659451  45.9746599   6.6939300  25.4353929  46.2196684
  29.9399066  26.6059375  57.3929501  29.2995143  27.2769618  57.6292896
  30.7239246  27.0982122  57.1496153  39.2257511  37.5673493  26.9913490
  39.4976204  37.4866920  27.9055794  39.3423312  36.6893153  26.6284474
  78.1637922  38.9780617  27.2817278  77.9419282  38.9287210  26.3519049
  77.9311672  38.1171417  27.6294827  40.1640700  20.9458776  10.8934982
  39.9909435  20.3962417  10.1291950  39.9670575  21.8349834  10.5986984
  10.5457991  82.4862956   3.9614161  10.1547664  82.0333289   3.2143267
  11.0493033  81.8101119   4.4147261  12.4718940  37.0111227  55.2884960
  12.5368547  37.6960826  54.6230316  11.6769123  36.5295601  55.0597334
  16.6717625  34.5317101  66.6198874  17.4538469  34.5707631  66.0693884
  16.2774062  35.4000187  66.5376902  64.6268657  24.2506242  55.6508827
  64.7758153  24.4063997  54.7182655  65.4599860  23.9057827  55.9721708
  43.4145664  14.8031088  12.1519383  43.3190904  14.2728229  11.3607987
  44.2645548  15.2317472  12.0518406  82.5453958  42.6052380  29.9126768
  82.7058420  43.4895229  30.2421117  82.5637952  42.6975060  28.9601135
  52.3250488  69.3859020  46.7672157  52.2432117  70.0459221  47.4556255
  51.7043112  69.6640232  46.0937405  88.1545673  16.2797733   3.2247122
  87.6289593  16.0873552   2.4482210  88.5985909  15.4554601   3.4236725
  73.4766141  23.8566470  31.7699099  73.4543815  23.8671708  30.8130264
  72.5898627  23.6043763  32.0273304  54.0692966   0.6845709   7.5792606
  53.3475856   0.2657648   8.0482681  54.6467353   1.0101696   8.2697495
   3.6804214  70.2453518  71.5994263   3.7639719  70.0754166  72.5377083
   4.5384476  70.0225639  71.2383318  54.4107286  82.5571229  65.7151937
  54.4019080  83.3538906  66.2455845  55.1727287  82.6576028  65.1446724
  67.6576737  18.7248063  40.5238199  67.1348599  19.0648270  39.7976780
  67.6730040  17.7778375  40.3850842  60.6161955  18.9346659  61.0328150
  59.7819284  19.2239070  61.4023733  60.3793839  18.2311881  60.4284430
  63.8255964  78.9571077  62.1374846  64.3685720  79.7399858  62.2297382
  63.7759803  78.5944527  63.0219316  18.9798599  71.2865995  17.0751675
  19.8512452  71.6091894  17.3050697  19.0964656  70.8691739  16.2217148
   7.1498716  15.3623426  51.1797333   7.4089032  16.2078273  50.8132792
   7.8051931  15.1826072  51.8538857   0.4728134  56.3764238  20.7405710
   1.3422707  56.6288519  21.0513067   0.3570708  56.8678951  19.9273741
  57.8138876   6.5873396  64.6770668  57.3882389   7.3902512  64.3764210
  58.5235548   6.4436013  64.0510130  46.1234479  70.8533691   0.4053934
  46.4318877  71.0603045   1.2875898  45.4640966  70.1718591   0.5359085
  71.6973826  69.1444753   0.3034599  70.8006044  69.4092344   0.5082234
  71.7368265  69.1517924  -0.6528990  62.9556721  59.5210217   7.7614792
  62.3771685  59.5438288   6.9992169  63.2753508  60.4192470   7.8465040
  60.4005125  30.2721477  69.3581581  61.1003259  29.8563123  69.8617172
  59.7631005  29.5732546  69.2115736  82.4416807  10.2866018  50.2298784
  81.7368957  10.9313798  50.2912903  82.2608867   9.8106217  49.4193268
  17.5030184  49.8167467  55.9589720  16.9583464  50.4951143  56.3581991
  16.8886638  49.1181946  55.7335186   6.6037107  10.9964347  56.7594910
   6.9134051  11.8159866  57.1450520   6.6525620  11.1426723  55.8147907
  15.5429840   7.6601911  54.5613241  16.0281301   6.9307953  54.9471283
  14.6591926   7.3169851  54.4295835  12.7696884  18.1964040  59.5137024
  13.3877957  18.7933135  59.0919542  12.2961831  18.7446856  60.1393318
   4.7579545  70.0729799  36.5161180   3.8641602  69.7390509  36.5926266
   4.7049460  70.7459259  35.8374691  64.1713908  31.7625976  67.0645714
  63.7491253  32.1632838  67.8244257  64.1645673  32.4487734  66.3972282
  75.6215964  62.9238537  21.9003725  76.1667857  63.2923618  22.5954986
  74.9659691  63.5992947  21.7266965  79.9361524  31.9780684  35.3209758
  80.7894185  31.7902279  34.9299717  80.1393154  32.4847722  36.1072397
  58.6606529  12.0062220  42.5718927  57.9012540  11.4327824  42.6754045
  58.6835578  12.5212681  43.3783913  16.0336423  17.3971307  52.5755215
  16.8187189  17.7727640  52.9740000  15.3663433  17.4561703  53.2592297
   1.2440555  59.9567961  24.6103008   1.7168348  59.1258668  24.6579464
   0.3490012  59.7100853  24.3774040   3.6909509  14.5371294  32.9690003
   4.1645181  13.8513768  33.4398603   3.7675726  15.3092444  33.5295343
  76.0624161  22.6064229  58.9376116  76.7035213  22.8237605  59.6143532
  76.1090604  21.6534591  58.8606977  22.4111462  30.0542927  61.3145018
  21.5288353  30.2464151  60.9969330  22.3264956  29.2126012  61.7624092
  43.9425044  23.4265076   3.3226402  44.3224566  24.1964697   2.8995236
  44.0407639  23.5952126   4.2597159  11.2251544  43.8929129  64.7883940
  11.4776576  44.2453671  65.6417656  10.2817345  43.7473059  64.8590231
  67.6986197  31.6867447  28.0628347  67.6645830  32.3215270  27.3472071
  68.6325803  31.5224075  28.1930041  71.6193441  16.5778565  38.1530976
  72.3690608  16.3125980  37.6203752  71.0999945  17.1362221  37.5745344
  86.8687706  53.4811544  51.3996983  86.9919828  52.6460028  51.8508911
  86.1177619  53.8815403  51.8377781   4.5545927  33.0577588  46.9083786
   5.2405727  33.5654283  47.3418951   3.7824082  33.1774807  47.4612188
   9.2859638  43.1518316  57.1176195   9.4545698  43.2100868  56.1771870
   9.5525485  42.2634602  57.3541641  71.9860414  61.8155289  57.9546976
  72.9053870  61.5492487  57.9660606  71.4980748  60.9920788  57.9615736
   1.3783051   5.1146638  50.4534578   1.5814260   5.6590825  51.2141037
   1.5897375   5.6666154  49.7005415  84.8324406  13.7916338  57.7217627
  85.4064989  14.0485013  57.0001602  84.2483363  13.1356633  57.3412895
  85.0506002  37.2763801  41.4971733  84.2477694  36.7764401  41.3496780
  85.6690256  36.6373682  41.8513536  11.2291479  70.3756285  46.0132980
  11.1095178  70.3296709  45.0647163  11.5589654  71.2603521  46.1705256
  12.9763138  46.0101986  22.5327587  13.6763334  46.6252470  22.3138618
  12.2936177  46.5542126  22.9254484  10.5380023  14.0631795  42.8591967
  11.3057721  13.7470806  42.3829126  10.0139809  14.5136571  42.1968508
  63.1716207  19.8857558  25.1618433  63.3118132  19.0393019  25.5862164
  62.5898960  20.3586388  25.7569981   4.0763009   4.5947334  61.3999748
   3.5386631   4.6867624  60.6133938   4.4647741   3.7232172  61.3239479
  74.4229904  31.8783283  42.8313208  74.9590817  31.4457631  42.1666956
  74.7050563  32.7927423  42.8086472  72.8310159  42.4094105  39.6387744
  73.3516339  43.1465530  39.3197012  73.4768131  41.7396021  39.8635745
  13.9163506  34.4157219  57.2861671  13.9436007  34.2681098  58.2315254
  13.2420111  35.0846171  57.1675348   4.2402056  30.0881672  71.5387917
   4.5677102  30.8493304  72.0179605   3.3001667  30.2462292  71.4517546
   9.5835221  18.5643113  40.4487610   9.0029645  18.0736852  39.8669815
   9.3211460  19.4777143  40.3343630   6.3919789  72.8684187  62.6772976
   6.8864793  72.3114634  63.2785463   5.4747450  72.6806355  62.8764200
  38.2257681  71.3557886   8.1173142  39.1803007  71.4271663   8.1154736
  38.0426096  70.5796121   7.5879343   9.6957558  15.5008221  60.1393461
   9.7425073  15.6081080  59.1893244   8.9605153  16.0523105  60.4067659
  17.7821195  63.8621569   9.0599746  17.0469618  63.8914108   9.6722800
  18.5292578  64.1791487   9.5674509  33.9084492   8.9637037   4.0176972
  33.1352173   8.9289184   4.5808418  34.2848955   8.0853887   4.0732201
   5.6932688  38.0188012  31.7254066   6.0106850  38.1192970  32.6228380
   6.4501029  37.6921868  31.2388301  48.1670719  54.4258355   2.5148113
  48.5104614  54.3716823   1.6229685  48.6152356  53.7241374   2.9870422
  79.1127029  29.7188640  68.5695982  78.3421066  29.8726797  68.0230188
  79.2751679  28.7784791  68.4953594  18.5259497  33.5687160  60.9639359
  18.2279301  34.4388628  60.6988764  18.5765910  33.6134386  61.9187498
  14.8129875  64.0040794  59.0598392  14.4786389  64.1850415  59.9382973
  15.0656635  63.0811790  59.0851450  32.7361965  24.5988965  36.5196729
  33.2750058  24.5116138  37.3059916  33.2619190  24.2040014  35.8240366
   3.6466089  59.5516539  43.0774927   4.4627494  59.5851898  42.5784731
   3.9235947  59.3872595  43.9788723  76.7311481  60.7687473  53.0845881
  76.6378895  60.4351521  53.9769125  76.3782516  61.6576862  53.1231070
   0.9110691  11.0379767  22.8574920   0.8687673  11.8595803  23.3467865
   1.7497048  10.6517494  23.1099796  83.1564173  48.0326080  51.9475937
  82.6632390  48.6985350  51.4684820  83.5104394  48.4964418  52.7063799
  23.2953101  82.1879052   2.1450766  23.3561950  82.5271939   3.0380495
  23.4243291  82.9554604   1.5879019   4.8501712  34.6691108  71.4107180
   5.4851139  34.9063611  70.7348537   4.0335310  34.5257521  70.9324121
  63.8507657   4.3352218  20.5306252  64.4114391   4.1183134  19.7857578
  63.0055119   3.9399143  20.3172978   3.5019057  56.9302605   6.7657574
   4.1243165  57.1302317   6.0665806   2.7771728  57.5389456   6.6225870
  76.4618579  64.5116758  46.9058514  77.0212153  63.7980461  47.2125816
  75.9421066  64.7548437  47.6719809   2.2684949  77.0953916   0.9096821
   2.8472298  76.8855761   0.1766880   2.0303648  76.2445782   1.2779816
  51.0299299  82.6643922  70.9913731  50.2658216  82.5816349  70.4208279
  50.9242491  81.9649142  71.6361952   0.3518789  30.6128955  39.9427056
   0.1252417  31.0190034  39.1060781   0.6344147  29.7282410  39.7107768
  48.2507973  65.3874468   2.5195559  48.7559705  64.7313570   2.9997404
  47.3616510  65.0338649   2.4944218  67.2920945  10.9593165  39.5752597
  67.5728276  11.5154171  38.8485050  67.8997639  10.2199090  39.5596695
  22.6754761  29.8619723  71.4622068  23.2923460  29.2041373  71.1413431
  22.0886564  29.3771315  72.0425558  35.2058445  22.4531360   5.4661377
  34.8761688  22.1256252   4.6293076  34.4336162  22.4880739   6.0306509
   2.6150990  23.8766313  44.8252630   2.9246300  23.3341455  44.0999126
   3.2176688  24.6201682  44.8423815  84.3325630  39.6473193  65.6025219
  84.9801445  39.9122500  66.2557316  84.7709295  38.9654183  65.0935221
  11.2390351  43.9371920  20.0129724  11.5012658  44.3984842  19.2163050
  11.2885177  43.0100489  19.7801948   7.0738089  10.8086789  61.1657381
   6.8495750  10.6632006  62.0848608   6.9646651  11.7511332  61.0388470
  80.7158402  10.0717461  67.0627165  81.0788146   9.5006710  67.7397346
  80.4489312   9.4748187  66.3636684  28.7928755  82.5622557   2.4825581
  28.2353669  83.1673049   1.9933422  28.9901528  83.0240201   3.2974728
  70.4607764  33.6119890  43.8612986  71.1424831  33.9218593  43.2650709
  70.8063355  32.7923870  44.2149544  36.7773080  33.9262009  16.8015230
  36.5288115  33.0164981  16.6374505  37.6144075  33.8665223  17.2618890
   3.1647127  58.0766116   2.9279669   3.4026783  57.1693264   2.7370794
   3.0378907  58.4770047   2.0678290  83.6402503  33.2400036  64.9867773
  83.3115250  33.5046244  65.8459330  83.0337933  32.5580907  64.6979237
  14.8911965  58.9992714  33.7751245  14.7971284  58.1667376  34.2380190
  15.7317734  58.9281702  33.3227921  16.1857796  61.3025618  59.4546127
  16.1625862  61.0963583  60.3890514  17.0505607  61.0105705  59.1662979
  17.9302812  74.0427685  58.0758572  18.5556030  74.6237278  57.6426268
  18.1880021  74.0580988  58.9975834   9.1554779  13.6778033  65.3664541
   8.7785447  14.5096362  65.6531763   9.6559125  13.3686745  66.1215925
  47.0079504   7.0625730   3.8124664  47.3958884   7.5791784   3.1061705
  47.6299904   7.1406122   4.5357998  30.8044863  65.7366943  38.3562088
  31.0966063  65.7868719  39.2663646  30.1484895  65.0396395  38.3532906
   7.2863567  54.4036341  65.2245188   7.7593672  54.4707775  66.0539675
   7.4147302  55.2548647  64.8060036   2.4461609  58.8256168  69.0916586
   2.9634553  59.4675446  69.5780420   2.0469078  59.3282318  68.3815813
  66.6045819  26.4645239   6.8469771  66.9451223  26.9697138   7.5852497
  66.8610100  25.5618568   7.0358379  85.4730046  50.1709414  52.1616364
  84.7709438  50.8144283  52.2579050  85.8607282  50.3653383  51.3083410
   9.7205265   6.6350742   3.9832838   9.8754628   6.4272447   4.9047096
  10.1781256   7.4642845   3.8445576  41.9368666  51.4255308   0.6647785
  41.3456397  51.1778199  -0.0460808  42.7951389  51.4998691   0.2475556
   6.8974717  18.1193348  10.7417496   7.0219858  17.2005888  10.5037602
   7.2751505  18.6092706  10.0113018  73.3182481  41.6034937  69.7282267
  73.9357892  40.8794022  69.6254206  73.0436030  41.5558720  70.6439400
  72.2755411  28.5243511  31.7099452  72.9116371  28.5994196  30.9986234
  71.9693008  27.6186872  31.6628194  19.6271586  31.9134140  48.6345005
  19.1197979  31.1252713  48.4404707  18.9834905  32.5349450  48.9745331
   8.5988373  49.5504999  49.3130493   7.6593363  49.7108412  49.4017029
   8.8104522  48.9605808  50.0365496   0.6386791  48.0310678  41.4567852
   0.0915444  47.8188562  42.2129917   1.3120289  47.3507833  41.4498949
  40.9972191  19.0490901  51.6150999  40.1667833  18.6028838  51.7809534
  40.7504034  19.8510087  51.1544037  29.0630555  47.8240108  34.8995113
  29.7325110  48.0830765  35.5327129  28.6788440  47.0289421  35.2689481
  79.3411365  59.3023539  49.7950554  78.5032281  59.0557957  50.1866531
  79.1188154  59.5727968  48.9041758  12.0264161  42.8559494  41.1966610
  12.0679557  41.9568348  41.5223885  12.9370797  43.1507111  41.1903191
  60.0257304  64.1223860  55.7125950  59.5467976  64.8843718  56.0385275
  59.4797328  63.7813425  55.0042105  72.3489919  14.0500963  58.6440325
  72.3897865  13.3068347  59.2458057  71.4881507  13.9775550  58.2318163
  23.3970921  76.0539817   5.5195912  23.2743769  76.9720863   5.7609518
  22.6269369  75.8397387   4.9931009  42.3130982   0.3287789  57.7976274
  42.6805156  -0.4499724  57.3795462  42.9575854   1.0166356  57.6311302
   5.1942863  24.9911355   5.3850468   4.4973268  25.6428765   5.3094443
   5.8414259  25.2555584   4.7311934   7.8653151  50.2350378  67.8066730
   7.2559297  49.7258377  67.2722626   7.3277122  50.9299421  68.1865692
  86.0989046  25.1136899  70.8793879  86.0699323  25.8596516  71.4785004
  85.2166182  24.7441101  70.9142208  12.7132559  37.0095706  71.2586498
  12.7504778  36.1355519  70.8701468  12.1508670  37.5105214  70.6678915
  26.7250453  16.1150928   3.2771023  26.2555109  15.5145498   2.6982124
  27.5407587  15.6591984   3.4844740  69.5664225   4.6944471   1.9280918
  69.4121204   5.4712959   2.4656065  70.5184088   4.6503301   1.8386133
  72.9967318  20.1523496  68.4001510  72.5820742  19.5318128  67.8007988
  72.3193560  20.8057071  68.5748513   4.0277570  54.0683686  20.3669747
   3.1401604  53.7100648  20.3716381   4.5208567  53.4943317  20.9531220
   9.8221368  21.9358587  54.0215731  10.0726271  22.7287650  54.4956923
   9.2970896  22.2521901  53.2863903  60.6969240  40.2072477  61.6296816
  60.6270531  39.4013858  62.1414757  60.4353717  39.9524736  60.7448578
  17.4673259  27.6723647  68.0938101  17.4281836  28.0467534  67.2137356
  17.3935115  28.4266543  68.6784697  11.4588027  19.3800257   3.6413677
  11.9142549  20.0870107   3.1842383  10.9648924  19.8209165   4.3326672
   6.2135655  51.6259003  69.6151400   5.5243182  52.1860123  69.2581511
   5.7866925  51.1418486  70.3220415  51.5103684  74.5828792  29.4316769
  51.8658570  74.6557555  30.3174233  52.1565912  75.0204822  28.8774824
  73.7118450  31.9538450  61.2925720  73.5344544  32.8028774  61.6974306
  72.8747657  31.4911008  61.3299561  13.7530494  57.6647758  37.4070907
  13.4281337  58.1289005  36.6355658  14.5947456  57.3017693  37.1314025
  11.5324938  53.1761837  42.7325583  11.3735163  53.2886124  41.7953730
  10.7899141  53.6079216  43.1549454   5.0007093  40.9411955  67.1976471
   5.5669689  40.6928110  66.4669752   4.9296337  41.8935347  67.1325922
  23.0639911  40.8324003  55.8411646  23.1407857  41.5879965  56.4237452
  23.2537723  40.0788069  56.4000130  49.1677122  45.1296570   8.1149586
  49.2391317  45.3204845   7.1796950  49.8660605  45.6450560   8.5185726
   2.5378811  45.1908493  55.4719543   2.2868028  45.4519892  56.3579559
   3.0788490  45.9134722  55.1535130  26.1839890  39.8631001  20.9417582
  26.4994359  40.7383156  21.1669827  26.0940552  39.4168782  21.7837954
  39.9402237  24.1103721  53.1946993  39.8229623  24.6863270  52.4392128
  40.8687162  23.8783646  53.1771708  76.6106473  12.9284330  -0.1880781
  76.7342137  13.6552282   0.4224404  76.1014210  12.2852655   0.3051289
  18.8503253  52.9550457  51.0701895  19.7019494  53.3707237  51.2050152
  18.2492781  53.6842918  50.9179497  51.3184255  68.4238409  12.0045097
  50.3664225  68.3694767  12.0879658  51.5458029  69.2655801  12.3994835
  13.6547577  38.9448571  57.1447182  13.3306265  38.2299352  56.5969467
  12.9506242  39.1029668  57.7735519  24.8405337  52.6819264  17.9620274
  25.5239879  53.1893777  18.3997639  24.0583091  52.8237699  18.4951599
  10.2082539  23.6191010  59.5857763   9.7380942  23.4779811  58.7640285
  11.0182106  23.1185961  59.4873047  20.1123476  73.2319021  63.6342907
  20.5917096  72.4484158  63.3648634  20.4114842  73.9142132  63.0332899
   7.0023161  44.3800402  56.4533520   7.6925880  44.3467379  57.1156549
   6.7854506  45.3094578  56.3799524  36.5078068  77.1902323  54.4586802
  36.7935896  77.7467299  53.7341976  36.4422250  76.3149166  54.0769005
   9.8814231  48.4641314  57.4117088   9.2717272  49.0125465  57.9054165
  10.6582558  48.4087420  57.9682112  83.5054551   8.3851000   1.6889341
  84.1247044   7.9630228   1.0934408  82.6576768   8.2998081   1.2527855
  25.5223513  17.9108179  53.4758711  24.9552727  17.5796139  52.7794838
  25.0252938  18.6284339  53.8685465  25.8738375  43.4647703  55.6346369
  26.7338943  43.7873840  55.9038115  25.6618166  42.7853394  56.2746763
  16.9356351  56.8139790   7.2305687  15.9802692  56.7555558   7.2402819
  17.1891516  56.7455291   8.1510456  11.6856408  63.3577394  26.2110543
  11.6587782  63.9098501  26.9925165  11.8981814  62.4849367  26.5416265
   3.8509813  33.9343452  59.0474510   4.1660577  33.1528354  58.5933542
   3.7268850  33.6512828  59.9533796  65.4128211  77.3457097   3.5934408
  65.5236380  76.6544412   2.9406794  65.7379501  76.9609116   4.4073542
  13.7085712  58.0397177  71.3342619  14.5908976  58.1615305  71.6848230
  13.1603038  57.9045963  72.1071672   2.7261648  76.7963314  59.4070816
   3.6053658  77.1537876  59.2827320   2.7872968  75.8947706  59.0913486
  10.4619205  28.9862847  37.5226712   9.8615420  29.4912863  38.0710769
  10.0571346  28.9929938  36.6552997  20.1535487  69.2796755  41.3427877
  20.8302569  69.7683382  40.8742714  20.2285409  68.3859634  41.0082912
  58.0461454  14.3225718  48.5418558  58.0762911  14.4651794  47.5958157
  57.5375795  13.5184669  48.6467743  23.5778093  34.6240807  66.7868662
  24.0637016  34.6102118  67.6114559  22.7108788  34.9524951  67.0251989
  13.2806587  15.8451366  64.3216515  12.9200518  16.0951757  63.4709644
  13.8049185  15.0652194  64.1396809  72.1959773  34.1166854  41.5883923
  71.9433394  34.2023158  40.6691170  72.9994539  34.6312785  41.6649055
  43.4764271  55.3994833  14.1427143  44.3618219  55.2048491  14.4499977
  43.2581728  54.6695851  13.5631855  76.7612520  40.7080173  69.4953060
  76.1945549  40.4810429  70.2325773  76.2262026  40.5366516  68.7203312
  79.6096274  52.9841137  57.3089170  78.7832633  52.6193953  56.9921589
  80.2795735  52.3928022  56.9657660  50.5401008  51.9691824  17.0090206
  50.1813000  52.8563570  17.0294006  50.0594371  51.5325271  16.3057907
  31.6874922  60.2206909   8.0764397  31.0010480  59.6916841   7.6700171
  32.4722498  60.0307344   7.5623329  69.1773413  16.4043852   9.9644859
  68.3362244  16.7339464   9.6480377  69.3204425  16.8668552  10.7902439
  71.3887730  42.2528410  57.9493046  71.8269625  42.0178652  58.7672329
  70.4652765  42.3348808  58.1873226  85.5505738  61.1464643  33.7561393
  84.8594415  60.9268808  34.3809199  85.7855797  60.3097105  33.3550763
  16.6434121  64.1903734  45.4042292  16.9394910  63.3038759  45.6108522
  17.2024405  64.4664097  44.6779203  25.1970237  81.7243193  20.1456459
  25.5816399  81.6642379  21.0201176  24.3502264  81.2852882  20.2257546
  34.2624029  77.9641961   1.6577347  33.7600537  77.6947497   2.4266775
  34.0955659  77.2790121   1.0104950  87.1800461  29.8052454  70.1870203
  86.3139755  29.6981549  70.5803204  87.4331451  28.9213443  69.9207687
  30.7317448  26.2494063  46.6114330  29.8888969  26.6535091  46.8176937
  30.6661296  26.0181260  45.6849146  83.2324722  69.9522686  34.2649937
  82.6243684  69.6858454  33.5754585  84.0684092  69.5608950  34.0114856
   0.9418995  52.0429182  62.7922535   0.9138744  52.0464849  61.8354702
   0.6737261  51.1570835  63.0364227  38.2313370  70.3113602   0.8132275
  39.1854184  70.3659939   0.7586773  37.9236733  71.1537312   0.4785832
  26.1864591  40.7507610  68.2967520  25.6322312  40.8461428  67.5221777
  26.2173915  39.8071384  68.4544039  59.9524191  54.7097731  62.6122427
  59.9195746  55.4878378  62.0556784  60.3982189  55.0025177  63.4071016
  48.0481384  77.0162287  67.1190882  48.9949069  76.9467840  66.9964600
  47.7304874  76.1162481  67.0458412  38.3913170   3.8924118  34.4510277
  38.8043104   4.1339250  33.6219700  39.1203795   3.8036724  35.0648888
  81.0822007  12.6267409  67.0431805  81.6099188  12.7698791  67.8288364
  81.1577812  11.6880786  66.8716192  59.9829558  12.0987642  30.5483747
  59.3377212  11.7334485  29.9430227  60.1985672  11.3736629  31.1348629
  77.1041563  24.3811488  12.6905072  77.6887456  24.9507213  13.1905806
  77.6379922  23.6147976  12.4808526  23.5835981   7.9279697  59.7023773
  23.6934495   8.0004913  58.7542677  23.1278944   8.7316030  59.9528551
  51.4900964  66.1206816   4.7387941  52.1919101  66.7634915   4.8411997
  51.7524116  65.5983971   3.9807470  15.1653981  57.9700041  53.1589079
  14.7529137  57.3744726  52.5332642  16.0437274  58.1158209  52.8074694
  71.7368296  31.1531568  43.2624149  72.6582590  31.3850641  43.1465816
  71.5912512  30.4352403  42.6462698  13.2622957  28.1787300  63.4952545
  14.0821862  27.8381276  63.1374788  13.0673933  27.6046228  64.2359591
  16.2292133   1.2983557   5.5672129  15.8019911   1.3562723   4.7126015
  16.8718611   2.0077320   5.5622824  87.0825844  44.8004055  57.8949451
  86.8038127  43.9217806  57.6369905  87.6388782  44.6598959  58.6611223
  79.0425144  78.7412378  63.1823730  78.1685314  78.8022205  63.5679483
  78.9971266  79.2884812  62.3983479  21.2256193  18.1139565  55.2201843
  20.8907461  17.5179946  55.8901978  20.6831932  18.8981199  55.3043985
  68.2326034  52.2662067  62.4381781  69.0991154  52.6406097  62.5969648
  68.1801370  51.5213156  63.0370235  83.6791182  57.1116829  53.6727381
  83.5324615  56.5232325  54.4133091  83.7514603  57.9805183  54.0678596
  46.1643122  73.4677777  24.3017554  45.5919395  72.7054945  24.2148924
  45.6222854  74.2069504  24.0259600  70.9512451  26.6527843  58.7230539
  70.6833604  25.8518362  59.1735601  70.8779064  27.3375010  59.3878937
   1.8177177  24.1839528  37.2489333   1.5794995  23.2954764  37.5136852
   2.7301478  24.2787981  37.5222588  67.4423013  75.2420202  35.2998424
  68.0265484  74.7205320  35.8502412  66.8500398  75.6703946  35.9178662
  49.5932965  18.2624717  16.7622097  48.8606839  18.8500210  16.5770157
  49.1892503  17.4008175  16.8648441   9.4900978  38.3939552  58.9010143
   8.6943489  38.9155316  59.0057707   9.3755740  37.9482508  58.0616903
  17.9950798  10.6026435  68.4589577  17.1946108  10.2096534  68.1110525
  18.2434523  10.0345337  69.1881990  60.6607435  82.9742001  71.0192490
  59.7796817  83.2482211  71.2739515  61.0977239  82.7733127  71.8468475
  81.0501602  31.9463682  63.8999748  81.4046469  31.0692024  63.7545443
  80.3530017  32.0337677  63.2499266  52.1317075  78.2242855  45.9558344
  51.8584231  78.7847757  45.2296114  52.8644333  77.7180210  45.6050587
  19.4202554  53.5321760  45.9812450  18.7769151  54.0273237  46.4883709
  19.5285773  54.0360308  45.1746321  24.8402905  40.3745699  42.5779581
  24.9811411  40.5375195  41.6453028  25.4939938  40.9183598  43.0175018
  21.2005258  64.2584276  44.5697832  20.2939773  64.4486666  44.3285084
  21.3190746  64.6908092  45.4154921  32.0399690  17.5323784  36.9017935
  31.2565684  17.9005492  36.4931822  32.7676892  17.9853952  36.4758444
  78.1124464  51.3007164  67.5066185  78.8733044  51.5180731  66.9680262
  77.5218478  52.0462418  67.3988247  67.9335896  10.2494903   8.3266361
  68.5750447   9.9875780   8.9870651  68.0744122   9.6408935   7.6013668
  18.6276424  20.7066321  64.5975113  17.9406130  20.4652619  63.9762497
  18.2585728  21.4398980  65.0897884  27.1849203  46.9541311  64.8436213
  26.5689230  46.8390036  65.5671740  28.0389714  47.0392132  65.2674055
  17.8342233  13.4885736   1.0216625  17.8671442  14.3904539   1.3406523
  17.1105419  13.0898567   1.5049275   9.6000457  49.1329908  10.4061127
   8.8541883  48.6647749  10.0310075  10.3062105  48.4869385  10.4195857
   4.4136909   4.7385329   8.6783099   4.6670935   5.6615138   8.6894912
   4.0086174   4.6117467   7.8203630   7.2917921  82.0516794  55.4224491
   8.1263620  82.5059350  55.5380964   6.6677243  82.7467378  55.2134895
  82.1297661  35.3992224  50.5074453  82.3272374  36.2718391  50.1671839
  82.8576329  35.2016020  51.0968399  24.4959641  58.1609821  63.0390644
  25.3263664  58.3226538  63.4868622  24.3001914  57.2420311  63.2219028
  60.1986340  53.3638811  70.6595516  60.9125641  52.7403212  70.5264664
  59.5812753  53.1755781  69.9526978  10.7003844  34.4098902  37.0196319
  11.6147244  34.4433999  37.3008633  10.6942284  33.7792325  36.2995887
   4.3523881  47.1951199  65.8626413   4.7921410  48.0377054  65.7490396
   4.0727732  46.9500399  64.9806118   2.8414114  47.8181024   7.6889427
   2.9054244  48.5644480   7.0930393   3.0485160  48.1808134   8.5502060
   7.3330313  40.3590584  58.8603592   6.5826118  40.4668474  58.2759953
   7.5743902  41.2517738  59.1074085  20.7746243  54.1916990  35.4852748
  21.6204953  54.6373177  35.5317068  20.4615903  54.1771746  36.3897252
  79.8677979  11.1643453   4.8903521  79.6424399  11.7090078   4.1361721
  79.9916683  11.7868276   5.6068714  41.0457945  68.0985975  16.1257255
  41.6615629  67.6320648  16.6908872  40.6364775  67.4119473  15.5992234
  54.6732187  55.6965542  50.7826424  55.4931450  55.9122324  50.3382969
  54.5459080  54.7635508  50.6108046  17.0033717  55.8050442  44.3961239
  16.0579360  55.8061504  44.5457315  17.1159804  55.3195190  43.5789251
  80.4776391  82.6928139  68.3920050  80.0216410  82.3096180  67.6427031
  80.9762958  81.9663811  68.7660027  63.2797317  11.3025041  23.7780102
  63.2294600  11.3783499  22.8251465  63.4169210  12.1994634  24.0827759
  27.4948522  79.6298527  16.3280304  27.2562117  80.3994011  15.8112343
  26.9942421  79.7211503  17.1387680  33.5328924  61.8009042  26.8863686
  33.5546573  62.6340078  27.3572167  34.4231670  61.4581322  26.9647988
  27.9850560  69.9983429   5.4943331  27.5485449  70.2912234   6.2942799
  27.2735565  69.6943187   4.9308022   4.1230193  51.6777134  44.4559002
   4.5913479  51.7249727  45.2893639   4.8004270  51.4712906  43.8118982
  38.5390568  79.0007830  69.7055006  39.2609787  78.4105873  69.9216795
  38.4713244  78.9570284  68.7517071  24.2774438  64.6505235  25.4238423
  24.6897846  64.7710561  26.2792214  23.8669782  65.4943298  25.2347859
  45.2189176  72.2546839   7.9691609  45.3310602  73.0002641   7.3794420
  46.0641115  72.1689128   8.4102066  43.7855707  14.4582172   3.2613428
  44.4755111  13.8464542   3.5181626  44.2543839  15.2070471   2.8929623
  14.6306860  63.7958479  70.9485197  15.2954757  63.1397724  71.1579227
  13.9660132  63.3145285  70.4557991  42.4247694  61.7671299  44.9464989
  43.0572224  62.4019098  45.2830839  42.7797079  60.9161043  45.2034140
  20.0125575  42.5442362  36.9898915  19.6990192  41.7030621  36.6576910
  19.2295587  43.0934811  37.0282745   8.4804368  46.0732841  60.6216002
   8.3638942  45.1235819  60.6483459   8.6782008  46.2646008  59.7047997
   7.7285171  61.2060547  30.6854010   8.4486133  61.5832424  31.1907935
   7.3996818  61.9335556  30.1573467  15.3142226  38.0904412  27.3129201
  16.2597311  37.9691029  27.3996639  15.2132380  39.0054393  27.0506001
  65.5791548  75.8233881  69.8509836  66.5035418  76.0158253  70.0081635
  65.2420476  75.5535841  70.7052660  31.1804450   1.1995694  41.5654945
  31.2657093   2.0070073  42.0724440  31.9203298   1.2186048  40.9584999
  84.7157369  13.0553146  21.8698319  84.5600997  12.4147745  21.1757763
  85.0011287  13.8438888  21.4083870  14.4915187  50.4323006  65.1121616
  15.4450190  50.4231834  65.0285769  14.2456388  51.3431883  64.9507475
   7.3286462  48.9470625  70.9390974   6.5653110  49.5125484  71.0564899
   7.6224107  49.1237164  70.0453806  64.5953189  57.6817365   8.6203392
  65.3202472  57.6127954   7.9990824  63.9729135  58.2733484   8.1974419
   0.6770682  67.7513218  55.3711510   0.3316224  67.2904015  56.1356449
   0.7197449  68.6680412  55.6432486  22.3555660  47.1838617  29.3407845
  22.4377537  46.9149017  28.4258318  21.5728331  47.7345181  29.3591762
   1.3623685  51.8306398  34.3962598   1.0711643  51.6634703  35.2926350
   1.4496884  52.7825403  34.3463850  11.4112759  24.9862933  51.7930937
  10.9400880  25.2002549  52.5983477  10.7414877  24.6251154  51.2124348
  27.6442266  79.1849995  35.5846977  27.8615594  78.3639050  35.1433277
  27.6637053  78.9683008  36.5168428  27.7038908  44.1568470  70.8325243
  27.8186798  44.2148447  71.7810440  28.3548951  43.5139132  70.5513477
  62.6947357  10.2686926  28.0233772  61.9861434  10.2654119  28.6668976
  63.4355639   9.8710247  28.4808262   2.6235026  70.9124660  52.1079493
   2.6301751  69.9713659  51.9332695   1.9472793  71.2592983  51.5260029
   6.3013214  66.4204645  45.5186653   6.3976800  67.1970940  44.9674892
   6.9195598  66.5579176  46.2363815  15.1773460  31.4214893   7.5268324
  15.2987440  32.1429582   8.1440647  15.5520685  31.7424103   6.7065724
  20.8807659  79.2489243  48.2905006  20.2184677  79.3246174  47.6035786
  20.8651614  78.3242464  48.5374069  84.2615315  62.8106070  40.7706594
  83.7097749  62.5474834  41.5072489  84.4552085  63.7336302  40.9342098
  14.6781886  76.1458731  31.8935323  14.2426372  75.3007030  31.7829943
  14.5870495  76.3421535  32.8259492  17.4803090  44.3851995  46.7097712
  17.0701075  44.8713779  45.9945107  18.0138850  45.0356102  47.1663857
   9.7063072  20.4242798   5.3726252   9.6172626  20.7158561   6.2799795
   9.3452938  19.5377775   5.3694018  50.2926241   1.1245676  10.0517758
  51.0999016   1.6094251  10.2233799  49.6704803   1.4589258  10.6978233
  15.3830659  53.8965702  53.8002014  15.3539801  52.9439354  53.7115002
  14.8618913  54.0803719  54.5817518  58.0591140  26.0646053  24.3553074
  57.3117105  25.9895559  23.7620266  57.6928443  26.4410730  25.1555260
  40.7093435  80.9547304   8.0751427  40.5633407  81.1334442   7.1461781
  41.5768199  80.5514501   8.1080158  55.5786388  72.9774402   2.2221573
  55.5758541  73.8314222   1.7897995  56.3457530  72.5303983   1.8644961
  84.3852753  42.1579981  40.0154829  84.0766123  42.2255087  40.9190321
  84.3744090  43.0583668  39.6907616  50.4535907  75.1168608  15.7780083
  49.9045604  74.8660277  16.5208920  50.6935423  74.2866515  15.3664215
   5.6976658  22.6916051  47.1358728   6.3544101  22.1660805  46.6789913
   5.2227199  22.0623565  47.6787424  85.5496345  15.6847950   7.9853256
  86.2911402  15.2842613   7.5314863  84.8223220  15.6108328   7.3674448
  37.9667675   5.1099393  52.1159029  37.0735966   5.3903577  52.3155117
  38.3874791   5.0234792  52.9713297  27.9986572  43.5571909  46.9546700
  28.7817717  43.4965467  47.5017405  27.3840046  44.0765619  47.4730253
  32.5108862  22.8339219  62.6297951  31.9057322  22.2060847  63.0245590
  33.3300471  22.7111483  63.1095171  25.5459213  53.9317465  49.8006535
  25.9077406  53.0736828  49.5791960  26.3126969  54.4946003  49.9078226
  85.2304405  45.8706713  64.3355179  85.6911133  45.5324697  65.1033926
  84.6409121  46.5389395  64.6849632  14.4978750  18.3959937  47.6263809
  14.2393649  17.9037464  46.8472195  14.0598130  17.9471850  48.3495045
  76.6562763  43.3717489  27.5291729  77.4200931  42.9597425  27.9329848
  76.6293350  43.0100489  26.6433525  75.6173566  63.1763077  64.4736433
  75.6261769  64.1207886  64.3183947  75.0714520  63.0666447  65.2522278
  53.1726425   7.3671433  48.8635302  52.6179545   8.0923268  49.1510439
  52.8423922   7.1433732  47.9934216  16.6274488  67.0492363  61.6612530
  16.3144135  66.1653090  61.4691162  17.3876762  66.9162893  62.2274828
  40.6805616   0.0660417  50.0760984  40.4890852   0.9887120  50.2441978
  40.2517026  -0.4019549  50.7925367  25.2222037  47.1960306  69.8495483
  24.3739843  46.8347263  69.5922279  25.4124403  46.7838049  70.6922293
  70.2900617  73.0574297   6.0539444  70.8359259  73.7274574   6.4654358
  70.9094255  72.3852776   5.7696398  87.2746950  70.4579735  44.7802210
  86.8192637  71.2966871  44.8534918  86.9451477  69.9414301  45.5156231
  49.2689984  17.9512689  10.1178217  49.6171754  18.1179044  10.9937429
  49.5665734  18.6965272   9.5960218  32.4509859  31.4667606  62.3584175
  31.6611147  31.0747838  61.9860077  32.7784324  32.0457602  61.6701078
  10.3005791  54.4966745  45.1242447  10.8667946  53.8423777  45.5335522
  10.8107114  55.3061199  45.1523733   1.2982436  21.3100767  45.1653290
   0.6329159  21.4441562  44.4903517   1.8601188  22.0826316  45.1046085
  25.9109807  68.2182837  51.6467476  25.0531983  67.9787827  51.9975758
  26.5193725  67.6089144  52.0647860  51.0579603  70.0555753   4.6521671
  51.9386952  70.0571154   4.2772873  50.6272428  69.3019556   4.2487200
  41.3114982   0.2705666  24.6716976  41.8660634   0.6933782  25.3273821
  40.4980796   0.0743577  25.1365447  11.4542997  41.1965704  55.3558779
  11.8554056  40.8240032  54.5706797  10.6104422  41.5347910  55.0563049
  24.9460268  51.5012407  52.1133614  24.0365982  51.7947912  52.1681309
  24.8853779  50.5784273  51.8664265  43.2881880  55.7288647  29.3276501
  42.6824665  55.0455284  29.0406179  44.0337610  55.6536484  28.7320876
  13.5541308  49.2915297  35.6238866  13.3335280  50.2136755  35.7551003
  13.4350324  49.1480160  34.6850300   0.1094268  80.9349346  52.4069977
   0.9159672  80.5134201  52.7037239  -0.2758268  81.3018322  53.2027340
  74.1381667  37.4436279  12.1938713  73.2084571  37.5228735  11.9803532
  74.2716692  36.5069051  12.3386295  84.6931158  18.4329935   3.3452995
  84.8069940  18.6950632   4.2588528  84.7459732  19.2520614   2.8527935
  62.7529124  61.7608070  57.6251316  62.6559094  62.6650095  57.9238558
  61.9068006  61.3544798  57.8128195  69.8466253  75.8019447  66.1267185
  69.0480518  75.8943081  65.6071234  69.9274683  74.8599577  66.2762499
  11.6024268  80.8976364  30.8184195  11.3901651  80.3833866  30.0394964
  12.0949161  80.2954388  31.3761234  17.3069155  74.9891138  31.6302133
  17.9169714  75.7245302  31.5733957  16.4464760  75.3982544  31.7223024
  31.2418628  67.9165888  18.9145780  31.4215016  68.5537767  18.2232356
  31.0879350  68.4478188  19.6958148   5.7086360  49.6325254  65.7014847
   6.2973619  50.1026821  65.1110697   5.0238943  50.2672386  65.9124374
  84.8375112  32.0207286  54.8791838  84.2271358  31.2951279  54.7481251
  85.6842068  31.5983272  55.0238037  69.7596505  78.9926100  67.9085875
  70.1454237  79.0933371  68.7787962  69.0994540  78.3080578  68.0170441
  23.8502383  58.3683825  39.7279763  23.8734555  59.1449547  40.2871084
  23.8763475  57.6322556  40.3392601  25.4820180  52.1520758  63.5517979
  26.3361812  51.8249083  63.8339281  24.8913908  51.9320631  64.2722034
  61.6708329  50.5347872  63.7475729  62.4699071  50.7276773  64.2379808
  61.9776395  50.3056145  62.8703117  65.3804462  75.2122067   1.7610367
  64.5228475  74.8629521   1.5185936  65.7676690  75.4932903   0.9320124
  83.3483458  46.5334511  24.4046664  83.5975143  46.5668917  25.3282619
  84.0798014  46.0899019  23.9751673  11.4840877  61.9234705  57.4204159
  12.1838033  62.2073126  56.8321419  10.7163107  61.8372917  56.8553257
  42.2345114  22.4927759  38.4261608  41.4128685  22.1179962  38.7434649
  42.4578333  23.1623244  39.0727425  20.8844209  70.7953596  34.2986798
  21.7859554  71.0577488  34.4847393  20.9330678  70.3567791  33.4492636
  10.9815145  73.8646889  30.1753259  10.3543377  73.1948471  29.9029541
  10.8880830  74.5594549  29.5235538  20.8355808  61.6079426  41.3682270
  20.3663826  61.0988760  40.7072163  21.2171245  60.9508038  41.9503164
  72.0721517  40.0339838  22.4586685  71.7877541  40.0251814  21.5447338
  71.2703250  39.8872705  22.9604443  17.6708746  57.9987478  40.4522371
  18.4287858  58.4701729  40.7980108  17.5275505  58.3786440  39.5854211
  75.0800982  10.4428530  55.3211594  74.4963983  10.0426900  54.6766424
  75.7493499   9.7780454  55.4835272  37.7813983  65.5712557  13.1005311
  37.0322847  64.9833965  13.1978953  37.7600574  65.8361387  12.1809590
  25.8910799  42.0973921  45.7807875  26.6032863  41.9756794  45.1529503
  26.3190913  42.4415398  46.5647507  44.4228135   0.2271076   0.5550488
  43.4827433   0.0610204   0.6251534  44.5408116   1.0988518   0.9323748
  42.4444459  19.0428301   4.6235474  42.2848414  18.1220766   4.8308380
  42.0244144  19.5249840   5.3358229   1.7947610  54.2327929  47.7190208
   1.1943880  54.9484682  47.9278231   2.5519747  54.3825197  48.2850981
  70.0057719  20.8235546  13.7150200  70.8247958  20.4574867  14.0488251
  69.6365009  21.3010545  14.4578941  65.8382080  21.2259432   7.9644974
  66.1910371  20.3943868   8.2811363  66.0473327  21.8537374   8.6561402
  70.9097098  15.7220646   1.5441282  70.8353935  16.3311287   2.2788056
  71.1576770  14.8899408   1.9470080   9.7251374  32.2300100  56.0221815
   9.3455797  32.8077149  55.3600454  10.6602752  32.4339914  56.0103464
  14.6764553  52.7054548  72.0170021  15.4309165  52.5208902  72.5764275
  15.0063205  52.5936174  71.1254215  10.1489794  56.3392925  37.1072769
   9.4271797  55.9664679  37.6134753  10.6607974  56.8331289  37.7479005
  53.6538087   5.0836321   8.2706936  53.6595009   6.0189100   8.0670841
  54.5748325   4.8253103   8.2358177  69.3404911   7.1487327   3.1382664
  68.4868799   6.8772026   3.4756859  69.3598495   8.0965515   3.2705172
  44.8453712  69.8015308  54.5363665  44.9720621  70.3084040  53.7343311
  45.4595566  69.0715647  54.4579077  75.2832065  14.7721191  31.1130436
  76.2010358  14.6128317  31.3331612  75.2325807  14.6164604  30.1699455
  29.7925186  43.9653158  62.3933411  30.0883675  44.6950912  61.8491650
  30.0902104  43.1835508  61.9280910  74.2744170   0.1193901   4.2940624
  73.3892499  -0.2234701   4.1709574  74.4094096   0.7066055   3.5502966
  11.7674041  47.7233744  51.1429739  11.8050432  48.0673265  50.2504969
  11.7726934  48.5017490  51.7000532  14.6722686  52.4418831  62.6536560
  13.9405990  51.8249846  62.6716757  15.4290915  51.9087887  62.4102259
  17.7910328  70.6716537  36.4646602  18.4828424  71.2144852  36.0865498
  18.1993020  70.2592182  37.2258711  40.8196335  70.3476332   0.2777012
  41.1717348  69.5527338  -0.1227848  41.5381425  70.6847047   0.8128269
   1.3311425  68.0970287  45.2163553   1.2261919  68.1232119  44.2652845
   2.2425723  67.8367329  45.3496647  75.3210245  35.1742025   2.5757225
  76.1226986  34.7945877   2.2159441  75.5964254  35.5812450   3.3971270
   0.9711143  79.6112204  33.0691648   0.4181009  79.7517300  33.8377118
   1.4317237  78.7922955  33.2520151   1.9162351  62.3974180  39.0522003
   1.7364699  62.3345709  39.9902654   2.8264952  62.6891613  39.0017843
  13.7907350  58.4415293  44.3446255  14.5612621  58.7777376  43.8869381
  14.0826941  58.3205032  45.2481461  50.2070284  68.4487867  31.2739992
  49.8441982  68.1844759  32.1194124  50.6803226  67.6764965  30.9644961
   9.7360077  77.3371981  11.4694794   9.8691311  78.0533599  10.8484944
  10.3774347  77.4979471  12.1615513  15.3888774  34.2835045  50.6980419
  14.5444560  34.3907714  50.2602339  15.2551651  33.5516047  51.3002682
  30.3753352  55.1299620  46.7756939  31.1944318  54.8345757  47.1732616
  30.1801968  54.4698191  46.1105919  69.9580215  45.0002523   5.6657084
  69.6926711  44.4400259   6.3950737  69.8249040  45.8917757   5.9877308
  45.8210135  63.9528275  36.8591619  45.8000803  64.7836351  37.3340893
  45.6153727  63.2930803  37.5214863  16.3986504  32.3238707  63.5410929
  17.2019815  31.8964028  63.8380098  15.7031596  31.9058275  64.0487957
   0.3022766  76.3127041  54.8103380  -0.2385833  75.6215906  54.4281578
   0.5224875  76.8804741  54.0718460   3.6392577  29.8927589  11.8547733
   2.8067191  30.1865001  11.4848622   3.4988077  28.9675422  12.0559509
  13.9416850  31.5031719  43.3904028  13.6583889  31.0231614  42.6122189
  14.8036039  31.8486714  43.1581163  84.8014987  31.7096663  26.1421847
  84.1712701  32.4300480  26.1519051  85.5596599  32.0482707  26.6183877
  25.9994936  65.0993824  59.9888420  25.2707529  65.7046461  60.1260614
  26.6478086  65.3521681  60.6461239   1.9487074  47.7806044  51.0669947
   2.8661960  47.7250481  51.3341284   1.4574352  47.7391624  51.8874598
  85.2367774  46.7807388  47.2472382  85.4966024  46.6732359  46.3322735
  85.5879504  46.0072565  47.6884127  29.7724877  16.2647386   2.4759825
  29.5398031  16.6341825   1.6241606  29.6562825  15.3208299   2.3674877
   8.9447713  27.0478272  39.6882153   8.7225920  26.1256623  39.8165870
   9.8539525  27.0357466  39.3890905  83.6324078  33.5246253  60.8463717
  83.7576696  34.0347004  61.6465998  83.4074989  32.6467752  61.1546373
  23.0947256  47.1691227  56.6103077  23.2432914  46.5020227  55.9401321
  23.1172824  47.9980850  56.1322403  29.4530606  18.5646737  48.3988810
  29.2028284  18.2388568  49.2634392  29.5018196  19.5146310  48.5058165
  50.9569662  82.3734664  13.7813385  50.3380721  82.1313809  14.4702442
  50.7099455  83.2663058  13.5403832  30.7038700  73.1911849  36.0485562
  30.9686363  72.2726249  35.9997852  31.5100288  73.6619090  36.2601193
  26.8685491  30.9202429   1.0480936  27.4408300  31.6425844   0.7893427
  27.0254476  30.2428957   0.3902062  84.2218596  41.0831451  13.6361468
  85.0030011  41.2551737  14.1619360  83.5609195  40.8087349  14.2718267
  22.0620346  75.6956100  40.0221825  21.5231943  76.2377357  40.5983639
  22.1797657  76.2267637  39.2346239   7.0600897  63.9200401  36.2503457
   6.6354001  64.6619225  36.6810203   7.9629803  63.9438820  36.5672874
   9.8876119  32.2369075  64.6489429   9.8795640  32.7963471  63.8722849
  10.5772436  31.5961719  64.4754505  80.4737268  16.3318773  13.3837135
  80.5316602  16.7855879  14.2245587  80.6164871  15.4100986  13.5985954
  79.2094599   7.8492208  18.9982994  78.4749864   7.4028774  19.4196804
  78.9501534   7.9224487  18.0798062  13.8360047  24.7057009  15.5894423
  13.7262511  25.3022647  14.8489714  14.6351755  24.2187715  15.3883052
  60.1780718  79.1942214   2.4929817  59.6229189  79.9253844   2.2219904
  60.2488559  78.6450290   1.7122086  13.4635270  44.7156382  36.6658640
  12.6316452  44.2421389  36.6680551  13.2476056  45.5775213  36.3098240
  21.3535690  49.3574047  67.0772982  20.7996416  48.6257124  66.8052197
  22.1735597  48.9475441  67.3527241   6.5038330  75.0208363  53.6359644
   7.2404868  75.0712022  54.2450857   6.6087134  75.7852933  53.0695343
  18.4615576  14.0397882  71.0244894  18.4939861  13.1135631  71.2638426
  18.8275230  14.0717077  70.1405907  75.5290197   5.6736036  14.3928726
  75.7486783   6.0713096  15.2353771  76.3345121   5.7389494  13.8798912
  13.1353974  13.9754379  44.8060608  13.9950073  13.5926306  44.9814463
  12.7950001  13.4713340  44.0669775  18.3216810  12.9723752  46.3699913
  17.4161637  13.2233262  46.1875248  18.5169387  13.3776808  47.2148800
  11.2201364   2.1799656   1.1896284  10.5316765   1.5149446   1.1887320
  10.9348400   2.8191801   1.8424996  30.7711878  47.7056800  21.7875775
  29.8701718  47.3956244  21.8785008  31.0415018  47.9213201  22.6801403
  30.1364899  51.4760208  51.6279745  30.6141162  51.8928003  52.3451900
  29.2662501  51.3042116  51.9876909  20.6932068  66.8035793  40.4109240
  21.4152694  67.0251608  39.8229098  20.2821112  66.0388851  40.0078392
   2.8919193  36.7795110  52.3006153   2.2745413  37.3440433  52.7657843
   3.5425568  36.5408897  52.9608917  86.7486112  52.7420712  25.8174276
  86.5845735  51.8026590  25.9000850  85.8801152  53.1276274  25.7021427
  24.3166876  58.6694908  66.5164709  23.5139847  59.1634035  66.3492823
  24.1304731  57.7907419  66.1857796  77.8474663  27.5519176   7.1367653
  77.7275239  27.9185005   6.2607201  77.2193728  28.0251356   7.6824768
  65.2183668  33.7854810   8.5784443  65.7708417  34.5659109   8.6223896
  65.7883017  33.1088348   8.2129963  54.6482874   3.1502290   2.7205094
  54.3119551   2.8397890   3.5611876  54.3217708   4.0471216   2.6483639
  76.4411996   2.0678612  13.6869057  77.0452379   1.9955250  14.4259174
  76.0855888   2.9540106  13.7540825  35.2706718  71.3667059  47.3088408
  34.8642993  72.0885849  47.7884007  36.2021399  71.4340162  47.5187635
  71.3880108  18.0643411  12.5350388  70.7553921  17.6668497  13.1333931
  70.8532832  18.5665985  11.9201954  12.2379231  25.5147052  64.4985247
  11.3185585  25.4562593  64.2385578  12.2970545  24.9813986  65.2911901
  57.6864339  12.5124641  21.2116345  57.7602019  12.8491493  20.3186520
  56.9291931  11.9275470  21.1852844  74.1917995  44.8147535  39.1361332
  74.1828349  45.3154707  38.3203888  73.8487735  45.4207373  39.7929072
  10.6824839  40.6949949  58.2753325  11.0854876  40.6226635  57.4101210
  10.4034603  39.8036599  58.4848595  67.1938780  21.6066718  28.2268238
  66.7649248  20.7575750  28.3329630  66.4952806  22.1933770  27.9370451
  72.2337137  25.6247898  20.9210117  72.4215351  25.3554245  20.0219067
  72.0652769  26.5650173  20.8591278   5.8120329   7.0926615   8.6261948
   5.8365758   6.9449659   7.6807793   6.0658057   8.0095192   8.7320431
  70.6201461  66.0058403  64.0289164  70.0511065  65.2749872  63.7875080
  70.1330534  66.4750338  64.7062874  21.0772931  82.2177838  19.5230206
  20.4212557  82.8465318  19.2221554  21.0705721  82.3023747  20.4764565
  21.1777163  54.1754913  63.2472324  20.7961106  53.3028889  63.3429909
  20.5910277  54.6283102  62.6414394  28.4666991  39.3087816  60.2494717
  29.3914986  39.0664554  60.2969742  28.0891752  38.6913204  59.6230173
   8.1109601  73.4755754  60.4912472   8.3320791  74.1582060  61.1247683
   7.6790917  72.7974701  61.0107660  21.1959648  82.6089764  22.1827483
  21.3102651  81.7498016  22.5889325  21.9941783  83.0876637  22.4062371
  57.2770169  14.6118017   0.9125670  56.7480208  15.2664085   0.4566200
  57.1523961  13.8086696   0.4069193  31.6676847   1.0331819  53.5667801
  31.3829257   1.9389531  53.6881208  30.9040702   0.5894467  53.1976938
  21.0175681  57.1704054  45.3714943  21.8378878  56.8351126  45.7332706
  20.8183813  56.5815067  44.6436501   0.0785387  30.9890366  47.9325151
   0.9365413  30.5671334  47.9779243  -0.0268563  31.2187314  47.0092773
  63.3667712  25.0331732   2.3101385  62.5747724  25.4775329   2.0076235
  63.0521966  24.3869444   2.9423245  82.8209077  22.6025053  14.6053608
  82.8327809  23.5407158  14.7947033  83.7441026  22.3503824  14.5859154
  18.1673634  53.9150524  29.6537852  17.5942039  53.7586784  28.9032745
  19.0439510  53.9837742  29.2754936  18.5687149  56.1836433  56.4400339
  17.9809475  56.9346666  56.3580322  19.4314718  56.5700102  56.5903807
  23.8321495  49.4782352  55.1548576  23.4117317  49.9650574  54.4459963
  24.5680261  49.0322542  54.7355509   4.4341013  47.4367571  52.3616982
   5.2883428  47.8267527  52.1762037   4.4232312  47.3248339  53.3122683
  66.0463619  12.4467170  52.9952049  65.6952810  12.7867985  52.1722126
  65.5772686  11.6239500  53.1338978  39.4864178  74.8038721  46.5651608
  39.8284793  74.1448450  45.9610891  40.2663708  75.2099133  46.9433594
   9.9274319  78.2593822  42.5687504  10.6035316  78.9265871  42.6868868
  10.1292360  77.5946712  43.2272863  68.6433881  27.6113698  23.3186460
  69.0565675  26.8557355  23.7364173  68.6391466  28.2872102  23.9964771
  11.7726421  61.8793392  51.5324306  11.4919543  61.6590643  52.4206448
  12.6837528  62.1557999  51.6308022   2.1321549  46.3275623  58.3876657
   1.8878272  47.1651077  58.7814331   1.8238342  45.6704998  59.0117121
  83.1716177  47.5145149  48.5661364  83.1281456  46.8246889  49.2283201
  83.9106533  47.2669029  48.0104876  86.8227993  57.2943826  10.0967034
  87.5754367  57.1263357  10.6637390  86.6396580  58.2268186  10.2118118
  36.2251544  37.3121834   4.8888224  36.1313796  37.0771050   5.8119559
  36.5385604  36.5114069   4.4683883  85.3555172  17.0272061  66.9703102
  84.7455900  17.1193215  66.2383747  86.0615986  16.4800927  66.6262960
  46.8441010  70.2805948  38.3911633  46.1554384  69.6623278  38.6355424
  47.0039272  70.7879353  39.1869617  36.2683320  74.8606586  53.3786440
  36.3570881  73.9437008  53.1187582  35.3766108  75.0967932  53.1230974
   0.9868127  70.9540224  42.5964594   1.4284053  71.6080761  43.1381655
   0.1997562  70.7253695  43.0909204  76.7966178  45.4456711  44.9283171
  76.2836769  44.8294449  45.4511833  77.6820114  45.0819302  44.9297476
  75.1771775  62.9443073  53.9894819  74.5528093  62.2741032  54.2673731
  74.6377280  63.7141991  53.8092279  76.8746744  27.6922699  20.0756653
  77.2571181  27.2382732  20.8265694  77.5990008  28.1981035  19.7072704
  29.2097116  80.9493256  34.4202542  28.6781359  80.2179718  34.7345281
  30.0879431  80.7684231  34.7552395  19.6335495  70.2919006  27.0626545
  18.7486362  70.4474020  26.7325306  19.6596098  69.3525505  27.2447920
  71.3070362   3.3405110  64.1418791  70.5524319   3.4161565  64.7259092
  70.9865349   2.8246114  63.4020424  60.6304925   3.2632634  27.2386241
  61.4833873   3.0788609  26.8451786  60.3812282   4.1156480  26.8814850
  60.9189337   1.4482018  43.2749462  61.6765945   1.8153474  43.7303448
  61.2837212   1.0532948  42.4829817  49.7490638   6.3338086  45.5787134
  49.1223996   7.0484158  45.4653215  49.3492954   5.5907056  45.1268053
  15.3652525  48.2208538  55.6426525  14.9951875  47.3415232  55.5648327
  14.6130180  48.7812948  55.8331299   6.7757787  15.6278130  68.3516073
   7.1613779  15.9191606  67.5253773   5.8555927  15.4668328  68.1428766
  54.6023369  72.2992659  61.1180973  54.4891977  72.6477051  60.2337790
  53.7390375  72.3866320  61.5222168  35.1560116  78.0439138  60.0039959
  34.8617411  78.9546728  60.0163078  34.6127915  77.6256990  59.3359852
  43.9891653   2.4950597  51.9837427  43.0542438   2.3518559  52.1308661
  44.2902701   2.9426000  52.7744865   7.5463301  55.5724192  49.4204426
   8.3053380  55.2903461  48.9099789   7.2064370  56.3306141  48.9452124
  14.2927110  35.3573346  46.3933516  15.0923049  34.8564172  46.2322187
  14.5836568  36.1173248  46.8973303  39.0550876  49.7658682  11.7915106
  38.2136440  50.1734114  11.5862978  39.6985173  50.4601002  11.6491258
  44.2576694  77.1486187  44.1231632  44.9264336  76.6210842  44.5598459
  44.1872358  76.7689180  43.2473230  77.6260710  75.4059839  64.1586828
  78.2641029  75.4372549  63.4458256  77.5797415  76.3070345  64.4783497
  31.2288213  80.3040981  62.9760408  31.7151713  79.4836521  62.8950548
  31.2142539  80.4820728  63.9164400  10.0746322  50.0492525  34.1370344
   9.5973980  49.3019867  33.7763762  10.9784889  49.7430229  34.2111850
  27.6417596   6.1244150  25.6465634  28.2495554   6.7416235  25.2392967
  26.9523294   6.6759105  26.0163887  75.1121734  58.5894056  18.5872181
  74.4366036  58.5295530  17.9117497  74.6882365  59.0527769  19.3095692
  16.0059035  75.7947159  70.3180456  16.6370893  76.1212015  70.9593248
  16.5327549  75.5926895  69.5448399  42.3528772   6.7499253   1.5790360
  41.8973654   6.2614438   2.2646944  41.7798071   7.4939725   1.3940291
  50.8727496   4.0038106  60.5695391  51.4162844   3.9305779  59.7850418
  51.4733689   4.3092248  61.2494040  54.0988684  72.0565891  64.6732235
  54.0080023  73.0079222  64.6189404  54.7903061  71.8458366  64.0457439
  29.1551971  42.8772259  35.4862809  28.6409211  43.1804085  34.7380614
  30.0401998  42.7654934  35.1391220  29.5647120  61.0273457  24.8446345
  30.1194859  61.4004040  25.5296779  30.1792717  60.6208467  24.2336464
   5.1716471  43.2309389  43.4436560   5.4379970  43.4952021  44.3242598
   5.3571105  43.9951181  42.8978920  28.8274288  77.3595810  56.7319536
  28.2738709  76.9237328  56.0840034  29.6793008  77.4411631  56.3031292
  80.5492428  62.9158878  45.9678221  81.1052433  63.6912584  46.0446167
  79.8704013  63.1689501  45.3422308  10.5770946  25.8060217  54.5860434
  10.7428253  26.6721702  54.9582672  10.8447599  25.1950765  55.2725792
  42.4045563  70.5117750  17.1164834  43.0561161  70.4634047  16.4169431
  41.8941975  69.7072220  17.0244920  18.5309594   5.4731557  56.4527988
  19.3511765   5.0478074  56.2026882  17.8891652   5.1448247  55.8230925
   3.9607515  22.9516122  21.1068416   3.7378778  23.0316064  20.1793909
   4.2078056  22.0332429  21.2154603  33.5079122  67.2075462  60.1133871
  33.5901880  67.9087210  59.4670010  33.9225960  66.4505148  59.6996546
  53.3642166   9.2790601  53.6694908  52.9262941   9.5009705  54.4912052
  52.9338997   9.8270604  53.0131674  79.3710106   5.0744626  39.6205020
  79.2932146   4.1475484  39.8463416  78.9300459   5.1526925  38.7745309
  36.0398244   7.1485135  61.8164253  35.0843959   7.1888349  61.8584013
  36.2293976   6.8950746  60.9130621  17.2143710  46.2620544  61.3258457
  17.4766195  47.1826172  61.3303518  16.6531742  46.1766577  60.5551338
  41.6132784  74.9570847  28.4715700  42.4839306  74.6038008  28.2888389
  41.5135574  74.8699331  29.4195628  12.0873010  73.0658960  39.3411994
  12.3704851  73.9653158  39.5057607  11.8280625  72.7352619  40.2012634
  23.2400488  12.0316216  27.0372605  23.0827754  11.1502072  27.3757887
  23.6250948  11.8908212  26.1723065  10.2213724  47.8288122   2.4404867
   9.3597753  47.7465101   2.0316990  10.8007581  47.3070856   1.8852003
  56.7964929   2.4219510  56.2751579  57.4686711   1.9566342  55.7772827
  56.3412540   2.9547021  55.6231117  30.6361961  65.0388765  51.9907808
  31.1708522  64.7032452  52.7103138  29.7815347  64.6260309  52.1146441
  21.4012909  56.8493319  52.0463467  22.2110534  56.3467979  52.1356726
  21.6789198  57.6869965  51.6755724  50.2838438  14.6747205  48.7265730
  49.7249811  14.4392964  49.4671726  50.0592916  14.0402982  48.0458927
  34.4904828  45.9301138  42.8288507  35.1023006  45.2335882  42.5906038
  33.7600231  45.8262253  42.2190380  85.0696203  45.1576757  20.2988696
  85.4709533  45.7531261  20.9317994  85.5960471  44.3600798  20.3532124
  63.2288225  27.1176000  11.5883358  62.8804980  26.2264438  11.5611179
  62.4530642  27.6782985  11.5812596  85.5131326  20.4110618   1.4852198
  85.0039373  21.2057586   1.3258131  85.6050001  20.0082393   0.6217821
  53.5626602  63.9624929  11.7468083  53.2582998  64.0067863  10.8403671
  52.9146194  63.4153795  12.1905935  40.5011559  43.1299067  24.1878510
  41.4110565  43.3548498  24.3820548  40.5179739  42.1877146  24.0198731
  33.6164737  71.8249702  33.1075525  33.1099701  71.0892439  32.7634668
  34.3387032  71.4162636  33.5845995  15.4527414  67.7849770  49.3588543
  15.2925742  68.7258863  49.2862892  16.1141598  67.6024389  48.6914396
  13.4000754  31.4557052  32.3037052  12.8081346  31.0886383  32.9602885
  13.9086759  32.1120048  32.7799678  25.1520061  71.1980724  38.4513021
  24.4288421  71.5024614  38.9995885  25.9398270  71.4365482  38.9398718
  50.5087440   7.8905484  22.5627875  50.0215357   7.4508092  21.8660188
  51.2572258   7.3177812  22.7299380  83.1253174  57.5606441  64.9732733
  84.0684834  57.6599741  65.1029015  82.9323223  58.0926085  64.2012644
  29.3440390  74.6459532  67.3268366  28.5385394  75.0229645  67.6807642
  29.3804049  73.7652349  67.6999950  31.3570356  67.8624535  56.3496494
  32.0476341  67.3806190  55.8945179  30.6697202  67.2129822  56.4980364
  18.7698371  22.0510145   3.2558163  18.5262449  21.1617084   3.5127838
  19.3493326  22.3522754   3.9555748  44.3903971  76.3443565  59.8259401
  44.0676069  75.7875299  60.5344486  44.5826149  75.7363367  59.1120815
  80.3473297  64.2139339  42.5718594  80.4318580  65.1651239  42.6376390
  79.4136486  64.0662956  42.4212837  82.0284817  68.5378075  39.4342566
  82.2762123  67.8435183  38.8236594  82.8495851  68.7889862  39.8572564
  44.5240927  68.0361176  16.7596662  44.8206758  67.1282196  16.8228483
  44.4895887  68.2119274  15.8193827  64.0693140  61.8939877  35.6688190
  64.8099899  62.4082613  35.3476453  64.1414070  61.0573959  35.2093124
  48.0046947  27.9208370   2.0319946  47.8539712  26.9974180   1.8299826
  47.2760351  28.1630131   2.6035174  39.8543048  70.3062010  40.8311033
  39.5556974  69.5075893  40.3960371  40.3410435  69.9954128  41.5944719
  35.9330678  51.5060234  46.7995930  36.6968775  52.0396662  47.0188141
  36.2924027  50.6386089  46.6133213  41.9685381   1.1211297  15.1060164
  41.7270964   0.8601090  15.9947276  42.8710811   1.4302632  15.1840389
  40.4347038  56.4932251  11.9379914  40.6938457  56.2394905  11.0521615
  40.7312775  57.3992443  12.0240426  34.8716974  77.1017218  31.0861087
  34.5476055  77.3452425  31.9532275  35.7530069  77.4731731  31.0467935
  79.2915927  15.7075449   4.0501936  79.5656691  16.3685795   4.6859177
  79.1715132  16.1945530   3.2349404  23.9092684  55.0653076  51.8615866
  24.3165827  54.8873520  52.7093220  24.4959402  54.6586084  51.2238979
  36.8476987  71.0529137  12.9534948  36.3464880  71.6472483  13.5118723
  37.3105240  70.4816389  13.5664141  60.2656058  71.8206882  55.7011223
  60.5602649  71.8590307  56.6110325  59.4150284  72.2596931  55.7061052
  10.0260568  36.3930488  61.2014246  10.5429554  36.6418004  61.9676971
   9.4154704  37.1198416  61.0781813  29.6517706  16.9358015  43.1670809
  30.1252770  17.6534557  42.7463770  28.7290049  17.1263266  42.9984522
  24.7699404  55.9284782  26.8797731  24.3618250  56.7607212  26.6409206
  24.8688579  55.9744406  27.8307390  23.5873499   1.2516210  67.0953178
  23.0818739   0.6610486  67.6538467  23.1627073   2.1029660  67.2007275
  28.7191725  46.0549116  28.9717317  29.3135095  46.5862608  28.4419537
  27.8448868  46.2965059  28.6659646  29.6765192  58.2999368   6.9957503
  29.1243942  57.6833769   7.4766262  29.8163230  57.8833433   6.1453732
  20.9172606  64.1591930  61.1867142  20.8051205  64.6307850  62.0121002
  20.8437085  63.2354927  61.4267254  66.4397383  73.7346315  39.0741324
  67.2044182  73.2012796  38.8572550  66.8038511  74.5809603  39.3337059
  46.5347528  79.7178411  33.3054686  47.2120571  80.1659679  33.8121009
  46.9191265  78.8678694  33.0909109  74.2517124  20.6995769   9.0489967
  74.5150219  20.2297445   8.2576950  75.0022267  20.6172128   9.6373566
  81.1703740  55.5470892  10.8186920  81.3572918  54.7366186  10.3449543
  81.0459266  55.2705808  11.7265900  41.3307791   3.6847588  27.5127316
  40.6194096   4.2913720  27.3072910  42.1279543   4.1682813  27.2960353
   3.5431471  19.1672418  68.4173107   4.2972936  18.9339444  67.8759575
   2.7912321  19.0781781  67.8317165  23.4312820  70.6510592  34.8513651
  23.7342691  70.0590611  35.5398226  23.5420609  70.1531076  34.0414238
  56.4732456  67.0606661  29.5177603  56.0618496  67.7032185  30.0957847
  57.4124908  67.1747065  29.6628499  57.5100034   3.6222932  63.1864023
  58.2536786   4.1781136  63.4193134  57.8901070   2.9253480  62.6515961
  34.7947717  80.8649540  57.3366690  34.4019365  80.3741837  58.0585194
  34.9259686  81.7452431  57.6889515  64.4940834  13.7371250  18.3735951
  64.5374451  14.1466041  19.2377003  65.4045801  13.6988111  18.0807503
  25.6269550  47.4156904  22.3348475  25.6265593  48.1202888  22.9827476
  24.7030091  47.2869968  22.1203899  24.3226392  13.3859916  22.4387177
  24.5766075  13.0999704  21.5612610  24.4820459  14.3298240  22.4384792
   7.7776110  58.2385111  45.5386448   8.2879347  59.0468407  45.4896402
   7.8789634  57.8385401  44.6749401  20.4413097  10.2041814  51.9413853
  21.2119322   9.9530312  52.4505997  19.7584330   9.5962140  52.2247458
   3.2222161  71.2820578  33.7732625   3.3471966  70.7958937  32.9582405
   3.2045728  72.2004461  33.5040307  86.5880309  48.2087179  18.1918057
  86.2798630  47.4657770  17.6728638  87.1097313  48.7281938  17.5800713
  74.6305207  64.8001671  68.2255554  75.4384950  64.9345398  67.7302265
  73.9329770  65.0409889  67.6159096  32.7202891  12.2255227  57.4885988
  33.4365105  12.8497121  57.6054382  32.9540532  11.7378327  56.6988277
  22.9761076  67.5256205  58.4663343  22.3230314  68.2041025  58.6377525
  23.5546327  67.5520277  59.2284632  67.3510592   4.9918076  64.2093515
  67.2372668   4.9441812  63.2601357  67.0233887   5.8593080  64.4466305
  56.0358565   0.3719899  70.6207228  56.1725896  -0.4862979  70.2196264
  55.5733364   0.8777139  69.9524736  56.6535501  28.6792942   9.6665390
  57.1899707  29.2753168  10.1892670  57.2864547  28.1196352   9.2165955
  39.6334743  67.3763895   8.1140012  40.1503468  67.9387808   8.6908805
  40.2003193  66.6245842   7.9416317  46.5525389  67.0875835  57.7652025
  47.3732328  67.5636292  57.6384163  46.7648411  66.1809397  57.5434875
  21.5369844  63.1077003  22.6334333  21.2077260  63.5255146  21.8376637
  22.3811436  63.5295200  22.7937269  21.3097293  21.1851402  33.5119351
  20.4857357  20.6981846  33.5238560  21.7139585  20.9926506  34.3579682
  37.5301034   4.2570396   8.3569153  36.6192205   4.5410629   8.2804592
  38.0407579   5.0025364   8.0411633  36.0799265  76.3419437  42.9391289
  35.7314634  75.5967283  43.4284830  36.9650173  76.0736847  42.6923800
  68.9108079  17.3731420  61.0571575  68.5315745  18.2520101  61.0590267
  69.6690052  17.4382112  61.6377878  54.9943876  75.7448435  41.5425825
  55.8350658  75.3256035  41.7262268  54.8232174  75.5452824  40.6221962
  35.3071594  65.1294565  59.3315077  35.2031827  64.1796017  59.3880796
  36.0339236  65.2549267  58.7213421  53.2390308  81.1570740  45.0471210
  52.8228474  80.7221413  44.3029070  54.1382122  81.3155270  44.7597218
   1.7392769   2.4060437  50.4263878   1.4454975   3.2906720  50.6440401
   1.6639223   1.9198415  51.2474632  38.1612301  60.8097029  57.9394245
  38.6912584  60.5514812  57.1853542  38.7840390  61.2161589  58.5420322
  19.6844935  67.9463530  35.2386856  20.1270032  68.7798548  35.0784159
  19.3618155  68.0153799  36.1372089  32.7767348  72.9315948  63.2538700
  32.9305887  73.6928320  62.6943350  31.8456459  72.7382946  63.1446028
  30.0015378  47.0986128  40.8291245  29.1432810  47.5002480  40.9644556
  30.0113750  46.3484907  41.4236450  24.2220974  50.4301691  69.6418858
  24.3062568  49.7389936  68.9850569  25.0702405  50.4436636  70.0853968
  53.3143203  18.4088846   5.0567301  52.4750785  18.6602159   4.6710690
  53.9107255  19.1175314   4.8151692  36.2039709  55.6871033  34.2392826
  36.6957521  55.7747459  33.4227633  35.5850387  54.9765825  34.0710235
  64.7414867  13.2034727  10.7954796  63.8925110  12.7682634  10.8733566
  65.3819756  12.5029083  10.9188088  80.7126818  21.5631862   7.6759203
  80.9383546  22.3451420   8.1797512  81.5543972  21.2212988   7.3744877
  19.0258861  49.5520687  63.0399370  19.4663739  49.0858698  62.3293972
  19.6217597  50.2672768  63.2627344  59.3266460  34.0045830  18.8377197
  58.8021820  34.6251198  18.3316620  60.1937888  34.4070764  18.8856133
  55.9259313  32.9228589  69.6366596  55.6852525  32.9006955  70.5628443
  56.4147513  33.7396237  69.5356989  79.1540536  49.7535038  32.1487188
  79.2427763  49.6964931  33.1000900  79.1141197  48.8427496  31.8568873
  11.2695272  22.3974415  27.1272190  11.0924919  21.5659185  27.5670536
  10.6744773  23.0204721  27.5443276  79.3769012  32.6457782   8.1836994
  78.6627231  32.9854198   7.6444157  78.9386855  32.1760841   8.8933380
  28.7143803  82.2637081  60.0691414  28.2561398  82.2426891  60.9092665
  28.0156183  82.3020172  59.4160748  54.7390699  72.1438694  44.0138626
  54.4390154  72.0662117  43.1082296  54.9967384  71.2548828  44.2578745
  21.1305428  70.6374025  48.9961004  20.6957102  70.8195448  49.8291540
  20.9938216  69.7006798  48.8543415  34.2883062  65.0991678  42.5882149
  35.0460505  65.1311064  42.0042324  34.2806172  65.9546185  43.0176067
  73.9611387  50.1288795  46.5078068  73.6428308  49.2864084  46.1835289
  73.1839895  50.6873751  46.5266562  35.3606462  52.1223450  33.2507467
  36.1791921  51.6275549  33.2133961  34.7344279  51.5864658  32.7640104
  63.5250609   0.8222863  62.4921417  64.2372935   0.1933953  62.3761463
  63.9523738   1.6077897  62.8336477  84.7639754  82.2387409  55.4308033
  85.5832830  81.8731594  55.7644463  84.0812561  81.7952633  55.9342432
  70.1323002   7.1582505  45.4262257  69.3917292   6.5887448  45.6346607
  70.7016962   6.6193864  44.8770142  25.4665852  79.6389627  34.0331078
  25.3247476  78.8844156  33.4614658  26.2249613  79.3973970  34.5648479
  26.1993098  32.6595092  66.8772125  25.4638124  32.9693246  67.4056911
  26.3081503  31.7432857  67.1320105   4.2442012  56.2087488  52.5107813
   3.2890722  56.2352848  52.5678492   4.4358766  56.4287186  51.5991354
  65.7520454  16.1604783  55.8449173  66.5139311  15.7363221  55.4501390
  65.3889387  16.7014405  55.1436710  60.4202209  28.9990087   2.5408848
  59.8304131  28.5215374   1.9574650  59.8379063  29.4753643   3.1326874
  73.3216558   9.5089098   4.1406401  73.8054703   8.7279745   4.4095190
  74.0001903  10.1435276   3.9102419  18.8554914  10.1869150  11.2010296
  18.5539157  10.9321733  10.6815346  18.5639436  10.3821035  12.0916088
  24.9885345  60.8625650  16.8202603  24.1029119  61.2116766  16.7201149
  25.0940776  60.2619600  16.0824490  27.0076132  68.4876633  15.1375711
  27.5112462  68.9195108  15.8275652  27.6689529  68.0871534  14.5732546
  77.3635214  13.0760476  60.2083158  77.2117107  13.8102529  60.8033943
  78.3152979  12.9760835  60.1891899  29.2191291  72.8057575  69.4547796
  29.6982789  71.9968891  69.6347094  29.7107601  73.4835815  69.9185514
  52.0086782   1.1670968  47.9288816  51.4188664   1.9130895  47.8200674
  52.6389091   1.4544198  48.5895491  63.7863105  16.6027734  48.2102251
  63.5824244  16.1297891  49.0170383  63.6104720  17.5201318  48.4194231
  78.6161774  11.6766164  56.4243793  78.0592220  11.2452409  57.0724106
  78.0135792  12.2144219  55.9106970  11.4440527  11.9811818  20.5323482
  11.4550676  11.8894002  19.5796227  11.7237415  12.8830430  20.6893420
  63.0118816  14.0915677   8.7232685  63.8164418  14.0864274   9.2418140
  62.6056760  13.2436749   8.9029902  22.7122869  28.7348077  49.2129564
  23.6208334  28.7698743  49.5121813  22.7582063  28.3081243  48.3573484
  44.6976410  27.3100944   7.5589855  44.2708097  27.6304146   8.3536251
  45.5507599  27.7441355   7.5537594  86.0074966  18.3020970  35.5990529
  85.2481430  18.7976453  35.9057283  85.7644146  17.3856446  35.7304692
  62.6836341  31.5052030  57.0718193  62.2794836  31.4518258  56.2057686
  62.9999369  32.4065301  57.1333885   8.5269125  42.4896665  27.0986756
   8.0544527  42.4999662  26.2662705   9.3854935  42.8585573  26.8913372
  57.9919451  74.1982054   9.8356636  57.0710962  74.1909956  10.0968464
  58.4747236  74.1113685  10.6576260  53.2836573  29.7916982  69.2838383
  53.1624430  30.6204698  68.8205051  54.1076820  29.9009511  69.7584772
  55.4431622  31.5883443  65.0701666  54.8668950  31.9712827  64.4087267
  56.1457460  32.2297570  65.1760054  77.7967947  36.8310544  43.0232096
  77.8978269  36.3834474  43.8632536  77.4864214  36.1510560  42.4252987
  25.1590910  10.4137322  69.6601963  25.1352110  10.2502057  68.7173700
  26.0175790  10.0935456  69.9371481  47.9074097  51.5933275  70.9982157
  47.0795441  51.2169027  70.6996012  47.7964401  51.6966772  71.9433308
  42.8772014  10.5704400  66.5495586  42.5438981  11.2143323  65.9246206
  43.6908810  10.2543733  66.1567974  27.7202892  78.9833641  48.6263275
  28.1299567  78.8608694  49.4827127  27.3494744  78.1269503  48.4135103
  67.6263087  38.8645551  70.2241135  68.0751579  39.6752450  69.9842024
  66.7193978  39.1293714  70.3778028  80.3021257  14.2467401  69.8839092
  79.6124285  14.7861287  69.4971132  80.5727404  14.7282979  70.6656313
  66.6411018  60.0606203  66.6176987  65.8011627  60.1112127  67.0739555
  66.8066883  59.1225100  66.5240717  46.9004154  75.7843828  47.9877377
  47.4102592  75.8859968  48.7914562  47.2438431  76.4569759  47.3995972
   8.0449827  49.2185827  18.3583458   8.5828931  48.8209005  19.0429886
   8.6444981  49.3378587  17.6217468  20.5939348  12.9214664   0.7351645
  20.5969055  12.6537987   1.6541727  19.6850069  13.1648632   0.5595310
  58.8354731  61.3429785  33.1421304  58.1751347  60.6557560  33.2310534
  59.3961525  61.0451412  32.4257755  71.1954992   5.9835050  62.6790333
  70.9008615   5.7629296  61.7954206  71.1947077   5.1486012  63.1471777
  16.0220361  81.4810562   9.8975730  16.4107180  80.6687450   9.5730650
  15.1394463  81.4889526   9.5271611  63.5161322  14.8966119  56.6519308
  63.8240021  14.0036008  56.8068123  64.2905205  15.4433438  56.7847252
  15.4347713  36.2819334   3.3075865  16.1260135  36.6755291   2.7751454
  15.7328565  36.3966079   4.2099293  47.0249753   1.6889474  18.9397609
  47.5720375   1.6394612  19.7236645  47.2771292   0.9236810  18.4230185
  54.7561608  56.9024988   2.4335297  53.8367165  56.6685339   2.3065909
  55.0045775  56.4644953   3.2475765  65.7925797  62.4522448  27.3322058
  66.5491772  61.9825983  27.6832414  65.0438023  62.0856333  27.8024840
  15.9010208  70.4558039  34.2462134  16.1801136  70.7933426  35.0973344
  16.1432099  71.1426353  33.6250520  23.1527185  81.3421822  59.0150356
  23.2753110  80.5935478  59.5987701  22.6105714  81.0039520  58.3023596
  22.0254755  76.2932539  58.0271721  22.3562241  76.4627123  58.9092875
  22.6868677  76.6701460  57.4468803  46.9482660  67.4574184  51.5866423
  46.4473534  66.7898178  51.1180067  46.6161108  67.4204111  52.4836016
  76.9209719  60.8660603  20.6647086  76.4019203  61.5631771  21.0657644
  77.2585583  61.2532139  19.8570132  18.7544973  48.7295385   7.8349169
  18.5820491  49.2273756   8.6340721  19.4145591  49.2438169   7.3700960
   7.0589870  69.5054579  56.2224245   6.6693741  68.8817644  55.6096888
   7.2388631  70.2817249  55.6920576  65.2991693  10.0165555  57.3384857
  64.8298519   9.6120164  58.0680895  65.0015777   9.5356748  56.5662003
  82.9019175  58.6331506   1.2881859  82.3538385  57.8744932   1.4889057
  82.5853024  58.9392229   0.4383047  67.7197831   7.9488751  42.2004461
  68.6198442   7.8923509  41.8796301  67.1822708   7.9409692  41.4084578
   8.7797196   4.9835773  15.9299667   8.0393560   4.3789144  15.8802326
   8.3783562   5.8443876  16.0488709  44.5744896  72.5764799  44.7769785
  44.5880270  73.4765100  45.1025486  45.4739475  72.2682571  44.8874855
  47.6054764  79.8823404  40.8052874  47.1071577  79.6079350  41.5750980
  48.4146452  79.3729162  40.8496809  38.4890842  66.4997101  53.6733294
  38.9107823  65.8127499  54.1895580  38.7518740  67.3153114  54.0998983
  14.1209228  43.8638349   6.6667040  14.7698743  44.5459028   6.8395765
  14.6053655  43.0434366   6.7588528  23.6681366  74.3349504  26.7059565
  23.2309389  73.7912655  27.3613143  24.5997596  74.2536116  26.9101524
   1.3314094  26.0228154  32.3671818   2.2032585  25.6880948  32.1572471
   1.0747184  25.5446336  33.1556535  81.7503851   2.2138402  69.3107176
  81.0476272   2.7588841  69.6646833  81.3133209   1.4074323  69.0370083
  14.4116457  25.5364176  13.0502041  15.0025852  26.0680576  12.5169285
  13.8297708  25.1165100  12.4166973  75.2410603  40.9589577  67.4565506
  75.2308750  41.7897177  66.9811916  74.8987865  40.3206873  66.8306971
  36.0326195  74.3555593  30.9931159  35.4374409  75.1030064  31.0507321
  35.5527115  73.6351919  31.4017606  54.2935610  70.7008266  33.2434106
  54.2635679  70.5835390  34.1929245  53.9488220  69.8808670  32.8897834
  19.8109162  60.5365705  36.4524293  20.1193905  61.3124371  36.9205213
  20.4757214  59.8707104  36.6282082  62.2134416  26.5913865  70.1958895
  62.2947972  27.5440118  70.2419233  62.4836200  26.2858102  71.0618305
  33.8477159  77.0072365  33.8062072  32.9951930  77.2694635  34.1535926
  33.8686323  76.0564995  33.9152527  84.6408050   6.3199994  68.8505983
  84.5017975   5.8008286  68.0585337  85.5177610   6.6886708  68.7444830
  14.4571984  52.2595549  27.9595613  15.4017460  52.2671700  27.8046274
  14.0969598  52.8178930  27.2705650  74.2002886   3.9204499  31.5174723
  75.0651377   3.7064073  31.8674040  74.0044182   3.2070729  30.9100509
  79.8130196  49.5650956  64.5148325  80.5953472  49.9252030  64.9325848
  79.9935692  49.6245191  63.5766983  61.9274282  76.2716913  41.5496778
  61.1153507  75.7727003  41.6378307  62.0393133  76.6990566  42.3988390
  83.3868235  30.7175347  57.4113655  83.2776516  30.4232690  56.5070820
  83.9854830  31.4619252  57.3503876  76.9203816  14.1113277   5.0549849
  77.1512244  13.5502144   5.7953175  77.7279244  14.5830341   4.8510321
  66.9443052  23.5209844  38.4260321  67.3672598  23.5655782  39.2835593
  67.2842090  22.7171895  38.0328345  34.8219781   3.2894704  32.9800057
  34.9817943   2.3615548  32.8077626  33.9295148   3.4406087  32.6687241
  62.6932137  14.1121385  31.8957186  62.5997179  14.2662808  32.8357887
  61.8047564  14.1964910  31.5496492   8.3871467  69.1353365   2.1813400
   8.6386831  69.4597765   1.3166435   8.1655247  68.2154222   2.0368536
  62.6203506  35.6546304  53.8089418  62.7410047  34.7724816  54.1603422
  63.0997723  35.6500718  52.9804707  44.5476866  69.1826630  46.7623854
  44.3818521  69.4595718  47.6635265  45.3711367  68.6968613  46.8087912
  16.1729484   5.3154466  35.1739359  16.0493307   4.7863576  35.9619784
  17.0074003   5.7629010  35.3143311  46.1504514  20.1508995   0.3463371
  45.5607469  20.3870006   1.0623940  45.7703931  20.5708595  -0.4252998
  77.7912436  40.2238603  12.5392254  77.8817628  41.1038824  12.9047306
  78.4949539  40.1591058  11.8935974  39.9676371  67.8222942  71.7858315
  40.4982042  68.2481194  71.1124802  40.3915930  68.0597305  72.6105213
  37.0808244  71.8767452  56.7914057  37.0087862  72.0046854  55.8455324
  36.3734245  71.2684441  57.0053816  71.8100899   0.6771657  59.0747261
  72.1653908  -0.0661662  58.5874414  72.1801155   1.4463899  58.6415911
   2.1975191  74.6111818   1.7607554   1.7309816  74.1612478   1.0563810
   2.9669149  74.0659185   1.9249256  58.7372017  50.0618696  70.8755445
  58.6943722  50.7630014  70.2253056  59.2926359  50.4138851  71.5711069
  56.5028095  81.1917019  68.8112402  55.6121445  81.4165974  69.0802574
  57.0066166  81.9922924  68.9577389  65.0506306  54.3126345  44.3629885
  64.1454697  54.1539049  44.0951777  65.3722095  54.9679232  43.7437820
  70.4469602   4.5536038  44.0915108  71.4012020   4.4884679  44.0539932
  70.1788299   3.8237187  44.6497250  13.0241354  43.9865633  10.5564888
  13.4080322  44.6483179   9.9812229  13.7105949  43.7982031  11.1964329
  21.7690580  10.7887361  18.4528983  21.8268555   9.9375817  18.8869667
  22.4448626  10.7586190  17.7756882  83.2980047  29.3364616  25.3895481
  82.4222885  29.6794840  25.2115448  83.7645851  30.0685306  25.7928093
  47.8025675  54.3642139  32.0538926  48.3740330  55.1279545  32.1336484
  47.7973127  54.1657448  31.1175108   5.1761284  15.0922963  65.0948715
   5.6620874  15.4899594  65.8173275   5.8492365  14.6886060  64.5469713
  64.0607469   4.9470612  57.3879385  64.5403808   4.1322991  57.2384691
  63.4694498   4.7472283  58.1136560  30.6082606  63.2354593  34.7422218
  31.5631270  63.2061720  34.6821904  30.3109717  62.5181818  34.1824317
  46.7886131  13.3501813  26.0023403  47.6453715  13.4274194  25.5825424
  46.8996959  12.6509377  26.6465116  30.2622819  65.2792978  57.4931765
  29.3078184  65.2586555  57.5624895  30.5203390  64.3579817  57.4646521
  59.8150243  29.6724649   7.2761400  60.1140788  29.2490526   8.0808266
  60.4734605  30.3445764   7.1001871  67.8320204  81.2945219   3.5132082
  67.2616552  80.5474611   3.3320578  67.4164174  81.7396398   4.2517050
  45.4733896  65.4600763  26.2559819  45.5797386  64.5188189  26.1182880
  44.6697474  65.5376244  26.7701626  53.4915590  68.4070873  61.7568207
  52.8730440  68.8427591  62.3432159  54.0261173  67.8622818  62.3344660
  65.5610800  69.8304892  46.6129589  65.7181406  69.1503668  47.2679377
  65.1092911  69.3775511  45.9009409   7.2212305   5.0627038  50.6263590
   6.4037599   4.9503324  50.1412344   7.7761354   4.3408105  50.3311062
  53.2489872  80.3856564  39.5115376  53.6044645  80.7166290  38.6867189
  53.9072418  79.7649956  39.8241305  83.7892311   4.7655198  66.6040611
  83.6659210   5.1547238  65.7382965  82.9149454   4.7663209  66.9937515
  54.1081064   0.9718987  56.8380833  54.6446007   1.0862157  56.0536480
  53.2431023   0.7342717  56.5041208  59.3156672  75.2775574  41.1974525
  59.5027351  76.2146139  41.1411572  58.4061909  75.2321863  41.4924574
  81.5480583  25.0813481  57.8837776  82.2363871  24.8093698  57.2767687
  81.2907713  24.2750833  58.3309650  83.8732587  74.1832300  19.0229805
  84.7843729  74.0031858  18.7912758  83.5190092  73.3321806  19.2807682
  56.8009036  21.9167325  53.8376617  57.3692720  21.3479230  54.3569279
  55.9358900  21.8187520  54.2356300  76.0172306  31.3641163   5.1893528
  75.4341398  30.9908005   5.8503159  75.5837498  31.1799141   4.3560513
  50.8231211  70.7264471  30.0632691  51.7686844  70.8213663  30.1778436
  50.6043625  69.9221945  30.5339622  24.9871659  70.5354738  56.8794775
  24.6869421  70.0894022  56.0875702  25.8052087  70.0938845  57.1075964
  85.0624691  53.2564684  39.1536911  85.1878510  52.5245329  39.7576626
  85.2958475  52.9017683  38.2958134  80.6835668   6.9797036  69.4299841
  81.3901918   7.5431344  69.1146183  79.9312609   7.5650784  69.5171452
  18.9981866  78.1422615  67.7170849  18.1190872  78.4018421  67.4413443
  19.2267370  78.7655592  68.4066439   8.6440451  41.6710611   3.6435469
   8.4202797  42.5507494   3.3397205   7.8683837  41.3783880   4.1220101
  53.7488120   9.2571256  58.6214542  54.1850083   9.8239800  57.9853439
  54.3974822   8.5838124  58.8266611  68.6968327  59.9692965  14.9543262
  68.1336498  59.5509672  15.6055236  69.5676088  59.9636889  15.3517473
  65.5640023   7.2935674  65.2226067  66.1234300   7.0979592  65.9742785
  64.6834939   7.0521447  65.5100870  60.3659439  42.2439432  53.8159466
  59.9050951  41.4753962  54.1523790  61.2714005  41.9524860  53.7090015
  39.8282576  78.7198210  54.5301771  39.4878483  78.4714174  55.3896236
  39.0548038  78.7555122  53.9673901  46.5807724  49.7381020  29.8954678
  45.9522820  49.0308380  30.0404072  47.1251774  49.7398233  30.6827736
  83.9798420  40.1115701  69.6223783  83.8876884  40.9463689  69.1631985
  83.6478680  39.4603536  69.0043640  78.4398239  14.5263192  63.1420422
  79.2764252  14.6656892  62.6982975  78.6059778  14.7771546  64.0507269
  51.0920048  59.4767570  43.9833355  51.2537241  59.6800947  43.0620670
  51.9332504  59.1569090  44.3092680  69.4485586   9.6846768  45.1830578
  70.2053373   9.8861882  45.7334232  69.4277256   8.7284562  45.1452494
  17.5639713  48.2637596  51.7684889  17.4048734  49.1590500  51.4695215
  16.6989970  47.9363537  52.0151758  40.6252480  60.8741522  22.8445792
  39.8113203  61.2237263  22.4818778  40.5951977  61.1102962  23.7717056
  73.5979143  80.8890915  53.0155754  73.5051492  81.8079567  52.7639532
  73.3843187  80.4003716  52.2207451  80.0664806  51.6521454  46.4603996
  80.9479809  51.8912601  46.7467976  79.5498800  51.6329145  47.2659969
  65.2215229  62.4770494   9.3994244  64.9178700  62.8106447   8.5551842
  65.6897722  61.6705080   9.1838654  60.0316293  33.3295437   5.9266623
  59.7516687  33.9079042   5.2171858  59.2164953  33.0485817   6.3424118
  76.0355060   8.5216996  33.1709456  75.9908932   7.5799653  33.0054593
  75.3109949   8.8885114  32.6642275  87.8818141  57.5024076   2.3535450
  86.9743620  57.4896761   2.0492466  88.1362568  58.4241243   2.3096188
  32.6909161  77.6493311  63.9175510  33.1409311  77.9093695  64.7213554
  31.8120432  77.4014568  64.2045641  79.4020234  40.2912946  10.3710755
  79.5389257  39.6022745   9.7208889  80.2848421  40.5715414  10.6125839
   8.4748054  73.6377573  68.7537766   9.1392487  73.8313007  69.4150543
   7.9650414  72.9199171  69.1293859   8.9726915  39.5079228  69.3491983
   9.2411747  39.9447343  70.1574993   8.0356588  39.6900746  69.2783689
  60.9352663  63.5247751  39.9075897  61.5036453  63.8860651  39.2274006
  60.0757138  63.9062258  39.7289951  75.2211683  20.2899358  34.5172453
  74.4829910  20.1174638  35.1016974  75.1460665  21.2201974  34.3046331
  33.4786177  73.7588501  51.5143204  32.6422095  73.3270121  51.6880226
  33.6796117  74.2265177  52.3249483  48.9590531  63.6506723   8.3409031
  49.3515389  64.3303155   7.7929266  49.6072262  63.4924053   9.0272339
   2.0066061  14.6362397  58.6110020   2.8290357  14.2434880  58.3184385
   1.9925441  14.4863603  59.5562935  43.0909538  58.7816286  26.5506411
  42.1390533  58.7155962  26.4747834  43.4237432  58.3756876  25.7502079
  22.1617515  12.9241081  10.4948338  22.0140846  13.5530468  11.2011345
  23.0366714  13.1327291  10.1673802  38.3933687  79.6201038  23.8684845
  39.2158604  79.4138622  24.3125582  38.1735277  80.5019379  24.1689491
  74.1254282  81.4439297  56.7600489  74.1149473  80.9299660  57.5674915
  74.6223450  80.9083271  56.1416340  10.8410704  59.4706249  64.9431038
  11.0052109  58.6558390  64.4683266  11.5047085  59.4838142  65.6327724
   9.0418799  18.5732122   2.3396071   9.7668536  18.9605041   2.8301676
   8.2578857  18.8428159   2.8180416  64.3285275  25.5469918  37.8325486
  63.9123487  24.9816227  37.1818662  64.9303675  24.9692988  38.3018994
  51.6114759  75.1197577  53.6324310  51.1091805  75.1554203  52.8183889
  51.6667223  76.0310984  53.9199018  56.1649704  78.3144188  39.0395141
  56.9628716  78.2768774  39.5669341  55.7323456  77.4757051  39.1996241
  60.2661698   3.7489125  39.7466755  59.3155377   3.8467595  39.8010373
  60.4031270   2.8111169  39.6124363  10.1412794  52.3525715  69.9996090
  11.0834619  52.2183418  69.8971081   9.9521753  52.0538998  70.8891392
  81.6103809   3.2569024  53.3091545  81.3784235   3.6967275  54.1270685
  82.1758860   3.8806817  52.8538036  64.7668736   9.5381352  71.6721678
  64.9217646  10.2109334  72.3351812  64.3846553  10.0127789  70.9340239
  75.2782391  39.6551557  31.3749703  75.0777910  39.2104669  32.1985634
  75.2044950  38.9712091  30.7093819  45.4964018  77.1092129  62.5693226
  45.2005529  77.5589228  61.7778254  45.6582260  77.8125429  63.1981087
  63.9795637  72.6154327  39.1212893  63.6968136  72.5871229  40.0353384
  64.9066353  72.8497601  39.1645050  67.1088856   6.7092511  67.7587128
  67.5183862   6.3841531  68.5604906  67.8439730   6.9532010  67.1962452
  46.7982197  70.9089375  45.4019070  46.1720753  70.3850842  45.9016657
  47.5715637  70.9582758  45.9638071  45.5434166  52.3557993  14.2122563
  45.0719224  52.5707193  13.4074314  44.9243079  52.5578352  14.9137695
  30.4807813  32.6448913   6.5978916  29.7489793  32.5908752   7.2125300
  30.2445371  32.0444628   5.8908470  64.9854946  73.8909674  57.1378660
  65.4370213  73.1867123  56.6726971  65.6894827  74.4207144  57.5120354
  17.9517038  41.8510385  13.3308037  18.6567791  41.2990614  13.6690624
  18.3712299  42.3925730  12.6622494  62.6982968  50.0549504  61.1451721
  62.5526064  50.7327077  60.4851341  63.4666841  50.3548428  61.6308498
   3.1469097   8.1998059  64.0385342   3.5789146   7.3748490  64.2600060
   2.2134628   7.9879281  64.0349150  35.2777588  16.6465947  67.6000214
  35.1304614  16.7130277  68.5434818  36.1316424  17.0563790  67.4614811
  59.4129944  63.0226660  27.9212093  59.4549322  63.8288021  28.4356141
  60.3280306  62.8001261  27.7496815  78.1113482  55.3147173  67.0161629
  78.1826019  54.6797276  67.7288628  77.5094223  55.9808350  67.3481464
   7.0958526  22.9228063   4.1523512   7.8156693  22.5060364   3.6786421
   6.4303405  23.0837484   3.4834536  78.9091383  36.2795921  28.6023148
  79.6818362  36.7882057  28.3564003  78.9316235  36.2572332  29.5589932
  63.0129426  15.6183717  64.8759604  62.9008334  16.1463067  64.0854216
  62.8603571  14.7187325  64.5868111  20.0894570  79.1863966  43.7654209
  20.8985758  79.3012381  44.2637873  19.3922889  79.3718433  44.3945456
  25.8907628  67.9236650  31.0777736  26.6701221  68.3320332  31.4546895
  25.9951186  66.9906855  31.2645745   3.3512613  52.4418879  69.5148611
   3.0458376  51.6146517  69.8871946   3.4722444  53.0150747  70.2718639
  54.8182440  39.8824525  16.2916064  55.1634407  40.2706671  15.4876387
  54.0544367  39.3808508  16.0066080  37.4712299  25.7481286  54.0462971
  37.6921754  26.5330884  53.5450315  37.8676575  25.0297162  53.5533953
  63.6798096  45.2307320  46.9171238  63.2756567  45.5679274  46.1176252
  63.7093878  45.9842157  47.5067139  56.0756200   2.9511258  50.2882719
  55.7465427   3.5086247  49.5831966  56.7906754   2.4561688  49.8883343
   7.1288164  35.3643509  20.9266384   6.9275148  34.9678941  20.0789745
   8.0834730  35.4331012  20.9382351  38.4121408   6.3198277  63.0433512
  37.7340498   6.9410607  62.7778387  37.9308023   5.5989644  63.4494400
  27.2574375  22.3996541  28.7024403  28.1488307  22.2184464  29.0004539
  26.7162596  21.7570111  29.1611004  41.1749268  76.9092655  57.4104548
  41.4961481  76.0732365  57.0726681  40.2512503  76.9297123  57.1601868
  59.3857288  78.9627552  66.6960382  60.1134109  79.4473314  66.3063002
  59.2701101  79.3581629  67.5600481  61.4797878  69.5648336  37.0342708
  61.6446877  69.1776609  36.1745358  61.7009640  70.4899025  36.9267631
  73.6898851  56.2926292  61.2695742  74.5478392  56.4053011  61.6787767
  73.8115025  55.5704975  60.6531620  75.3271888  62.5705381  12.1783932
  75.7261739  62.8471800  11.3534554  75.7923375  61.7672010  12.4118813
  51.7724609  63.7827206  54.8880434  50.9780121  63.2697439  55.0361586
  52.3854542  63.4727812  55.5546856   5.3026571  20.7855794  70.2715921
   4.7229948  20.0762841  69.9938917   5.4548921  21.2958142  69.4761610
  59.2824428   1.9832894  59.0491104  59.5649307   1.1103723  58.7762499
  58.3280533   1.9237229  59.0918159  78.8426018  55.0066948  64.4601870
  78.5618544  54.9674034  65.3744459  79.2485285  54.1552353  64.2974854
   6.5962894  26.9033666   3.7733467   5.9197385  27.3413034   4.2897947
   7.0462163  27.6139255   3.3162935  86.7803305   0.9097192  54.5626974
  86.0325306   0.3960130  54.2575312  87.2512405   0.3204629  55.1519728
  24.3397577  62.5410982   2.0176418  24.8189123  62.1676012   2.7573355
  23.4730251  62.1377130   2.0654686  82.3193233  20.3439805  58.6049461
  82.2378939  20.5068109  57.6652193  82.1571415  21.1956880  59.0105486
  51.0762596  68.6054373  44.5375347  51.6460848  67.8379107  44.5868444
  51.0583496  68.8310909  43.6074829  21.8178453   8.5211465  70.9674644
  22.6594343   8.6712453  71.3980818  21.7911901   9.1674230  70.2618837
  83.5227411  10.5626389  39.5653939  82.6362102  10.6028840  39.2066741
  83.8984268  11.4216229  39.3723989  80.3290432   1.9140050  41.8864441
  79.3880957   2.0586678  41.7868328  80.5405109   2.2923371  42.7398968
  11.3358648  73.1296774  11.7956074  10.5860789  73.6529394  12.0788963
  12.0541818  73.4151693  12.3601826  61.1560552   6.6259477  38.9903784
  61.6345208   7.2261998  38.4185386  61.8332403   6.2191579  39.5309067
  65.0283687   2.7375791  68.1964064  64.2851704   2.1752450  67.9780865
  65.7962387   2.2386262  67.9177475  56.1892080  81.2735081  50.8701801
  55.3670359  81.5950775  51.2401199  56.6595459  82.0648575  50.6078863
  74.0841007  45.8804178  61.1863661  74.9265671  45.5273724  60.9002781
  74.2779636  46.7806053  61.4477253  66.5899294  17.6431462  65.8357763
  66.3411968  17.7738473  64.9207449  67.3589294  18.2001111  65.9568501
  47.2514677  72.6226902  32.3616195  47.6617479  71.8646669  32.7779174
  47.8564119  72.8681135  31.6615891  47.6346309  36.5039106  14.8635014
  46.9312294  36.4079185  15.5055626  47.2408397  37.0061298  14.1501053
  55.9909170  12.0217607  29.8653769  55.2584451  12.2359845  30.4431510
  55.6667226  12.2153565  28.9858007  33.9209325  45.8228441   7.2040423
  33.7015970  45.8655973   6.2732895  34.5810373  46.5051790   7.3261507
  30.8095098  66.8063211  59.7051716  31.5007496  66.2674427  60.0899220
  30.5654812  66.3455868  58.9024258  57.5628328  68.2134438  43.5764170
  57.8853321  67.5459671  44.1819811  58.3414030  68.4998703  43.0989027
  56.7082310  69.2678261  53.0240345  55.8828640  69.0602970  52.5859261
  57.3128176  68.5858822  52.7313614  66.0433006  78.3288240  16.7380154
  66.4903641  77.9901600  15.9623384  66.7243052  78.3665276  17.4096143
  37.3163414  74.7031021  57.4462700  36.3726306  74.8563051  57.4928617
  37.3988032  73.7626123  57.2884321  23.3551700  19.8970600   5.2756270
  22.4599369  19.6312185   5.0655754  23.8939722  19.1493793   5.0169857
  65.9759086  19.3844315  38.6207652  65.8016675  19.9262139  37.8511238
  65.3849333  18.6373708  38.5265565  66.5754764  24.0056035  35.2459931
  67.2954886  23.5539433  35.6862402  65.7878726  23.5556981  35.5517769
  61.4025784  54.9943066  39.0795612  60.9002256  55.6515598  39.5611048
  61.7217827  55.4570675  38.3048415  51.8323326  56.3203859  42.1289778
  52.4844122  55.6229401  42.0612192  51.0814571  55.9953308  41.6322327
  24.5219095  72.3812052  41.0952957  24.1418941  73.1858869  41.4478691
  25.0272853  72.0166250  41.8218716  28.1090982  46.7438360  21.8970211
  28.0266769  45.8819624  22.3052033  27.3030002  47.2007032  22.1372708
  71.2180155   8.0058858  69.6852875  71.8114488   7.8515050  68.9502811
  71.0986631   8.9554784  69.7013950  56.2782001  42.8631449  56.2087107
  56.2394333  41.9070339  56.1846685  56.2050533  43.0825424  57.1375513
  22.3481662  51.2160059   0.8309038  21.7782505  50.4478594   0.7938297
  22.2550638  51.6250654  -0.0294678  18.3048381   7.2020528   8.4388489
  18.8033523   7.2428605   9.2549658  18.5629072   6.3701531   8.0418873
  67.5159359  66.6505957  41.6465664  68.4442091  66.8697071  41.5657425
  67.1568298  66.8032026  40.7725048  45.4932928  60.1316690  69.3636322
  44.7310877  60.2932739  68.8076115  46.0624552  59.5737076  68.8335752
  15.7815988  68.7720724   5.3164156  16.4294012  68.4236856   4.7038754
  15.6020172  68.0460020   5.9137400   3.5273018  19.1234014  44.3775272
   3.1556263  19.6429727  45.0903606   4.3418398  19.5731351  44.1528082
  21.9789304   1.7166421  28.8431644  21.7407598   1.3860890  27.9769993
  22.3257913   2.5933454  28.6778998   5.5689557  13.6586996  12.3541458
   5.5485375  13.4933944  13.2967384   4.7237165  14.0656944  12.1639832
  11.2803861  64.1576862  71.7791319  10.9975931  64.9885798  71.3971996
  11.8059751  63.7454844  71.0935116  19.9546249  64.8717733   5.6672819
  20.2996929  65.3258558   6.4360293  19.0314014  64.7227808   5.8714731
  54.6138041  37.6806161  52.9147625  54.7475570  36.7382905  52.8128910
  54.6568482  38.0263993  52.0232391  33.2982547  40.9564157   3.5837467
  33.3372791  40.8756872   4.5367344  34.0163715  40.4083009   3.2673414
  45.3812599   9.5661241  70.9559011  45.3037167  10.4796731  71.2309408
  46.3205814   9.3849719  70.9888601  65.8724664  67.2707716  60.0277948
  65.3173498  67.1861473  59.2526102  65.5719934  66.5766933  60.6144857
  67.3950938  59.4021371  39.4029474  67.4374316  58.4710959  39.6211219
  68.0049304  59.8187902  40.0118256   4.5697257  31.4524102  57.8269053
   3.6414421  31.2277603  57.8905725   5.0275153  30.6637883  58.1180048
  13.9952433  45.9668684  54.9155235  13.7024939  45.9875298  54.0044212
  13.7512851  45.0948238  55.2257681  22.8122878  24.2708135  71.2559557
  22.3580050  24.9291658  71.7817211  22.5884247  24.4903564  70.3515673
   8.3373040  17.7718604  53.3986044   7.4087328  17.9683614  53.5226011
   8.5861272  18.2716084  52.6210642  18.6676776  13.8048947  48.9565849
  19.2720330  14.2105806  49.5781994  18.7010086  12.8711939  49.1647291
   4.3924361   5.1872426  50.3517723   4.0510404   4.4908550  49.7907686
   3.8767239   5.1217973  51.1555052  39.1093741  54.3678048  21.2789154
  39.8658214  54.5377424  20.7175398  38.9078484  53.4430674  21.1358190
   9.8033977  22.9912281  11.2332082   9.4582999  22.1618462  11.5637624
   9.1660571  23.2709503  10.5761051  86.8266827  17.4211061  48.1344891
  87.2524029  18.0910659  47.5995636  86.9042723  17.7458704  49.0315628
  31.2688494  20.6342411   3.5068169  31.3423800  20.7608700   2.5608835
  30.4707050  20.1176739   3.6179876  66.9151101  57.5922683  43.2170630
  67.5632993  58.1844190  42.8356981  67.2461740  57.4089554  44.0962791
  23.4945487  60.1987933  21.9807919  23.8380890  60.9465693  21.4918717
  23.8561075  59.4336497  21.5335091  53.7769986  67.6625648  32.3692513
  53.0943702  67.3520604  31.7744088  53.9352755  66.9247559  32.9581642
  57.7991039  48.6188891  49.7301149  58.0791129  47.9433468  50.3477430
  56.9188401  48.3516195  49.4656658  25.3704929  21.1909103  55.1484585
  24.5781326  20.7281446  54.8759794  25.0891566  22.0980859  55.2672625
  30.5487338  61.9734525   9.6955212  31.0356789  61.4322161   9.0740879
  31.2209333  62.4853944  10.1452931  33.7594342  29.6991777  64.7735882
  33.3821988  28.9412189  65.2201557  33.0311203  30.3145766  64.6894789
  21.4680624  13.6623442  36.3791966  22.1368670  14.1210592  36.8876410
  21.2788653  14.2495799  35.6473565  41.1995230  79.8227712  41.0743570
  42.1017752  79.5898589  40.8554363  41.2441466  80.7459502  41.3233185
  72.4671725  11.3010180  68.0753279  71.7809323  11.9158781  68.3346605
  71.9935384  10.5184674  67.7933407  71.1537729  63.7165490  56.3593531
  71.7170487  64.4860437  56.4420033  71.6833279  62.9946139  56.6979027
  82.4773625  37.8627539   3.4705219  82.4142483  37.1904731   2.7920765
  82.0335892  38.6235952   3.0957988  58.9899615   1.6558084  37.9169679
  58.4639433   2.4129224  37.6594520  58.3517173   1.0187344  38.2379246
  76.1069468  19.6927524  20.6626725  76.7326740  20.1721811  21.2056684
  75.2600971  19.8446763  21.0821915  72.2598782  31.4667010  35.4952192
  72.6712337  31.3917923  36.3562679  72.9663399  31.2844372  34.8756027
  68.7183359   7.1815258  28.0996871  68.9616898   6.5329391  27.4391222
  68.4479752   6.6622704  28.8569927  10.8585095  21.9736934  22.1700287
  10.8332491  21.3471913  22.8932786  11.1105955  21.4508224  21.4089179
  18.6182487   5.1060909  62.6789188  18.6160409   4.1488937  62.6787043
  17.7176082   5.3477293  62.4628448  15.5281031   3.7469420  13.0848479
  15.6439018   3.9810348  14.0057302  16.0581028   4.3849468  12.6070595
  42.8125075   0.7015502  22.0892692  43.7686041   0.6578257  22.0751548
  42.5768164   0.4989285  22.9946017  57.9155581  78.8013959  35.1963711
  57.4177230  78.0754593  34.8203301  58.5882312  78.9942223  34.5432568
  10.4009371  68.4426330  12.0682438   9.4486707  68.4736894  11.9762715
  10.6496745  67.5951170  11.6993530  10.7416105  29.8174405  42.7045012
  10.4054332  28.9317060  42.8412151   9.9595976  30.3516245  42.5654459
  14.9762619   8.0987364  70.8184195  14.7607601   7.5746715  71.5898752
  14.9643958   9.0029705  71.1321878  16.9609261   9.1036403  43.0961990
  17.2008908   9.5151901  43.9264250  17.5616097   8.3629739  43.0135918
  18.3105235  67.2749280   9.8339947  18.6514156  66.4152216   9.5871552
  19.0643697  67.8606271   9.7639568  34.6335101  12.8860795  52.3378563
  33.7317944  13.0871665  52.5882578  34.7003007  11.9353187  52.4263096
  63.5457590  23.8813639  41.6464615  62.6691631  24.0688968  41.3108397
  63.8343361  23.1165338  41.1484766  83.5296807  10.2903891  62.9405594
  82.7374891   9.9337423  63.3423901  83.2654652  11.1496413  62.6117611
  64.8888574  21.7498067  71.5237331  64.0877382  22.2185710  71.2898540
  64.9584101  21.0536578  70.8704567  15.9283042  38.7798715  21.2189865
  16.5451324  39.3096471  20.7139206  15.1974285  39.3708253  21.4001656
  11.1954725  13.9084160  63.3947182  10.4118764  13.7679839  63.9262152
  11.1307287  14.8195755  63.1086636   5.4680115   2.7119416  35.0139952
   4.8246717   2.1529485  35.4497409   6.2116987   2.7355680  35.6161618
  70.1991246  81.5595393  56.9107914  71.1275659  81.4028288  57.0830441
  70.0711475  81.2710208  56.0071278  83.0320272  29.9546695  37.5884151
  83.6100403  30.4446530  38.1732631  82.1552351  30.0939274  37.9462886
  49.4677202  77.4683097  13.9724135  49.2499242  76.9479504  14.7457337
  48.8283990  77.1973494  13.3135664  19.3263662  13.2058501  38.1890821
  19.4506717  13.5138786  39.0867996  20.1902151  12.8919065  37.9218054
  80.6829295  79.1399607  33.3062005  80.4736028  78.3077249  33.7302279
  80.9675083  79.7084516  34.0217876  12.6060569  14.9621630  27.5928307
  13.2156110  15.6963956  27.6675248  13.0912828  14.2121100  27.9366422
  41.2698477  59.0701746  12.4542244  42.2202533  59.1630076  12.3883351
  41.0041933  59.7554945  13.0674084  74.8594752  32.4134445  18.2117629
  75.5486575  32.1974397  18.8399363  75.1645103  32.0414591  17.3842275
  11.3667090  71.7715862  61.7586231  11.1109621  71.9567302  60.8549929
  10.7758267  71.0715297  62.0361328  67.8859035  76.1004618  63.9664745
  67.2112314  76.5868339  64.4402838  68.2761798  76.7452618  63.3764362
  85.8875939  33.2496762  31.1615801  86.4808656  33.9827871  30.9978509
  86.0662709  32.6336718  30.4510546   0.1554975   8.7266326  21.4150953
   0.9726167   8.2357830  21.3278341   0.3881996   9.4861382  21.9491673
  58.2418421  39.8715377  53.7048435  58.0983618  38.9724422  53.4094286
  57.5325826  40.0354958  54.3263769   1.8744817  10.0994837  53.4574223
   2.6664233  10.5973566  53.6603594   1.6182265  10.4017675  52.5861073
  53.8735879  76.9196597  23.0457163  53.4663848  76.4625183  23.7815428
  54.8141343  76.8170986  23.1909251  65.8769181   4.7908723  18.6226046
  66.4601925   4.6452796  17.8777385  65.5519632   5.6830502  18.5015464
  26.1494603  41.0083780  17.8445633  27.0535003  41.2978141  17.7213963
  26.1950683  40.3807651  18.5658463  20.6172657  20.7869577  26.5059400
  21.0675240  20.5732942  25.6887221  21.1935735  21.4163923  26.9394350
  42.2939298  69.2132845  48.9171505  41.7970369  68.8919464  49.6695280
  43.2057009  69.1981748  49.2081451   6.8562704  32.7211452  69.0371275
   7.5884777  33.1218147  69.5057058   6.7459625  33.2637072  68.2563019
  50.5282549  67.7399698  55.3342295  50.4151694  66.8371847  55.6315899
  50.6259690  67.6689175  54.3846846  55.1746241  76.9348112  61.9249249
  54.8196841  77.4928281  62.6169252  54.6582080  77.1564183  61.1500454
  57.4733441  76.1725023  58.9781141  57.2499868  75.2777573  59.2345810
  58.1597612  76.0684940  58.3191395  13.1274402  23.7694931  67.8008175
  12.4008501  24.3871880  67.8829956  13.5417402  23.7708831  68.6637115
  17.5138450  17.4386084  37.7115083  16.7744339  17.8501618  37.2641540
  18.0881679  17.1447515  37.0043802  26.2459302  27.3457050  52.2790623
  27.1742320  27.5767469  52.2457647  25.9031940  27.8379965  53.0249929
  78.5512355  25.6873083   9.2779511  78.5407594  26.4269090   8.6704046
  78.4881678  26.0884619  10.1447427  66.4249447   6.0984451  43.7445068
  65.7582048   5.9586966  43.0720758  67.1074250   6.6044503  43.3035851
  15.9235036  13.3468032  39.4495320  16.8666434  13.3617985  39.2867565
  15.8287978  12.8524518  40.2637053  77.1247950  34.9222541  36.9932890
  77.8504530  35.2215481  36.4454961  76.8159917  34.1232276  36.5661764
  60.1004045  32.6293336   1.3998373  59.4784110  32.3815494   0.7157620
  59.8232620  33.5048460   1.6698416  78.3282349  57.1128204  31.6096807
  77.5952230  57.7239588  31.6833901  78.0855058  56.5336826  30.8872437
   8.3204609  13.5153866  31.4139438   8.2083648  14.3018329  31.9479561
   8.7829703  12.9020321  31.9850087  81.0092929  46.3379955  12.7035344
  81.1201015  46.9225645  11.9537151  81.2242535  45.4693079  12.3638153
   6.2237537  13.6085808  43.1693697   5.3343189  13.5853565  43.5223579
   6.2935233  12.8119767  42.6432705   7.2924185  14.1937971  70.5747223
   6.6662621  13.5451198  70.2532005   7.6445794  14.5998716  69.7826910
  80.1906946  21.1674571  48.0737495  79.7335556  21.7284560  47.4472237
  79.4913611  20.7565260  48.5819817  68.4309343   3.0247244  68.4483480
  68.6324266   2.4276653  69.1688728  68.1757894   2.4508607  67.7259827
  79.9769364  77.1528080  19.3128669  80.8475933  77.4718758  19.5503259
  80.0969110  76.2141564  19.1687441   0.4403880  17.8483462  54.6958160
   0.9616776  18.1488490  53.9513826   0.9861694  17.1850777  55.1182270
  80.9550032   0.2370313  67.4692822  80.8814988   0.9175518  66.8001604
  80.0632265  -0.0952899  67.5718927  82.4700996   7.3321074  45.1023769
  81.6160587   6.9542378  45.3122807  82.9832026   7.2239757  45.9031677
   5.7531483   0.3500606  71.0370618   5.5328900   0.4630710  71.9616952
   5.9227950  -0.5873870  70.9440998  75.7652846  26.5630579  47.6357746
  76.5378955  26.5130067  48.1986237  75.4167798  27.4419832  47.7849960
  87.6475285  14.2349172  61.2392759  87.2069374  14.9822891  60.8348656
  86.9364585  13.6474514  61.4951944  83.2081395   1.3859373  58.8416243
  83.7016928   1.7103946  58.0883884  82.7544639   2.1574315  59.1810417
  10.2839565   2.4286647  28.6052299  10.0067306   2.7974167  27.7665401
  10.2827621   3.1734824  29.2064595  83.5708016  18.3395445  27.9291344
  83.9454681  17.6578951  28.4869981  84.1845685  18.4153056  27.1985292
  28.5466552  24.4001102  38.4146762  29.2304015  24.7036219  37.8175116
  28.7902951  23.4971881  38.6186385  16.4990967  78.5010766  12.6277264
  17.0613234  79.0583729  13.1658276  16.6607767  78.7928747  11.7305382
   7.7840859  31.3198948  16.8579483   8.2544303  30.7600522  16.2402225
   7.1830690  31.8268299  16.3120306  16.7717409  32.6123166  33.9366126
  17.5325346  32.0372891  34.0188718  16.6867316  33.0217147  34.7976589
  11.0129912  74.5565382  41.8789768  11.7636950  75.1431593  41.7865181
  11.3232214  73.8598928  42.4574852  57.2594979  10.1792085  64.8009920
  56.3115481  10.3054202  64.8421478  57.4027756   9.7061706  63.9812708
  59.3735483  44.1713715  64.3712616  59.1296437  45.0287485  64.0224791
  59.4756559  43.6180162  63.5969257  43.3000868  37.5311883   0.6857975
  42.9354148  37.6367610   1.5644892  43.6465304  38.3956926   0.4647978
  74.1197310  56.9416836  39.1647196  74.1015110  57.7631763  38.6737514
  75.0180314  56.8761876  39.4887519   7.3829359  24.8868179  29.4669199
   6.4311284  24.9638510  29.5329499   7.6369840  25.5758762  28.8530087
  65.7453063   2.6918995  11.4649928  65.2820686   2.5622374  12.2925377
  66.1333373   1.8385479  11.2714601  20.6816106  35.5739145  25.5369957
  20.7704615  36.1804878  26.2721165  21.1632138  34.7933810  25.8109673
  72.6644448  24.9047327  36.7116380  72.5767925  24.0238714  37.0758271
  73.5911897  25.1179266  36.8208289   1.6108111   5.3183037  46.1479330
   2.1003076   4.4970542  46.1945629   2.0178126   5.8776176  46.8095636
  12.9022384  17.7866089  33.3527446  13.6852121  17.4155426  33.7595510
  13.2212210  18.5502803  32.8718185  16.6097736  26.7700696  16.5074885
  15.8075476  26.2496781  16.5505946  16.8001187  26.8396997  15.5719924
  75.0286546  13.6002135  70.5488491  74.3826416  13.9910221  69.9604893
  75.0116614  14.1571879  71.3271284   8.6192167  55.3524065  39.3180323
   7.6812059  55.1766539  39.2440295   8.7519753  55.5587196  40.2432585
  44.6122673  19.5854306  38.2423043  43.9633873  20.0606847  37.7233410
  45.0485304  19.0112889  37.6128054  78.4589955  42.6178741  58.1441545
  79.2393228  42.1185684  58.3850145  78.5183093  42.7110720  57.1933508
  26.9973872  77.2608494   1.5919598  27.3872372  76.7871569   2.3267134
  26.0923260  77.4176477   1.8612393  69.1101363   7.6901913  33.6245084
  69.3563822   8.5462368  33.9749074  69.7803608   7.0933366  33.9573693
  16.6722441  15.3352022  47.8092194  16.2042809  15.8092010  48.4966516
  17.4009860  14.9122715  48.2634163  43.5595369   9.5666069  54.8850584
  43.5954809  10.4883611  54.6295023  44.4582653   9.2540193  54.7811222
  49.5790911   7.5180006  60.2635145  50.0963068   7.5548792  61.0681009
  50.2294779   7.4830920  59.5620775  70.7215915  82.4848380  52.0585203
  70.1950703  83.2177414  52.3776722  71.6123114  82.8322239  52.0119047
  57.7660649  49.4215487   6.2701519  57.7063601  48.6191397   5.7516821
  58.4695070  49.9220418   5.8567436  81.3605234  40.4793262  31.2197304
  81.7776105  41.1047745  30.6272054  80.5032286  40.8617592  31.4068723
  28.3983016  19.9568176  45.3087997  27.4960065  19.7467554  45.0680304
  28.5266590  19.5274210  46.1545992  34.5452452   3.3224654  43.0882931
  34.4863248   2.4610054  43.5013914  34.8077464   3.9103153  43.7966442
  74.6932212  12.8335071  50.9612560  74.1911343  13.5391986  50.5536509
  74.1264239  12.0652890  50.8918667  13.4411538  33.1012607  60.0515223
  13.1768000  32.6246595  60.8384132  14.2751658  32.7045035  59.8000479
  10.5134654  78.3843994  20.5668759  10.2646089  77.5675726  20.1343346
   9.7096515  78.9040041  20.5781317  35.0306361  23.6717509  25.1279839
  34.4972949  22.8787850  25.1826199  35.7694983  23.5042261  25.7130058
  62.4720195  16.8632913  21.7882609  62.0152834  17.5345886  21.2813258
  62.3157170  17.1048403  22.7011991  78.0534993  73.1776306  24.0607405
  77.4517010  72.8352359  23.3998036  78.9161167  72.8714231  23.7808084
  80.5243608  38.6603451  36.2106681  80.2797607  39.5776987  36.3325882
  81.4463058  38.6224198  36.4652491  28.5454971  76.3683811  25.7786942
  28.0150778  76.3395139  26.5749693  28.0500252  75.8531800  25.1420546
  25.1818490  45.2862835  32.1688056  25.0097084  45.5824661  31.2750053
  25.2906203  46.0933733  32.6718044  17.9252022  61.0627114   8.2776459
  17.7551215  62.0042084   8.3074768  18.8797312  60.9919571   8.2676132
   1.0928912  43.2148647  36.6432047   1.5093917  43.0906868  35.7903624
   0.5438942  42.4390316  36.7568731  64.4744019  75.5180469  43.2621145
  65.1765601  75.6682637  43.8950777  63.7078957  75.3151980  43.7983561
  62.7339237  69.4839357  18.9538582  62.9115479  70.4214906  18.8785656
  63.1705397  69.0957950  18.1956013  69.6693025  82.0841525  31.4788365
  70.2167509  82.7173649  31.9431353  70.2197514  81.7731884  30.7601285
   4.5360756  21.3846493  55.1057911   3.6651316  21.3343525  54.7118855
   5.1371944  21.2158871  54.3802500  57.8803969   3.9703222  29.0392216
  57.8800885   3.8741060  28.0868633  58.0141948   4.9068018  29.1852863
  22.6928323  43.9972478  14.0650566  22.2956943  44.4231336  13.3053597
  23.4366982  43.5131181  13.7065704   7.7765524  14.8455453  46.1063337
   7.7243978  14.4470370  46.9750690   7.9229563  14.1086674  45.5131960
  12.6939523  30.8058023  15.0457239  12.4886084  31.4536691  14.3716812
  13.4615266  30.3441024  14.7082412  54.8865271  16.1763716  27.7074599
  53.9630795  16.2734842  27.4749875  55.2318096  15.5578279  27.0637059
  42.7072573  11.2057698  37.1220374  43.4500265  10.6381249  36.9163561
  42.3942852  11.5089405  36.2697649  49.4657660  42.3419762   6.4333338
  50.3262377  42.7537298   6.3540906  49.2419624  42.4311686   7.3597181
  56.9093216  81.3114321  61.0066509  57.2938686  80.4612037  60.7934189
  55.9843318  81.2200592  60.7780123  73.9406917  81.8813697  34.8214769
  73.0258832  81.6402094  34.9670768  74.4203041  81.0561259  34.8934269
  33.4319210   5.1132905  45.6674194  34.2358017   5.4389966  45.2625465
  33.0746651   5.8696240  46.1327791  61.4542598  81.3285442  66.2062311
  62.0140682  80.8431627  66.8122482  61.8115599  82.2165533  66.2091064
   0.7753956  51.3083696  42.5563049   1.3346715  51.6089773  41.8400097
  -0.1149519  51.4996290  42.2614622  16.4050705  64.4405821  24.7725654
  15.9219486  64.2654613  23.9650035  15.8774359  65.0951245  25.2301764
  20.7902789  11.7211580  44.7414351  20.4860473  11.2414289  45.5118465
  21.0344553  12.5835955  45.0773096   4.0914896  15.2753508   9.3834269
   4.6032438  15.9069645   8.8780522   4.6515447  14.5008981   9.4362921
  62.2646740  52.2155905  59.1166830  62.1780685  53.0848455  59.5079947
  62.7118424  52.3709202  58.2847309  66.6725567  28.5914707  27.8709221
  65.9945110  29.2354846  28.0752063  67.1163276  28.4381104  28.7050557
  10.6162739  47.6650476  23.4571648   9.8007882  47.3217392  23.8223433
  11.1808801  47.8010607  24.2180538  77.2170237  32.8980064  67.8633738
  77.3605040  32.0425868  68.2682228  76.2651518  32.9968166  67.8432178
  43.0263710  10.3021300  50.6006718  42.6849127   9.7618836  49.8880911
  42.2743893  10.4430544  51.1759043  69.7765270  21.8569493  24.2151570
  70.1087657  22.5904894  23.6976933  70.5513373  21.4993834  24.6487999
  68.1554607  38.9218807   3.5569948  68.3200029  39.0278912   2.6200211
  67.8039554  38.0354023   3.6396509  72.2849467  35.3857732  17.4724615
  72.2896186  34.9468660  16.6218317  72.7186802  34.7693110  18.0624449
  63.9840238  43.4021952  17.0257385  63.8791292  42.5546367  16.5934475
  63.2623427  43.4419252  17.6532944  37.9097700  30.7287312  60.3613520
  38.0046153  30.2991414  59.5112419  36.9823456  30.9604764  60.4104519
  16.1270165  43.9414454  30.5531454  16.9459403  44.2721319  30.1840329
  15.9780407  43.1114721  30.1001716  34.4744443  53.7506651   3.2839544
  33.9936962  54.1540312   4.0067347  35.2432828  54.3086778   3.1667336
  18.4996986  41.4256859   7.2658771  18.2320178  42.1224499   7.8651249
  17.7829087  41.3643169   6.6344678  55.1006889  16.3755822  56.1511946
  55.7344770  17.0890582  56.2253761  54.5546675  16.6170740  55.4030132
  43.8343477  15.2706659  38.2733607  44.4410753  14.5509219  38.4468102
  43.4057283  15.0299537  37.4520373  10.9310222  54.8092985  56.0492468
  10.6448948  54.9754190  56.9474506  10.1567638  54.9855757  55.5147552
  45.8210897  21.5274119  59.1238022  44.9443340  21.7190099  59.4566965
  46.3128614  22.3364544  59.2646599  64.9246958  35.0889945  39.9672103
  64.0226773  35.3578687  39.7931409  65.0849345  34.3746614  39.3505383
   7.7402645  29.9860406  58.7422800   6.8404162  29.8986864  59.0567207
   8.2519668  30.1727271  59.5293903  11.3891935  30.5411530  70.1999664
  12.3159969  30.4177976  69.9948978  11.2863314  30.1700544  71.0762882
  75.8934441  45.2024651  33.0779934  75.6010035  45.2742290  33.9865971
  76.2367204  44.3118000  33.0065036  36.3689566  28.1728172  12.3155069
  36.4366794  28.2878184  13.2633567  35.4504204  28.3549714  12.1171582
  27.4485046  51.8992518  29.0599449  26.6989698  51.3544767  28.8198383
  27.4935157  52.5619339  28.3706959  -0.0706717  16.7646658  36.8135500
   0.8862292  16.7783213  36.7938995  -0.3238660  17.6875246  36.7921877
   1.8029444  37.6374149  26.2821221   2.4084555  38.3712912  26.1771679
   2.3548450  36.9111419  26.5722322  40.2836609   5.8718264  40.5563116
  39.4365191   6.2557828  40.3301239  40.6235552   5.5360371  39.7268820
  36.7119002  17.0676589   0.5003052  36.1729360  16.4036644   0.0703507
  36.0810971  17.6836133   0.8730219  81.6865175  47.2129153   5.6773003
  81.8044823  46.4291881   5.1405628  82.1050423  46.9976144   6.5107973
  31.2692738  38.4614921  60.3363228  31.6089678  37.8414750  60.9816265
  32.0362616  38.7191868  59.8248959  78.4403202  17.9087389  53.0459213
  77.5069419  18.0505109  53.2038355  78.6205217  17.0505512  53.4296799
   3.9258838  28.3538866  55.2427626   4.0018883  29.2974639  55.1009369
   3.3468404  28.0523419  54.5427561  23.1046557  11.9497204  61.8884754
  23.7081194  11.4611816  62.4482870  23.4621334  12.8374338  61.8682861
  75.3348950  20.1036596  38.9823318  75.2983096  19.1583157  39.1279960
  75.3618375  20.4806399  39.8617601   7.0510256  38.8104653  21.8483067
   6.4753199  38.1344628  22.2058177   6.8060225  39.6071553  22.3189354
  59.9380240  74.2616478  37.6287556  60.8642943  74.2223373  37.8668928
  59.6366683  75.1008907  37.9767323  88.1744643  10.7259429  26.9456434
  88.4695038  11.4675963  27.4739742  87.3093749  10.5120444  27.2950697
  10.0255823  46.3994741  45.9280539   9.6644640  46.0574865  45.1102114
   9.3049854  46.8924475  46.3204193   1.8580353  31.1976314  56.9114161
   1.7740726  32.0927191  57.2400475   1.0192554  31.0189056  56.4862823
  19.8827016  24.8177028  49.7457361  20.2207470  24.3039560  49.0122366
  19.7656250  25.6977630  49.3879366  56.4258744   1.1772962   1.5145929
  56.1648990   1.2907501   0.6006725  55.8932201   1.8102546   1.9961270
  12.3234808  45.1753902  62.5941849  12.0319915  45.2710867  63.5008860
  13.2712436  45.3038883  62.6324606  67.2268942  22.5222325  23.7142396
  68.1655088  22.3364997  23.7413836  67.1603397  23.4520364  23.9316535
  77.4014524  10.3113925  58.4607744  77.1894315   9.3937612  58.6317444
  77.3081473  10.7411921  59.3109465  81.7376259  13.3878767  42.0479774
  82.6114068  13.4752417  42.4289036  81.2906811  14.2004681  42.2849751
  62.2222614  27.6436949  24.7221923  61.8959141  26.8605685  25.1654100
  63.1564283  27.4764705  24.5972896  45.5304187  61.4774727   2.7090891
  46.2885337  60.9165262   2.8729017  45.0660901  61.0487090   1.9902094
  23.5808611  48.1150150  59.0651560  23.3323646  47.7197027  58.2295656
  24.5349455  48.1807327  59.0247011  68.2744053  55.5505991  24.6663046
  68.3565024  55.7309103  25.6027770  67.3545626  55.7264042  24.4682789
  29.7962809   9.6151787  42.0357513  30.3199005  10.0103033  42.7328396
  30.4320145   9.1465175  41.4949846  72.4032090  82.0323351   3.5295007
  71.7639850  82.3757861   4.1537324  72.4367116  82.6899176   2.8347382
  81.8884507  48.8339710  41.8685532  82.2295651  49.0024614  42.7468920
  80.9481511  48.7088919  41.9967079  70.8094481  42.5345612  37.6270270
  71.4628211  42.6474380  38.3173847  71.3222209  42.4543524  36.8227482
  83.3956567  13.3900702  36.9627309  82.4498662  13.4410083  36.8244648
  83.7690207  13.4320223  36.0823488  82.7615604  51.4749241  25.3577161
  82.9598972  51.6050291  26.2850595  82.5448409  50.5452442  25.2872777
  11.8360698  29.5113850  49.3414736  11.8046772  28.5547185  49.3354559
  11.8579698  29.7444725  50.2696037  68.8860646  73.1898689  44.8885155
  68.3397046  72.8810787  44.1657591  69.6440783  73.5894966  44.4619656
  16.8318021  27.6835322  49.7936726  16.1456370  27.5705624  49.1359091
  16.4172769  28.1980109  50.4862833  79.7612014  44.7627544  48.6096478
  80.0123361  45.6625509  48.4010029  80.4975972  44.4198418  49.1159678
  14.9408281  56.1810732  19.7804272  14.4489253  55.7997799  20.5076694
  14.6197534  57.0807695  19.7197175  81.1358020  38.5066438  27.1499777
  81.0936895  39.4298100  26.9005299  81.7024842  38.4925652  27.9212761
  27.7398467  37.4107409  29.8726368  28.0832553  37.4131703  30.7661104
  27.1514821  38.1650639  29.8401308  17.5571334  46.8528366  26.8366790
  17.0372164  47.5362349  26.4137363  18.0696428  47.3169374  27.4986267
  83.1422040  59.3736076  26.1645961  82.2093979  59.4086123  26.3764429
  83.5323492  60.0765181  26.6841483  37.9571176  32.6689959  26.3946581
  38.3415771  32.0314026  26.9962358  37.9668117  32.2312903  25.5434513
  76.8870989  18.0838072  60.0737858  77.4760297  18.3596516  59.3714285
  76.1170891  17.7411950  59.6199846  85.9273383  21.5560222  34.5101452
  86.6459349  21.4297724  33.8905382  85.3267512  22.1517587  34.0622330
  68.0020622  20.3137326  26.0495687  68.0391458  20.8699989  26.8276572
  68.2366255  20.8963418  25.3272271  57.8872398  30.7518291  11.1887622
  57.2596195  31.3939214  10.8570349  58.4903029  31.2630439  11.7283952
  35.1093125  33.4401846  32.2023606  35.6207561  32.7337456  31.8078995
  34.7181582  33.8972545  31.4578366  21.3959169  37.3330235  64.7341394
  22.2778797  36.9674969  64.6651363  21.2756324  37.8235030  63.9209986
  34.2586153  71.2370538   2.9313858  33.9268594  71.2075328   2.0340021
  34.9605351  70.5864857   2.9487713  87.4366610  55.1054621  17.1164441
  88.3899053  55.1594877  17.1845484  87.1428496  54.9213076  18.0086279
  17.3243189  55.3555870  47.0989275  18.1773508  55.7301092  47.3187065
  17.1231818  55.7098627  46.2327480  53.9541047  59.8980390   4.8411329
  53.8119882  60.6886672   5.3616532  54.2440884  59.2425321   5.4755266
  37.7369928  39.0196991  20.1661801  38.6270475  39.2488217  19.8987103
  37.4562812  38.3641672  19.5276570  74.2555588  27.6052843   8.5111912
  74.5978182  26.7296516   8.6910732  74.9244755  28.1987213   8.8526734
  39.0230966  17.7785647  16.8496478  38.2419348  17.3113656  17.1458626
  39.0356469  18.5800207  17.3728514  12.6371801  51.1878586  44.4288158
  13.5824406  51.3206148  44.5001602  12.3340726  51.9128656  43.8822556
  10.5656540  49.9787045  45.7286024   9.8214465  49.5122862  45.3480244
  11.1323678  50.1747656  44.9825287   6.6046333  62.0341873  39.8323822
   7.1065104  62.0188999  39.0174484   7.1663213  61.5905666  40.4679441
  19.9454570  27.9955006  57.6316118  19.6560776  28.8909507  57.4565172
  19.1969502  27.5816083  58.0613375  33.3423710  20.4197741  50.1289845
  32.7308536  20.9129906  50.6758070  33.2521057  20.8079195  49.2586803
  14.5614321  65.9101501  42.2938681  13.8304503  66.3296202  41.8400621
  15.1964266  65.7223764  41.6026688  43.3153057  20.4663277  33.0765676
  43.7625074  19.6206391  33.0441260  43.8991499  21.0265422  33.5879564
  22.6146007  29.3850541  36.4206767  22.5549078  29.2594981  37.3677254
  23.2280660  28.7111235  36.1279154  60.0718355  13.3993864  22.5187135
  59.3241787  13.0238533  22.0537233  59.7125006  14.1601968  22.9750872
  19.6386433   5.2966124  51.4370775  19.9879980   5.4678935  52.3116302
  20.3890657   4.9733624  50.9384680  72.6996961  57.5069332  46.8389988
  72.9120687  56.7461920  46.2982512  72.1527675  58.0553818  46.2765932
  86.4808665   2.5492373  26.7018771  86.1996240   3.4059933  26.3807797
  86.7453283   2.7080604  27.6080036  14.2315125  58.4504938  55.6213713
  14.3255901  58.2824516  54.6837425  15.0631344  58.1658506  56.0003376
  33.9546442  34.1749477  29.4406748  33.6609292  33.4523726  28.8858342
  33.2349253  34.3117404  30.0567293  16.0475695  40.7160473  52.2532606
  16.8092847  40.4662752  51.7301559  16.4177692  41.1290693  53.0333853
   1.1649065  50.1371861  39.6624780   2.0184192  50.1400042  40.0957680
   0.6599721  49.4734716  40.1323223  86.7896593  33.4254432  27.5869846
  87.3458746  33.9542270  27.0149350  86.1847803  34.0541553  27.9807806
  11.4686632  41.7160702   9.9267769  11.4051330  41.5792847   8.9815331
  12.0784473  42.4476719  10.0224662  81.3839808  56.8550014  39.1712737
  80.6962803  57.4600315  38.8933539  81.2331131  56.0657024  38.6512041
  85.7980721  43.4601498  27.2813463  85.7913637  43.4466743  28.2384300
  86.0641080  44.3516541  27.0562220  62.6679090   6.6424942  55.7481146
  63.1031087   6.2761062  54.9783182  62.9108217   6.0543621  56.4631891
  16.1809421  19.9612880  63.6800337  15.6049907  19.5779085  64.3414927
  16.3903010  19.2338824  63.0941296  45.7385921  12.5683212  37.3222446
  46.6152334  12.1840417  37.3305202  45.6690121  13.0242455  38.1610084
  25.8580995  11.3749051  42.7372837  26.2706971  11.3465142  41.8740416
  24.9556899  11.0967457  42.5806952  75.4933646  24.6622658  67.5461960
  74.8808196  24.9322104  68.2304144  75.3165224  23.7299609  67.4206305
   3.9114006  22.8346630  11.1444386   4.3974717  22.4312683  10.4252442
   3.0238612  22.9428573  10.8026798  86.2435061   7.6809299  63.3168125
  85.9594479   8.1505436  64.1010380  86.0177183   8.2650542  62.5928974
  75.2119528  10.2193495  15.2988156  74.8729215   9.3746086  15.5949696
  75.3962742  10.6997391  16.1059673  36.0931826  18.5657871  56.7984343
  36.0153294  19.0646410  55.9852219  36.5834737  19.1406918  57.3860836
   0.6097434  18.5612607  67.3239994   0.0926520  19.2063797  67.8063583
   0.9562908  19.0444946  66.5739155  86.1537309  32.5654054  42.7181673
  86.6353801  31.9995546  43.3215380  86.6916856  33.3540535  42.6483727
  22.4269676  58.5460806  48.6609602  21.5382600  58.6893034  48.3355141
  22.9848027  58.6574316  47.8911209  20.4035306  42.8424788  40.4404688
  20.9190416  43.1719017  39.7042871  19.9478102  42.0770359  40.0902510
  18.5968907  79.1364381  16.4633286  19.2685635  79.6896970  16.8620718
  17.7916319  79.3650791  16.9275630  20.9331322  74.9328899  34.2013907
  21.2606716  74.1757536  33.7159085  21.6266203  75.5876684  34.1203356
   7.9834026  12.4820340  37.3137116   7.4090642  12.9040337  36.6747403
   7.4150807  11.8666816  37.7769423   4.0647343  11.6283178  54.4173717
   4.0574268  12.4747682  54.8642492   4.9862176  11.4760637  54.2078018
  35.2795553  41.2463665   9.6661723  36.0882950  41.1518431  10.1694024
  35.3525424  42.1077108   9.2550868  34.7667864  22.6841140  64.2709351
  35.2559689  23.4487462  64.5746899  35.4406622  22.0622873  63.9962387
  21.2678432  43.2980490  54.4306183  22.0353460  43.6385059  54.8902464
  21.5661693  42.4751616  54.0432024   9.2351937  12.1528339  12.9873681
   8.4118330  12.1927524  12.5008345   9.1504836  12.8309762  13.6575747
  82.1833459  42.7690029  51.7752314  82.2610614  42.3659992  52.6399755
  81.2606767  43.0146170  51.7075014  86.6692732  51.2613297  57.9815102
  86.7564783  50.9550858  58.8842010  86.0056195  50.6884623  57.5973034
  71.2123457  37.8784442  69.9423170  71.4229229  38.7809730  70.1817513
  71.0442749  37.4420643  70.7775116  58.9324169  21.0209556  13.9420422
  58.9462850  21.4604898  14.7922524  58.7642377  20.1019331  14.1502388
  71.3819054   0.4920033  26.9168258  72.0097640   0.6050165  27.6304436
  71.0140267  -0.3804289  27.0573926  32.8026986  22.2594571  59.3724537
  31.9539309  22.5689030  59.6887827  32.6814103  22.1500540  58.4292936
  72.2950593  19.1833758  53.4845352  72.5589696  18.4226847  52.9669142
  71.7254034  18.8242400  54.1647911   8.5014385  63.4797478  47.3472500
   8.5127074  62.5549698  47.5940084   7.6274443  63.7826872  47.5934076
  37.9152905  63.2713627   5.9805878  37.7560656  62.8260707   6.8128069
  38.8274174  63.5569643   6.0324343  68.4827784  51.8924952  68.5752439
  69.0914610  52.5791073  68.8478231  69.0395156  51.2226200  68.1783295
  10.9678984   1.1395308  49.1788292  11.1768341   0.5572818  49.9092865
  11.5145528   1.9117281  49.3241310  47.1053617  56.5480303   4.3120726
  46.8249028  55.6429528   4.1763886  47.9003363  56.6338788   3.7858828
   9.9825001  20.7724929  17.9822898  10.2931678  21.6774201  17.9535735
   9.1467434  20.8207941  18.4464121   5.6796741  12.0082939  69.9849129
   5.7759178  11.9174957  69.0369034   5.0199842  11.3565743  70.2221918
  22.8038359  49.1407442  26.4516473  23.7249827  49.1385365  26.1914253
  22.3743200  48.5670614  25.8171105  16.4496403  47.4178134   8.2832249
  17.1487515  47.9766797   7.9438980  16.8882423  46.5987955   8.5135945
   6.8041456  42.2741365  19.8329055   7.7277422  42.0262003  19.7913277
   6.3997489  41.8159294  19.0961969  33.9962125  58.8867474  70.7248831
  34.3526483  58.3394337  71.4246225  33.0490756  58.7599993  70.7805634
  13.4871888  27.4328542  40.2080822  13.0974531  27.3269749  39.3402553
  14.4182813  27.2544765  40.0758791  40.3385448  37.3076916  15.4172134
  41.0745907  37.3404479  16.0282743  40.3566837  36.4166713  15.0679481
  26.7340040  17.5108469  42.6178741  25.9834576  17.1395767  42.1541166
  27.2307229  17.9700935  41.9406748  77.9017320  37.5659466  52.2226238
  78.2090470  37.8055716  53.0969048  77.8116432  38.4008551  51.7632294
   8.5064191   7.5391990  25.9027028   9.4593817   7.5973558  25.9713483
   8.2342005   8.4076589  25.6062126  21.4208317   6.0535640  69.6723795
  20.6292915   5.9891558  69.1380119  21.4192629   6.9547129  69.9951172
   1.5746932  68.1655312  42.0032215   0.6379434  68.0566740  42.1671820
   1.6793853  69.0998363  41.8233824  10.2557182  10.8646846  28.5001588
  10.8992672  10.3117216  28.9432263  10.5626392  10.9109676  27.5946832
  12.6866055  26.8816209  50.1407003  12.3107576  26.2707210  50.7745552
  13.4691417  26.4371490  49.8146439  19.0494835  26.1098003  65.5793476
  19.6373439  26.6520429  65.0533962  18.3477640  26.7045522  65.8440971
  59.7175577  14.4343877  64.9939585  59.3524745  13.6843681  64.5244741
  60.5323222  14.1056573  65.3738642   8.3897257  50.0975800  25.4871154
   8.6737204  50.6386423  24.7503448   9.0156627  50.2943420  26.1840510
  32.4521995  26.2832975  48.7944412  33.2686234  25.7896829  48.7168026
  31.9528604  26.0447001  48.0134344  16.6621614   8.3063549  51.7595196
  15.9097028   8.7530208  52.1474981  17.3006415   8.2510930  52.4705172
  40.7464981  21.6191912  20.9716916  40.6880999  20.6719136  20.8472610
  39.8688126  21.8784761  21.2521744  58.2635596  12.8516197  45.0896692
  58.6655191  12.2950625  45.7566786  57.4195483  13.1032777  45.4645634
  23.7937975  39.4809294  17.5665605  23.0563021  39.6633506  16.9842768
  24.3278551  40.2745628  17.5325084  12.7983356  54.5949078  68.5544109
  12.3949373  53.8121605  68.9296532  13.2946730  54.2715645  67.8025293
   3.3231351  43.5805225  49.6133232   2.5611782  44.1184616  49.8284435
   3.2453707  42.8159809  50.1839828  15.3614390  39.1452956  42.0182085
  15.2257335  39.1306138  42.9656267  14.7277188  38.5149717  41.6756868
  86.1800584  27.5524855  55.0758934  86.8838486  26.9094944  54.9894571
  86.6250870  28.3995628  55.0504923   8.0578864  43.9392757  66.1735058
   7.1695930  43.7512016  66.4764786   8.6247694  43.4854078  66.7971039
  26.9466624  72.1679043  10.0146492  26.3337331  72.9018520  10.0579079
  27.6130604  72.4490069   9.3876560  30.0082278  28.8082647  28.8302135
  30.7610250  28.2170558  28.8293862  30.2186966  29.4649744  28.1663871
  21.6717386  46.1630344  40.7238245  22.4553823  45.6144762  40.7586765
  21.7633104  46.6601324  39.9109626  77.4759641  28.8458061  46.2468338
  76.8984309  28.8041949  47.0090342  77.8811458  27.9795671  46.2057638
  79.8781452  44.0089130  68.2447100  79.0974388  43.6211920  68.6401939
  79.5762727  44.3488646  67.4023724  14.2975223  35.6160831   0.1561342
  14.2874742  36.5377235  -0.1021473  13.6739516  35.5635166   0.8804470
  14.8557193  27.4926706   0.9179600  15.5737073  27.0797773   0.4381235
  14.3473632  26.7599149   1.2656220  22.9754972  77.0848751  37.6748395
  23.0748105  77.9963684  37.3999691  23.8575840  76.8139982  37.9293609
  77.5008033  72.0513382  43.6791849  76.9302867  72.0933869  44.4466305
  76.9008384  72.0679215  42.9335308  75.3035167  56.9201565  25.8864427
  76.2568548  56.8401670  25.8551431  74.9818185  56.0748243  25.5731487
  81.3695803   7.1986634  38.9001441  81.1865500   6.4148831  38.3820534
  82.2946444   7.3828685  38.7371802   7.5299233  26.0905743  47.6885176
   8.0097193  25.3634763  48.0851984   8.0541402  26.8644118  47.8949213
  41.1284018  25.5663800  26.2031770  41.6370440  25.4407001  25.4021025
  40.5442286  26.2979364  26.0036755  10.6422091  33.9187241  62.7411747
  11.4081013  34.4227171  63.0161858  10.1518285  34.5167851  62.1771860
  67.7394822  24.4685841  64.0225649  68.2976094  23.9495778  64.6016645
  66.8675569  24.4081450  64.4128513  33.6909042  13.3218909  60.7276778
  33.3582483  13.2367231  61.6211645  33.3961091  14.1871930  60.4438142
  27.5757909   8.4259892  38.3321595  26.6796303   8.5080731  38.6583304
  27.5114465   8.6341947  37.4000955   5.4717953  81.8706426  27.6558638
   5.2279288  81.7686336  28.5758376   5.7209713  80.9901297  27.3750782
  44.2594009  69.0106128   1.2378176  44.4841044  68.5599517   0.4237898
  43.7355321  68.3756899   1.7263516  41.0689068  18.7048888  37.4052000
  40.3743935  18.7032461  36.7465019  41.8699932  18.5366368  36.9090295
   9.6459788  12.5050700  60.6679678  10.0532162  13.3609498  60.8016109
   8.9084363  12.6794338  60.0832796  35.0390935  36.6324139  23.7288070
  35.3304601  37.2011232  24.4414830  34.3363619  36.1080790  24.1128349
  81.8305096  42.1604967  62.8437376  80.9015444  42.3214197  62.6783323
  82.2335693  43.0280495  62.8101349  67.7405623  68.7308979  38.5644913
  67.0164421  69.2366362  38.1955624  68.0615500  69.2664337  39.2900252
  38.2694650  29.6619701  14.4642544  37.5778246  30.3203630  14.3980408
  37.8101206  28.8543749  14.6945238  48.0371004  73.2356094   9.7334583
  48.8141005  73.7442969   9.5016297  48.1549602  72.3994635   9.2826851
   8.4237206  25.4428673  50.6213808   8.9267993  25.2055383  49.8423958
   7.5822026  25.0013518  50.5067348   7.1675807  13.9699864  25.7227325
   7.4786633  14.8689890  25.8288121   7.6448357  13.4715521  26.3860726
  23.3326578  32.3249364  41.2036705  23.7039447  32.9234982  41.8518257
  24.0588808  31.7482257  40.9665346  17.4731851   3.9427900  38.4986043
  18.0337298   4.7186771  38.4939957  18.0507815   3.2284233  38.2297277
  46.7617273  18.7064636  42.0594978  47.6472759  18.4125936  42.2732306
  46.4545059  18.0825067  41.4018345  84.4431359  67.9574490   7.6004648
  83.7550518  67.9022694   6.9373459  85.2301854  67.6428652   7.1556938
  32.1486306  28.3671308  38.1268978  31.3370895  28.7783051  38.4245014
  32.4185228  28.8891268  37.3713112  22.9191709  21.8594217  49.0424633
  22.1355510  21.5716720  48.5740900  22.7245998  22.7592087  49.3046808
   3.4114489  27.8544593  24.7384143   3.5820621  28.2232642  23.8717532
   2.5255090  28.1466126  24.9528646   2.3285801  22.9075857   2.5239857
   1.8563159  22.4616094   3.2270535   1.6552408  23.4078785   2.0629509
  19.0210581  17.1477127  25.4549575  19.1088831  16.7201126  24.6030903
  18.0905664  17.3625267  25.5203247  35.4404902   9.2123526  24.6415210
  36.2075877   8.8920754  24.1669488  35.7955360   9.8269933  25.2836990
  19.2374122  40.8684540  28.8221431  19.1858733  41.2461376  27.9441142
  20.1634932  40.6555080  28.9372921  25.2735591  31.1233687  33.2408571
  24.3936944  31.2695241  33.5882854  25.8281088  31.7315793  33.7295127
  34.8195004  30.3752327  67.5815678  34.2611909  29.6099448  67.7188969
  34.2483091  31.0153341  67.1570206  42.3383617  36.0989666  28.5216117
  43.1063080  36.6558170  28.6497021  41.6291666  36.5629482  28.9665747
   3.6288613  21.6982150  33.6234617   4.3368563  21.0594511  33.5400701
   2.9405811  21.2322712  34.0982223  31.4909339  34.9928808  42.6434278
  30.7695246  34.6556330  43.1745243  32.2728515  34.5835209  43.0139160
  31.6152859  24.3516994  53.7719870  30.8452249  24.7363639  54.1906404
  31.5458369  24.6153092  52.8544235  85.3947455  30.0445509  52.5273561
  86.0603955  30.2085805  53.1953621  84.7410867  29.5021605  52.9686880
  35.0751758  33.6062860  67.9139328  35.7216072  34.2913747  67.7436161
  35.5060863  33.0195618  68.5354662  11.1473375  78.1380080  13.7653072
  11.4706760  77.5094460  14.4107445  10.9550469  78.9258980  14.2737206
   3.3266240  41.3117361  43.6508369   2.6340568  41.6282177  43.0708170
   4.0208340  41.9663000  43.5743427  36.9336653  39.2855906  29.0183425
  37.2268629  39.7463870  28.2322550  37.7203584  38.8523221  29.3494344
   7.7143598   8.5969138   2.7643728   7.8217375   7.6748645   2.5308642
   7.9461509   9.0742952   1.9677474  21.2524629  46.1530447  46.5811300
  21.1575055  46.6374159  45.7610083  20.4858065  46.4028263  47.0969629
  38.9467978  14.0755546  65.3604841  38.5482979  13.7760770  64.5433283
  38.3945036  13.7020266  66.0472727  60.7117122  15.5112931   9.2068678
  61.4297049  15.0255200   8.8009769  61.1106675  16.3323876   9.4947445
  11.4341176  44.3503380  47.2240829  10.8848822  43.5672808  47.1867418
  10.9115267  45.0299597  46.7983532  35.0355499  57.5710307  14.5868595
  35.2756929  56.7278622  14.2026337  35.4933470  58.2179390  14.0500458
  20.3298814  27.5527998  13.8099678  19.9339349  28.1800647  13.2049950
  20.0956495  27.8778692  14.6792801   1.3279110  64.1961670  36.8137836
   0.7743828  63.6241341  36.2821651   1.3368292  63.7850285  37.6781440
  80.5665169   5.3089042   3.9184721  80.5926905   4.7691818   3.1283816
  81.4536629   5.6592890   3.9986809  13.7360930  42.5078678  18.0854225
  14.6212530  42.1911097  17.9054594  13.2209837  41.7131710  18.2245290
  27.0719242  46.0460711  35.7951736  26.7330360  45.5497694  36.5402031
  26.3357639  46.5898705  35.5148506   8.2267654  21.6988230  46.3346624
   8.3701873  20.8772016  46.8043423   9.1025311  21.9781494  46.0677481
  19.3352079  45.8368397  58.5955811  20.0864601  45.4843903  59.0726900
  18.5793805  45.3862715  58.9723396  75.6136540  46.3165331  47.1565676
  76.1330167  46.4835405  46.3700581  75.3986636  45.3850412  47.1083021
  86.8823846  58.9100313  24.1551828  86.9426882  57.9636717  24.0248156
  86.0129848  59.1418695  23.8286448  11.6506457  56.2131739  58.6597061
  12.5890231  56.0640144  58.7755966  11.5978551  56.9091988  58.0047274
  13.5578012  57.9933786  13.6690271  14.0450215  57.1899796  13.4862721
  14.2269206  58.6770725  13.7018073  32.0418835  28.5260415  58.0978155
  31.5751624  28.7341642  58.9071894  32.9635644  28.6774945  58.3070946
  26.6565418  71.2947035  35.9557056  25.8351398  71.1008787  36.4073277
  27.0820856  71.9533062  36.5046954  65.5575326   8.2070416  54.9149990
  66.3424233   7.8229988  54.5242453  64.9674538   7.4648172  55.0459242
  74.7707537  68.8215351  63.1617260  75.1219407  69.2261839  62.3685265
  73.8213232  68.9046240  63.0727863  83.7266564  34.0783477  71.0543489
  82.9692069  33.7383056  70.5780363  83.8797695  34.9435234  70.6745386
  84.1654354  54.9344444  33.7041855  85.0431636  54.5527697  33.7163758
  84.2723021  55.7661295  33.2425404  36.4041661   0.4440495  26.1002827
  36.0772645  -0.1196483  25.3991318  35.8612799   0.2239797  26.8572998
  19.9430454  25.8006334  31.9842410  20.7461691  26.1545873  32.3662591
  19.4024885  25.5654979  32.7383900  14.9194002  47.9908705  52.2705030
  14.3935907  48.7773037  52.1246338  14.2775083  47.2858143  52.3547888
   2.2968589  45.7444096  41.6335487   2.2697702  44.8334408  41.3409233
   2.7025375  45.7057905  42.4996710  11.0324991  48.7604570  48.1153870
  11.3332832  48.9897871  47.2360897  10.2761292  49.3276072  48.2653046
  85.4026948  19.6199604  21.7111309  85.4688845  19.0545984  22.4806889
  86.2996088  19.9140688  21.5521343  10.3546941  30.9785008  21.7639756
  10.2345192  30.9474635  22.7130961  11.2092078  30.5728650  21.6173577
  86.6075407   5.0474115   4.3765076  87.0386921   5.5983873   5.0297793
  87.0488296   5.2608104   3.5543402  18.5254705  82.4179459   4.9833602
  19.1002560  83.0310917   5.4415238  19.0835536  81.6643620   4.7913235
  45.6659460  56.8214607  48.8806820  44.9435139  56.8082714  48.2528687
  46.4536476  56.8643236  48.3385372  22.5531125  55.3317022  60.1706553
  22.6860976  55.2465677  59.2265701  23.4185004  55.1770115  60.5493450
   4.7454244  41.5482521  57.4895239   4.8566562  42.1271086  56.7353439
   4.7944734  42.1305370  58.2476616  29.4350243  32.1597624  53.4682751
  28.7712884  31.9108272  52.8250647  30.1793265  32.4535179  52.9429626
  40.9007645  39.1815352  44.3078136  40.6298447  38.3072925  44.5880461
  41.7927551  39.0627575  43.9815044  28.8439918  31.0858369  64.7697735
  29.2654252  30.2439547  64.5969868  29.3611836  31.4719796  65.4766273
  39.6319413  49.2208719   5.0636786  39.3426371  48.3284760   4.8735169
  38.9408970  49.7780991   4.7056478   7.5989038  67.6274014  60.4897547
   7.8833896  66.9691658  61.1238050   6.6561514  67.4856424  60.4039955
   7.3371871  24.9570795  18.9128121   6.5009625  25.4218908  18.9430340
   7.9961808  25.6420942  19.0255840  19.8376667  47.8753948  57.2697878
  20.3233886  47.4408484  56.5687370  19.3160427  47.1782875  57.6675081
  23.8479686  37.9064417  45.6774092  23.5131693  38.0315423  44.7894382
  23.9329195  38.7928867  46.0284472  31.5001130  31.4510989  39.1093349
  31.3739681  32.2849441  39.5621324  32.0007014  31.6775179  38.3255148
  33.3229828  46.3382816  31.8000245  33.6562490  46.3544798  30.9028602
  33.9038348  46.9269943  32.2819591  54.0291397   2.4288555   5.5400093
  53.9442523   1.7823549   6.2407692  53.7924953   3.2602211   5.9511765
  41.1688566  15.0786400  66.4791059  41.3845444  15.9781694  66.2330198
  40.3989744  14.8642480  65.9522676   9.0927023  48.6376381  43.6694860
   9.0088505  47.6847982  43.7054873   9.4163448  48.8164091  42.7865744
  27.9283714  44.9616575  15.3707230  26.9979715  45.1863575  15.3805518
  28.2937527  45.4854536  14.6577239  10.2237701  75.6689644  19.7694206
  10.3291941  74.9813652  20.4269361   9.8858023  75.2133226  18.9984465
  44.2090273  63.3329821  39.8565674  45.1225042  63.5386229  40.0553274
  43.7037468  63.9408207  40.3964329  37.6827455  81.7313290  64.3510246
  38.5229397  82.1757793  64.2380381  37.8954887  80.7996273  64.2971039
  41.5213203  70.0042725  23.8223958  40.9617090  70.1131535  24.5912957
  41.4742088  70.8468390  23.3706260  10.0082457  71.0641098  29.5710564
  10.2794552  70.6421232  28.7558246   9.0612257  71.1710310  29.4818783
  51.6053772  68.6892462  59.5409250  52.2204161  68.3254528  60.1778030
  52.0715380  69.4304085  59.1541338  27.9091024  58.8247442  24.4602013
  28.5924244  59.4189310  24.7704315  27.7337408  58.2511139  25.2061391
  73.2080507  30.4086947  56.9419479  73.3271503  30.1344800  56.0326338
  73.8665247  29.9138284  57.4295473  62.3944426  46.2491465  44.4035339
  61.5693617  46.4297247  43.9531279  62.4894333  46.9690657  45.0271702
  28.5574222  37.0804501  54.8771381  29.3305969  36.5322185  55.0108290
  28.8000417  37.9303908  55.2445173  49.6093321  52.9864740  23.3250904
  50.2853489  52.8145981  23.9806008  49.0809155  52.1884680  23.3110595
  55.3598421  12.0853326  37.1786284  54.4431560  12.2048852  37.4268675
  55.7920688  11.8060014  37.9857111  38.9428377  72.2097063  38.7291241
  38.3516574  72.8906441  38.4080982  39.5923543  72.6823378  39.2496800
  73.2692197  42.3619127   4.2935541  73.0362538  43.0324602   4.9356824
  73.5734716  41.6221905   4.8193622  33.9093494  80.3833008  60.0456381
  32.9684448  80.5194950  59.9343824  34.0034437  80.0905132  60.9520912
  53.4496164  57.3773575  33.9476657  53.9652634  57.4931860  34.7457433
  54.0807962  57.0693541  33.2972932  31.4296365  69.6478891  47.3210287
  30.8397150  70.2769661  47.7363443  31.3280344  68.8478088  47.8365660
  34.5730925  46.3987923  45.7149267  35.0876474  47.2040319  45.7702017
  34.5646882  46.1834717  44.7822952   5.4348125  10.9183499  43.2102346
   6.2109508  11.0476586  43.7553167   4.8067703  10.4835221  43.7870550
  48.2818842  51.9604111  20.3984880  48.4322596  51.7161894  21.3117099
  49.0539646  51.6374350  19.9339342  19.1643190  50.6696367  23.0936313
  19.6436000  51.2326813  23.7014985  18.2422400  50.8520412  23.2745481
   4.0574548  72.2554207  17.5501430   4.9194008  72.4972868  17.8889406
   3.5884917  71.9129229  18.3110642  11.4377356  78.9310980  26.1661625
  12.2479451  78.4720993  26.3877726  11.5754855  79.8250103  26.4795017
  33.4211993  19.2334437  13.1739008  32.8528500  19.9566281  13.4388852
  34.2756844  19.4516063  13.5460460  16.5934527  30.1413441  28.6862874
  16.4029551  29.6614623  27.8802752  15.9058154  29.8704171  29.2945528
  29.7779155  53.2183790  45.0909376  29.4428396  53.1164217  44.2001152
  29.6588492  52.3572779  45.4916382  40.0874509  20.9234235  38.4986639
  40.6637849  20.2089784  38.2273054  39.2037000  20.5700013  38.3970737
  16.9624674  51.7905712  21.0470247  16.7387486  51.7332697  21.9759464
  16.1304498  51.9751263  20.6112266  35.7524085  72.3699331  51.2575722
  36.2587500  72.8896141  50.6332493  34.9448395  72.8679180  51.3843489
  33.8199878  69.1288328  34.9128008  33.1581640  68.4903669  35.1784778
  34.6525025  68.6678219  35.0158572  13.0239725  76.4245272  42.0657539
  12.4569225  77.1841049  41.9326115  13.8775027  76.7014885  41.7325735
  19.0870547  36.3840485  49.9293661  18.8772798  36.9132733  50.6988764
  18.4465456  35.6729174  49.9458981  13.9110136  74.7371531  51.5864134
  13.7637937  75.1976728  50.7602882  14.1975296  75.4196453  52.1933222
  37.2195196  55.6629324  41.1443043  36.7622542  55.2128172  41.8546104
  36.5201592  56.0365295  40.6080627  51.5927792  40.9443569  49.8114491
  52.3397827  40.3608847  49.9447680  50.8683872  40.5135489  50.2652025
  79.1067968  21.9587894  12.1092327  78.5445736  22.2408291  11.3877209
  79.5145117  21.1521812  11.7939861  65.2924793  11.2305924  48.6443853
  64.5519345  11.3684461  48.0537748  66.0611313  11.2549684  48.0744648
  32.5663614  46.3368845  40.5722570  31.6521764  46.6177368  40.6125259
  32.7865815  46.3708830  39.6413517  25.9303021  59.2709208  48.1281614
  25.3855586  59.5313072  47.3854065  26.7134047  59.8162937  48.0536842
  27.7212150  33.7290092   3.4374579  27.2990091  34.4679542   3.8755615
  27.0916803  33.4543272   2.7707728  66.7785501  48.8574505  70.3629255
  65.9401846  48.5013914  70.6571817  66.5812111  49.7604799  70.1142693
  74.9419563   3.1209657  35.1985621  74.8128622   2.4292752  34.5496082
  75.8899277   3.2509610  35.2247071  82.9603039  52.8552099  18.0436142
  82.8458749  52.0385690  17.5575836  83.7544928  52.7174230  18.5598572
  36.4935112  46.2969637   8.6382008  37.2947812  46.4323139   9.1440445
  35.8311272  46.8148851   9.0956271  48.2810753   1.0735795  21.6298532
  47.6229959   0.5666158  22.1054029  49.1172343   0.6945321  21.9007683
   5.1332015  35.3207874  45.1781940   5.2966863  36.2098145  45.4930544
   4.7659972  34.8626876  45.9341955  35.5408001  55.5822611  46.4600849
  35.5179667  56.5187025  46.2631321  36.4709878  55.3569651  46.4450741
  42.3070192  70.3344488  55.8945084  42.1405506  71.0013008  55.2283049
  43.1855679  70.0109053  55.6952572   9.7360569  43.9575720  42.1996212
   9.1023988  43.6118793  41.5709686  10.5744743  43.5882902  41.9222832
  78.9486232  66.7948294  18.2933295  79.5307639  66.2854767  17.7294993
  79.4221398  67.6116323  18.4509540  44.6941805  44.6049738  28.9026213
  45.6149912  44.8262691  29.0417838  44.3961525  45.2266502  28.2385898
   9.6586361   5.3498361  56.1704540   9.7108020   5.2506635  57.1210718
   9.3091144   4.5140931  55.8612776  13.9052939  62.8250599  56.7061138
  14.8360145  62.8857565  56.4909267  13.8008094  63.3828735  57.4769354
  55.4750919  59.8476696  56.4472008  55.2823830  59.5283222  57.3287392
  55.7461023  60.7566690  56.5756655  53.6121368  67.9746342  53.8284111
  53.5544252  68.5162687  53.0413055  53.2562637  67.1268129  53.5623646
  34.9618506  44.6783113  47.6738977  35.6664753  45.2775049  47.9202700
  34.6254969  45.0301266  46.8496847  65.2302027  64.4338751  22.7685952
  64.4173002  64.4844913  23.2714462  65.8521080  64.0108395  23.3606291
  22.6997685  73.8830566  12.1515465  22.5295043  73.9875984  13.0876625
  23.5129166  74.3650055  12.0007169  67.7741187  10.1568982  70.0623751
  68.5953205  10.4605195  70.4492521  67.1364587  10.8324525  70.2931261
  61.0283709  69.1557407  51.1538982  60.8214092  68.7209845  51.9811773
  61.9554043  68.9662933  51.0091352  63.7444966   8.7594792  -0.0825163
  62.9074281   8.7180325  -0.5449368  63.5687344   9.3075845   0.6822899
  69.7903395  76.2236547  37.6111126  70.5226803  75.6514168  37.8401423
  69.1169882  76.0226774  38.2610631  28.0823088  62.7083540  46.0962248
  27.1352243  62.6923275  45.9583712  28.2238984  63.4358692  46.7019558
  41.4550638  54.5141840  46.9511366  40.9963131  53.7425661  46.6189003
  40.7572126  55.0991678  47.2461510  16.7588680   2.4308297  67.0754862
  16.9006925   3.1800172  67.6541376  17.5160973   2.4337098  66.4899731
  12.5820708  47.2426367  31.3027883  12.2534513  46.3830996  31.5662932
  13.4966898  47.0873976  31.0669827  11.7885149  75.4804659  64.4693613
  11.0895979  74.8962641  64.7633934  12.5537658  74.9124432  64.3800688
  50.4393482  66.3906813  58.8028240  50.8624935  67.2479725  58.8500977
  50.2852869  66.2508202  57.8685141  68.5122959  65.9573890  70.4257588
  69.4311879  66.2107230  70.5134596  68.3379982  65.4176856  71.1968426
  55.3409576  69.5061493  44.1967106  56.1862659  69.0885019  44.0316200
  54.7651196  68.7869692  44.4563580  58.3157461   1.5680024  44.6536446
  59.1456859   1.3328645  44.2387438  58.5485428   2.2466371  45.2872849
  60.6407738  76.3861990  28.7662268  60.0788307  75.6158304  28.8497806
  60.6751108  76.7545033  29.6490669  74.8914609  48.2840491  61.8175248
  75.5656920  48.7668468  61.3394598  74.9634717  48.6003448  62.7180801
  60.8926242   1.2117288  40.5590963  61.7426222   1.5764996  40.3127718
  60.8927648   0.3305146  40.1853466  13.2331695   0.2183721  62.5891638
  13.9994945   0.1466939  62.0200920  13.5197105  -0.1510432  63.4244204
  37.2250748  59.2153740  43.7340927  38.1797290  59.2566252  43.6778259
  36.9198179  59.6036673  42.9141665  16.3002050  72.8692770  63.1002903
  15.6673300  72.3667574  62.5872850  17.1474814  72.4808121  62.8824615
   8.4525692  49.6612978  53.7929344   8.0695873  50.4967451  54.0605021
   9.3039685  49.6372938  54.2297125  25.5785837  17.3448274  33.2963753
  24.8424234  17.9137608  33.0714250  26.1434354  17.3673245  32.5239325
  66.2188578  80.9546661  29.0166950  66.5383339  81.8554020  28.9633870
  66.7853165  80.5376530  29.6658897  49.6491044   5.0779626  11.9251788
  49.7205823   4.1499898  12.1487808  50.3816550   5.2380845  11.3302314
  70.9011476  24.4746015  44.6227407  70.3704613  23.6812303  44.5509005
  71.7385500  24.1716477  44.9737501  68.2833672  69.3666172  14.0211034
  67.4387312  69.8169231  14.0280735  68.8025570  69.8413801  13.3720458
  11.4849937  81.4048862  62.6424551  11.5181601  81.0434246  61.7567492
  10.8351111  80.8680916  63.0960369  50.1772690  61.0728788  49.0008068
  49.8493624  60.8071041  48.1416941  49.5923424  61.7803526  49.2720556
  49.3805504  66.6533279  33.1024790  50.1509953  66.1457014  33.3573437
  48.8874197  66.7646074  33.9152932  59.3314838  57.3695946  46.5523958
  59.3473101  57.6192570  47.4763250  58.7094927  56.6431856  46.5112019
  31.1307883  52.5718451   4.4427100  31.5465784  52.5852919   3.5806367
  31.6803479  53.1399679   4.9825731  87.5286559  55.9227848  24.5794654
  87.4327608  55.7203531  25.5100870  87.1095214  55.1887703  24.1302609
  25.1315331  48.6703777  19.8804462  25.5934167  47.8321838  19.8984861
  25.4884291  49.1241312  19.1169226  79.3082380  43.4991121  55.6502581
  79.9964523  44.1639757  55.6736517  78.4936571  43.9944649  55.7358170
  38.5051274  56.5714073  45.5887556  38.2879901  56.7301750  44.6701288
  38.8392496  55.6745481  45.6043386  37.8821182  38.6423635  46.9091892
  37.3955441  39.4464898  47.0904541  38.6556888  38.9340901  46.4267778
  57.1253586  66.5265036  52.5337553  56.3186693  66.1363316  52.8702784
  56.9604015  66.6487741  51.5988350  12.9908504   2.8944966  30.6737423
  12.9554357   3.5752770  30.0017977  12.1755972   2.9994389  31.1642289
  37.4356699  60.8083916  37.2991538  38.2745051  61.2295914  37.1115875
  36.8250418  61.5351248  37.4225473  54.1341686  48.4116602  41.5286446
  53.2620573  48.1551552  41.8284130  54.7318792  48.0107975  42.1597433
  69.9462175  57.7144146  38.6831260  69.5532322  57.1465874  39.3459702
  69.2779493  57.7849340  38.0014563  47.7275133  77.8054953  45.9896564
  46.8663263  78.1771326  46.1806393  48.2546091  78.5538673  45.7097530
  31.6071248  65.7728148  45.4605484  31.2492061  66.0567999  46.3016605
  32.3024178  66.4028311  45.2711296  10.1993163  40.4798170   1.6620787
   9.8173769  40.8514448   2.4572189   9.5465500  40.6467481   0.9821804
  16.0564482  58.0662060  49.3909407  16.2228489  57.4148417  50.0723124
  15.2974558  58.5558128  49.7078705  21.9912672  59.2128944  23.8455296
  21.4271402  59.9270964  24.1420317  22.5248098  59.6011877  23.1521368
  78.7822390  77.5773859  50.8969259  79.5136309  78.1878710  50.8041430
  79.1601467  76.7196083  50.7029295  27.3014307  68.4992123  66.0295391
  27.4280787  68.1228828  66.9004965  26.6876149  67.9044580  65.5985785
  13.5145800  31.0275456  61.8308258  14.1653543  31.0294148  61.1288881
  14.0309983  30.9953496  62.6361275  36.1467004  72.9952002  24.6592617
  36.0325170  73.5517454  23.8889050  35.6953430  73.4631062  25.3618073
  67.0206118  71.9762850  66.5749598  66.6277218  72.7141714  66.1087036
  66.8547583  72.1613646  67.4993324  52.9131222  45.9198046  48.7320614
  52.8155422  44.9675941  48.7346601  53.2127094  46.1274576  47.8469849
  14.5486069  60.7265329  47.1995401  14.2700899  59.8398781  46.9704008
  14.4698763  60.7634830  48.1527805  26.1447835  78.7642670  25.5886412
  26.1953640  78.2691002  26.4062500  25.2860069  79.1860962  25.6168365
  82.7219949  24.6624376  50.1214830  81.8551836  24.2705585  50.2277843
  82.7461276  25.3690959  50.7666818  27.0710683  75.2462053  39.9992061
  26.5330744  75.7109213  39.3582463  27.7744818  74.8538494  39.4820046
  33.0725980  66.7026901  52.2091818  32.9052424  66.1165285  52.9471779
  32.2736025  66.6604328  51.6837740  57.2790241  54.7783899  64.7400045
  56.4621830  54.8611116  65.2321053  57.6158047  55.6725645  64.6828413
  42.9518890  38.0042410  24.0158796  43.3499479  38.1541657  24.8733807
  42.7676630  38.8816810  23.6806297  12.6346743  49.4950342  32.9841280
  12.3518872  50.2022791  32.4044132  12.6355922  48.7156963  32.4283743
   4.2827448  63.4044981  39.1308784   4.8521250  62.9907990  39.7796392
   4.3406963  64.3403435  39.3233991  77.4769686   6.1950918   4.6960076
  77.8221737   7.0878645   4.6913059  78.1364511   5.6857773   5.1670845
  33.1357956  50.9698009  31.8186522  32.2919869  51.4172840  31.7555809
  32.9114342  50.0650549  32.0362020  20.8033299  56.7752361  66.7069769
  21.0227180  57.2173166  65.8868170  21.4062905  56.0329342  66.7476845
  14.4744260  37.4318596   9.6611221  13.5233839  37.3884197   9.7604092
  14.8080690  36.7575546  10.2529343  48.4023857  48.7974834   7.2610044
  49.1327429  48.7697983   6.6429061  47.9818439  47.9420996   7.1733069
  44.9809408  74.9672890  46.0661221  45.6904030  74.9945164  46.7081118
  44.1890621  75.1350927  46.5770054  13.0176854  35.2716923  30.4478073
  12.7780569  35.6485295  31.2944508  13.7040734  34.6371102  30.6537414
   4.1769297  32.3708196   9.4518479   5.0212629  32.0547672   9.1302212
   3.5325129  31.7987056   9.0351399  43.6735964  55.5859327  31.8763804
  43.7817097  54.6733570  32.1442342  43.6516094  55.5538368  30.9199715
  36.3756418  42.3776579  47.8705502  35.7493925  43.0974913  47.9472589
  36.8633890  42.3957539  48.6939621  23.8828993  73.4971142  66.5709162
  24.0795183  73.7441397  65.6672859  24.6273565  72.9586649  66.8394184
   1.6267702  61.4042759  33.6666799   2.5733778  61.3392496  33.7929416
   1.2525484  60.9637356  34.4296432  54.2608738  59.6161795  31.4297080
  54.2357159  59.6480370  32.3860455  53.6011171  60.2514219  31.1514616
  17.8523338  44.8485804  16.6043985  17.2621739  44.3789148  16.0150290
  18.0966198  44.2005682  17.2651803  23.7342763  25.9455633  42.6377153
  23.6786842  26.8852568  42.4641705  22.8559947  25.7039404  42.9317760
  12.7708197  39.4374514  30.3607917  12.1278906  39.4864106  29.6533489
  13.2402849  38.6186266  30.2015424   2.5811942  59.9978491   0.5031021
   3.0684717  60.7449480   0.8504160   3.0386741  59.7686716  -0.3058617
  30.0440414  31.4015718   3.8149794  30.2251155  31.2594553   2.8858717
  29.3727119  32.0837875   3.8265474  28.7436438  60.4820871  59.2174244
  28.1909442  61.2390327  59.0230322  28.1913233  59.7254372  59.0208292
  25.2416825  74.3775892  32.4836874  25.7832336  74.0914392  33.2192636
  25.6517577  73.9801550  31.7154956  39.1829205  55.8872318  28.0904913
  39.5508552  56.7564344  28.2496834  38.6785483  55.9848928  27.2828388
  53.1598330  73.5501814  39.0712953  52.5413370  74.2645454  38.9184141
  52.7200222  72.9842329  39.7057223  69.3326085   2.9187962  38.5179543
  68.4886401   3.0468556  38.0848789  69.3519395   1.9864938  38.7339830
  57.0383120  70.5622625  29.8113251  57.2269869  69.7620249  30.3014803
  56.5190792  71.0951805  30.4135108   4.3193950  11.2782762  46.0093069
   4.2793407  12.2316453  45.9337997   3.4371986  10.9829041  45.7840967
  83.4360920  45.8855100   7.4827965  83.9238678  45.4031034   8.1503208
  84.0004860  45.8621450   6.7100437  30.8051181  65.1401806  12.0982659
  31.0668015  65.9415388  11.6448617  30.0005126  64.8673630  11.6573441
  19.4621372  42.9150915  11.3434577  19.7399533  43.8068342  11.1340630
  20.1534462  42.3584604  10.9850156  62.5573969  54.5621729  51.7191553
  61.8743467  54.5026302  52.3870897  62.7233219  55.5005836  51.6292524
  73.2865398  11.4459416  70.8163881  73.1883591  11.0274312  69.9611425
  73.7810152  12.2455213  70.6364202  51.1254018  16.5703961  32.8754544
  51.0394304  16.7963025  33.8016343  52.0584839  16.3920686  32.7580309
  81.9617002   2.5896832  28.3732104  82.7066439   1.9895074  28.4061122
  81.2407749   2.0984456  28.7671423  48.3521032  58.2204247  36.7553449
  47.4353838  58.4821224  36.6695142  48.7327480  58.8711929  37.3451281
   2.2485103   4.0451524  58.8581896   1.5534105   4.2374513  59.4875479
   1.8430128   4.1868112  58.0027771  72.8351324   1.3977525  40.1047897
  73.1307524   0.5107972  39.8994732  73.3984344   1.9656751  39.5790648
   7.3161068   5.0395104  25.7107377   7.8213396   5.8513925  25.6680536
   6.7217769   5.0876138  24.9619460  48.5635262  -0.0732329   0.6802579
  48.8224309   0.2514836  -0.1821539  47.9309659   0.5707452   0.9986732
  66.2145710  72.3855829  59.9981117  65.8262634  71.6075134  59.5980406
  66.9245100  72.6309919  59.4048214  52.5831270  75.3135443  43.0564833
  53.3688354  75.6271935  42.6086903  51.8833590  75.8855581  42.7412844
  54.6460646  10.1298329  61.3958693  54.2652982   9.6587274  60.6547117
  55.1444452   9.4653127  61.8715429  76.9643801   0.8829209  29.3488312
  76.4981573   1.6170117  29.7487926  76.2790029   0.3661057  28.9252710
  31.3553548  69.1798115  44.1029882  30.4399443  69.3037796  43.8522100
  31.3792634  69.3937445  45.0356674  83.2151239   4.9380204  29.0549755
  83.0434101   5.5735585  28.3601069  82.9033344   4.1053769  28.7004089
  54.1993611   0.7589910  16.7564428  53.4480946   0.2001569  16.5576053
  53.8294261   1.4909360  17.2500372  71.9660662   7.3917671   1.9291886
  71.3549982   7.2057148   2.6420792  71.7011867   8.2526441   1.6052254
  82.3223495  75.1314926  29.2744708  81.9467926  75.6952429  28.5981774
  81.5667820  74.6997976  29.6731925  27.3518443  77.1427679  15.5116630
  26.6837835  77.1032143  14.8272920  27.4100280  78.0714417  15.7361865
  76.7583275  72.4859715  21.5570474  77.4477911  72.2418594  20.9395695
  75.9924507  71.9888926  21.2696815  82.3518085  52.3448706  47.6365757
  83.1107140  51.7846012  47.4740934  82.5374317  52.7614355  48.4781504
  31.6202934  11.8802210  11.7473133  32.5122364  11.6033741  11.5375050
  31.3114984  12.3156257  10.9527691  21.7470455  52.8564548  22.1731544
  21.8852043  53.3529711  22.9797602  20.7984662  52.8662634  22.0453620
  37.9602630  50.5831857   3.5361775  38.1197794  51.4763494   3.2311543
  37.2823818  50.2473016   2.9497584  29.7098241  19.4656655  25.0894499
  29.0624515  20.0758550  25.4427290  30.2977034  19.2884919  25.8237791
  42.0794821  66.5063763  67.6990366  41.7466068  67.3935223  67.8346634
  43.0299807  66.6111088  67.6564312  41.8177795  53.6821175  10.0492656
  41.3853216  53.5117769  10.8860421  41.7049932  54.6221447   9.9083507
  15.6078727  32.4949690  19.1813381  16.0670812  31.9443603  18.5471447
  14.6817501  32.2939010  19.0468128   7.5875456  41.4934679   7.4015291
   7.9753501  40.8096548   6.8554123   7.8635724  41.2744947   8.2915218
  86.4066601  81.6612720  26.0239911  86.5707970  81.4931583  25.0960755
  87.2682858  81.5945625  26.4355588  79.8937665  30.2955957   6.6461857
  80.2956353  29.7493549   7.3217304  79.8975907  31.1777063   7.0178087
  39.3565202  75.6851196  63.6758375  39.9559021  75.5038023  62.9518938
  39.4961119  74.9633551  64.2888641  49.6578789  61.9745636  19.8823142
  50.3912210  61.3718700  19.7589934  49.5183229  61.9914150  20.8291364
  61.9406366  56.8476057  46.1010218  61.1363459  57.3665762  46.1053705
  61.6603565  55.9693146  46.3584661  67.9169178  56.9692755  37.0587921
  68.1524658  56.4934444  36.2623429  66.9797134  56.8070889  37.1663690
  74.4848078   3.8673398  54.5913506  74.9576967   3.4243581  55.2958870
  74.4009273   3.2047555  53.9056444   9.1576989  37.3339411   9.8324307
   8.9422710  37.1412321  10.7449444   9.6569879  38.1496759   9.8713310
  61.5200233  65.0544119  37.5642776  61.9400358  65.6367731  36.9312859
  60.9035254  64.5395041  37.0436716  41.0853624  79.9795866  59.8864269
  40.4687452  80.3106499  59.2334270  41.9116354  79.8895979  59.4116592
  31.0421681  72.7520370  48.2126904  30.7096767  72.8107452  47.3170137
  30.3244686  73.0769253  48.7563705  49.4134665  70.8121014  54.5401812
  49.8701572  70.6863070  53.7084150  49.7296047  71.6564465  54.8616934
  71.5568178   5.4742906  70.9628963  71.3785236   5.4060170  71.9008589
  71.4979332   6.4111134  70.7754660  83.3659428  32.1422860  41.6123533
  84.1366594  32.6379392  41.8890429  83.7226742  31.3645265  41.1833239
  65.6128454  56.2999010  55.9075308  64.7015762  56.4019728  55.6329441
  65.8170557  57.1141624  56.3674355  67.0747989  27.4185655  53.4158802
  67.6622575  28.1653592  53.2999659  67.6340406  26.7263791  53.7685204
  47.5744867  70.8682203  29.6304131  47.4166393  70.8802319  28.6863947
  48.2716846  71.5101528  29.7648549  82.4812668  12.3295209  61.6412544
  82.4146049  11.7572782  60.8768463  82.5215261  13.2133767  61.2759972
  72.7776480  42.9183912  47.7880669  73.2402468  42.1612120  48.1471109
  72.1197891  43.1328821  48.4494638  59.0717840  73.5891581  46.9461918
  59.2033434  73.5976362  47.8942680  58.7046957  74.4505787  46.7476082
  29.7300839  65.9124756  17.9325140  29.7902489  65.8220196  16.9814980
  30.2301574  66.7044353  18.1298912  71.1816137  23.1344983  41.4678812
  70.2617710  23.3616635  41.3318110  71.2334125  22.2040364  41.2492609
  44.5932760   5.7207009  33.3496666  44.2560949   6.5538880  33.0205107
  45.3204527   5.5086324  32.7644515  62.3996609  22.1244142  33.8665724
  61.7851251  22.5957009  33.3040237  63.0143230  21.7136666  33.2585359
  53.1280899  45.0577641  60.7943296  53.7155628  45.1531935  61.5439987
  52.5884247  44.2967033  61.0082960  65.0689285  28.1425187  38.0494905
  64.9432366  27.2129724  37.8587627  64.6417182  28.5960290  37.3228145
  46.4348221  58.3494139  13.2472360  46.5106106  57.4286318  13.4975219
  47.1517563  58.4892607  12.6286292  62.1416330  65.5222130  53.6702299
  61.3217306  65.8056784  53.2657099  61.9070482  65.3307295  54.5782661
  80.9537762  17.9419324  47.4873686  81.4137428  18.7025544  47.1322393
  80.2788799  18.3137795  48.0552387  12.0205440  19.9046800  45.6628752
  11.7113819  19.0613553  45.9937143  12.7692547  19.6846101  45.1085901
  74.8474741  68.3219290  28.2608104  75.4046440  69.0917587  28.3755112
  75.1329422  67.7156734  28.9443302  13.8499489   3.9307115  21.9574881
  14.2881956   3.0895612  22.0864916  13.0091467   3.7042329  21.5600014
  67.8001993   0.7413384  18.6613345  67.7996819   0.8693311  19.6099389
  67.2184770   1.4241216  18.3272099  38.5080385  68.3335638  28.0239129
  38.2155991  68.2495165  27.1163630  38.8538480  67.4688721  28.2451749
  44.2721605  69.8618078  22.3590946  44.1917038  70.2388716  21.4829779
  43.5587835  69.2258358  22.4125767  44.2725372  73.0521059  41.5675211
  44.4940138  73.0068827  42.4976444  44.0435934  72.1530628  41.3318396
  65.0189686  60.2389050  38.2370377  65.8904457  60.0704050  38.5953164
  64.7823334  61.1013174  38.5783315  76.3019913   8.0144593  54.9185944
  75.4051178   7.6919362  55.0070810  76.4068478   8.1765077  53.9810562
  77.7187729  59.2726183  35.7635760  78.3344555  59.9356699  35.4512787
  76.8623781  59.6968269  35.7099891  62.9274797  82.5157261  38.2768226
  63.6100245  81.8514347  38.1814981  62.4740744  82.2788811  39.0858746
  45.1905489  54.0365458   4.6393445  44.7969389  54.5069504   3.9044815
  45.6066895  53.2728481   4.2395660  50.1747179  54.9634123  45.1831770
  50.9859991  55.1772022  45.6439924  49.7032118  55.7947350  45.1300907
  41.7260981  51.5523863  46.7663050  41.0538149  50.9777451  47.1324396
  41.6524553  51.4341211  45.8193016  65.3309584  72.1209049  62.7199078
  65.6094074  72.0475197  61.8070459  64.7246599  71.3908100  62.8448057
   6.4606323  10.5829141  63.7519932   5.6738462  10.0476930  63.8556528
   7.1812477   9.9966046  63.9826059  32.2590627   4.6353719  14.1813588
  32.8065290   5.3695485  14.4597435  31.9273081   4.2610356  14.9974716
  56.2996006  58.3249950  28.6239243  56.4277077  59.0647697  29.2176867
  57.0987463  57.8056145  28.7124920  73.7162845  23.5782430   1.9040234
  72.8650158  23.6575982   2.3344572  73.5173815  23.6271855   0.9689976
  74.0615702  73.0968523  52.1589279  73.7981415  72.2524977  52.5248528
  73.7775087  73.7389469  52.8095102  28.8157701  73.0187273  49.9950886
  28.9381313  72.8604650  50.9311533  28.7875056  72.1445990  49.6060753
   1.5922090  56.2231350  52.8402615   0.9313700  56.6228819  52.2748137
   1.4541647  56.6308022  53.6952353  82.9612606   0.5349538  20.8229232
  83.7942140   0.9176633  20.5473304  82.9353350  -0.3187945  20.3908539
  69.9811172  46.2046242  63.9945555  69.6684217  45.4831743  64.5404196
  70.2256489  46.8883181  64.6182489  14.4612193  55.7609415  58.1560993
  14.1849256  55.1951504  58.8770533  14.6206605  56.6109705  58.5662937
  35.5142410  59.1071935  12.3081406  35.6275804  58.6132570  11.4961060
  36.2991436  59.6516939  12.3688229  33.8412237  74.4588804  46.0818338
  32.9408932  74.7833729  46.1003399  33.9064288  73.8895512  46.8485451
  12.3800935  50.1729962  15.0744307  12.3378458  49.2569348  14.8000646
  12.4626150  50.6642625  14.2570698   6.0031731  22.3861695  63.7047670
   6.6582639  22.4141408  64.4021247   5.8505756  23.3046199  63.4825168
  84.6511817  71.5126753  51.9283199  85.2074328  71.0954571  52.5861502
  83.8426948  71.0003519  51.9385195  75.1598184  22.6837632  71.3975859
  75.7384365  23.3726499  71.0706806  74.3008392  23.1016252  71.4590693
   9.4467249  21.2322232  49.2831802   9.1146364  20.4933259  48.7733030
  10.3489055  21.3438508  48.9834452  86.1001747  50.7157800   2.4291651
  86.6190403  51.3768575   2.8874213  85.2156656  50.8201119   2.7798629
  37.1279597  79.8998785  56.3257408  36.3712597  80.2619267  56.7867851
  36.8117142  79.0750456  55.9571457  17.5145638  79.1613531  22.3282814
  16.9848394  78.5601044  21.8047142  17.0788908  79.1845942  23.1802678
  59.5064068  64.7268009  49.3134308  60.4528236  64.6545935  49.4371796
  59.3282127  65.6654835  49.3713093  56.3786745  62.3253679  56.5961456
  57.0738602  62.6348495  57.1768141  56.7443991  62.4143505  55.7160568
  30.4809451  66.6100168  32.8714657  30.1754236  65.8688784  33.3945370
  30.4989147  66.2783575  31.9737411  44.8192310  72.2593832  31.1627007
  44.2758608  72.6348925  31.8555045  45.6687260  72.1113920  31.5782571
  57.1154547  79.1792917  28.9183855  57.3592901  79.4500256  29.8035288
  57.8801918  78.7035465  28.5942245  69.0703290   7.0130727   7.8562754
  68.8235491   6.8849751   8.7722021  69.8761194   7.5282666   7.8951299
  32.7381706  82.7323532  50.7471466  32.2549009  83.4309769  50.3059959
  32.0973587  82.0296955  50.8560753  65.4006004  41.4949512  49.0635157
  65.9935141  42.0829296  48.5955763  65.5713320  41.6694689  49.9890566
   9.1079368   5.0540540  47.2442293   9.4602766   5.3807828  46.4163828
   9.7097053   5.3884599  47.9092693  49.7119617  82.7335548  60.5921745
  48.8831043  82.2855949  60.7611704  49.7491312  83.4256458  61.2523699
  74.3529701  71.7112160   6.9153154  75.0965500  71.1084652   6.9114947
  73.6739969  71.2571335   6.4162838  77.0016336  65.6889629  66.9251823
  77.9093790  65.7116747  66.6223526  76.9813395  66.2938356  67.6667690
  41.9026833   4.8159024  33.7434936  41.8386047   3.8901803  33.9783740
  42.8112071   4.9298856  33.4645200   7.1400060  40.7206532  36.7228937
   6.3825025  41.2162206  36.4117169   7.3967113  41.1596295  37.5338435
  53.1547880  76.4402866  49.9668646  53.1031513  75.9282398  49.1597891
  53.6774874  77.2067595  49.7311974  10.6028998  77.0303106  39.5445538
  10.6394362  77.7537537  40.1702738  11.5029204  76.7076874  39.4986105
  73.3619326  13.9203832  40.2329302  73.0630606  13.8110635  39.3301797
  73.1076067  13.1074044  40.6695366  62.8316133  11.4692494  37.3835778
  63.3350628  11.7386338  36.6153359  62.7422827  12.2679326  37.9035282
  81.7945116   6.2706658  42.6797009  81.9538467   6.5740582  43.5734558
  81.2724035   6.9663426  42.2801161  70.5995417  54.2190456  23.1432652
  69.8840809  54.8040199  23.3925653  71.3940525  54.7182608  23.3324051
  26.1928262   6.2293145  37.0337009  26.9567766   5.6711289  37.1787500
  26.1965360   6.8372437  37.7730489  32.7285957  58.9184475  45.4826736
  32.0361614  58.5963678  46.0597610  32.5071645  58.5636282  44.6216869
  13.1988737  55.4666948  49.4871330  14.0154383  55.6540537  49.9501181
  13.4692499  54.9648809  48.7181616  85.3352898   9.3111417  61.3524580
  84.8625009   8.6253735  60.8808422  84.6787565   9.7011945  61.9295740
  54.6695662  49.3786049  24.6605468  55.4473734  49.8658562  24.3888235
  54.4324875  49.7583532  25.5066061  50.8200210   4.8636529  40.1967764
  50.5905145   5.6170365  39.6527505  50.7868832   5.1967904  41.0935211
  32.0105774  28.6096097  71.2053916  31.8369085  27.6735688  71.1058959
  31.6389925  29.0071822  70.4179322  25.2379704  59.3388081  14.5245719
  26.0416579  59.3395376  14.0046501  24.5334888  59.3417740  13.8765526
  60.7787323   6.5510273  23.6749649  60.5220318   6.1721706  22.8342485
  61.5554142   6.0551304  23.9339805   0.1872083  58.5530853  64.4123268
   0.0568506  57.9680490  65.1586342   0.4266760  57.9713202  63.6909151
  75.7736588  45.6612730  57.8026295  76.0272884  45.2539444  58.6308718
  75.8517361  46.6014862  57.9643106  67.5756209   1.0042855  66.9371462
  67.2483867   1.2719914  66.0783768  67.1745437   0.1487538  67.0902491
  45.2023411  81.5324402  27.4832249  44.9546719  82.3908424  27.8267789
  45.2361250  80.9664536  28.2544255  53.0678511  53.4083366  49.9613333
  52.2600174  53.7477112  50.3466463  53.0314875  52.4652100  50.1207876
  62.4153870   5.5188653  34.9821639  61.8923085   4.9118516  35.5057573
  62.1832459   6.3851354  35.3166890  74.5090883  10.7061383  47.4122524
  74.5352476   9.8030469  47.0960808  73.6982458  11.0633180  47.0500469
  17.4168975  28.6516138   2.8080662  16.5085704  28.3925100   2.9631241
  17.9265983  27.8644748   3.0000265  50.6524801  78.9055681  48.2231140
  51.0508204  78.3362627  47.5647449  51.3601971  79.4904709  48.4937572
  51.0228539  45.1109409  44.5428658  50.4550743  44.5987320  43.9671040
  50.4629564  45.3482533  45.2820730  75.0199287  12.8931615  24.8162770
  75.1413458  12.0335957  24.4129872  74.0848558  12.9336926  25.0168467
  58.9501190  66.2643766  24.2990470  58.4054995  67.0143509  24.5381355
  58.4633160  65.5039024  24.6167350  61.0461044  41.2632608  70.8541918
  61.1644650  40.8871317  71.7263985  61.2418938  40.5434608  70.2543688
  48.5175896  77.9779911  56.0503340  49.4195557  77.7713156  55.8054399
  48.2339716  78.6203432  55.3998089  27.4389338  63.5191107  67.5468588
  27.6454329  63.5570526  66.6129684  26.7544770  64.1772413  67.6677418
   1.1764946   3.0418965  56.4706707   0.4187097   3.0509183  57.0554066
   1.5480032   2.1657559  56.5735579  42.4196005  76.6560459  40.2845764
  41.5154457  76.6771126  40.5980921  42.3559952  76.3139486  39.3928647
  75.5640268  75.0448465  42.5842381  74.8572922  75.4650068  43.0743694
  76.3484144  75.2073431  43.1082201  77.3223734  46.9742727  49.1017389
  76.6912460  46.7151117  48.4303617  78.1553030  47.0403051  48.6347294
  74.6967220  79.3921566  41.5607071  75.2365017  78.9411163  40.9115267
  75.0055504  79.0579653  42.4028301  69.9046421  57.2620249  67.2995853
  70.2866507  56.5908575  66.7340469  69.9537420  58.0665684  66.7833185
  28.1546648  53.8669153  15.0265892  27.5142438  53.8067098  14.3177422
  27.6361377  54.0904852  15.7994946   6.1355765  42.7888628   5.2676590
   6.1837561  43.6845823   5.6017407   6.4270527  42.2444483   5.9990128
  19.6451485  82.4732113  38.7223840  19.5010889  81.9084263  39.4816613
  20.5940247  82.5952530  38.6912537  28.7085938  80.4403782  40.5405283
  28.4468269  79.5361948  40.7141972  28.8695669  80.8137703  41.4070749
  16.3136232  77.9025650  57.6855230  16.9847846  78.0739975  57.0249271
  16.6875601  77.2124767  58.2334089  86.8485737  64.0481758  49.3266916
  86.6579056  63.4673691  48.5901165  87.3897839  64.7423077  48.9505100
   7.7175924  68.2746363  12.6110232   7.1291086  68.9963675  12.3896146
   7.4977609  67.5854445  11.9841909  83.6810129  20.2455422  63.5024118
  84.3546360  20.7237241  63.9859486  84.0816229  19.3981931  63.3081388
  53.7111664  53.3330965  46.9937515  54.2354345  52.5811672  47.2693920
  53.5935640  53.8485098  47.7917194  80.7880562  27.9119870  33.5450268
  81.4470308  28.4622857  33.1217623  80.9148806  28.0638406  34.4815564
  60.6981230  77.0078421  48.3757973  61.0493898  76.6271544  49.1807318
  60.8619356  77.9468298  48.4635782  81.3542526  15.9054849  45.6848907
  81.3778513  16.4045045  46.5013742  81.4162701  14.9911115  45.9611511
  87.8254669  16.5254685  58.3899879  88.6177891  16.0957334  58.7121439
  87.2915142  16.6612813  59.1727257  71.1826347  29.8418041   5.9946354
  71.6735063  30.5373235   5.5569943  71.7807291  29.0945001   6.0016831
  29.7959542  51.0609531  39.9731421  29.2142892  51.8210649  39.9844742
  30.6479120  51.4073324  40.2385139  61.8307543  72.6124334  47.4508095
  61.8499899  71.7017651  47.7449846  60.9610701  72.7215481  47.0661306
  68.3569997   8.3321282  48.4020090  67.5260108   7.8600022  48.4547424
  68.8798492   7.9777905  49.1212463  80.8016396  56.6664076  52.6249695
  81.4879227  56.9881344  52.0403814  81.2514305  56.4993238  53.4532261
  76.3776605   9.6649739  26.8003893  75.4412287   9.5339868  26.6514993
  76.5942829  10.4457852  26.2908387  50.4722118  72.6037931  19.1529822
  50.1437092  72.4499702  20.0387907  50.8307743  71.7591619  18.8804674
  52.0754194  67.3141289  48.8208532  52.1123314  67.7993441  47.9965734
  51.3806725  66.6691685  48.6882162  70.1841085  28.4175870  49.8490906
  71.1337631  28.5320374  49.8132086  70.0249880  27.5915143  49.3924618
   2.4210109   1.8383214  10.9917867   1.6597261   1.2928864  10.7938361
   3.0498352   1.6319558  10.3002512  58.4751368  54.1423130  44.8636150
  57.8975248  54.7053576  45.3789568  59.2471075  54.6822548  44.6940708
  13.4770891  77.7540112  30.1285505  14.1318342  78.0797815  29.5109606
  13.9467832  77.1092749  30.6576347  74.3804932  62.9978418  50.6335402
  74.0320015  63.5755968  49.9545765  75.0159311  62.4470139  50.1763296
  52.0888090  53.3449125  40.0771666  51.7387915  53.3513117  40.9680557
  51.9902515  52.4378967  39.7876191  13.8275995   2.2670838  35.8216381
  13.1956806   1.5676877  35.6550264  13.3653249   3.0699250  35.5808425
  57.3199749  48.6311102  11.6919541  57.7660799  48.7290812  12.5331593
  56.4350653  48.9598274  11.8504131  43.1884534  28.2564302  12.7989872
  42.2654016  28.1766554  12.5584801  43.4910543  29.0355249  12.3324211
  33.1173801  65.9113026  19.4742167  32.4160695  65.4111195  19.8916018
  32.6624179  66.5754128  18.9563346  47.6095438  64.3978643  32.1976089
  48.2127810  64.9081087  32.7379656  47.7070951  63.4993505  32.5128698
  83.8965521  50.3606750  70.6629270  84.6428500  50.3607322  71.2623205
  84.1647182  49.7851802  69.9465985  45.4167223  46.7537546  37.0423722
  44.5544386  47.1513319  37.1633482  45.6654167  46.4507675  37.9156327
  42.1150303  72.4076462  22.3716807  41.3885069  72.8001261  21.8875742
  42.6188040  71.9370031  21.7076492  44.0786791  50.0257730  37.8279996
  43.8878298  49.1588211  37.4699450  43.8462257  49.9588966  38.7541342
  63.4121960  23.9567849   9.7839910  63.3962005  24.6113393   9.0857542
  62.7028005  24.2163369  10.3718925  68.6898153   2.6360032  42.8093529
  68.3647840   3.4888360  42.5208044  69.6357649   2.6805398  42.6699734
  38.6285090  47.0190048  20.8417344  38.6533570  47.8192854  21.3662982
  38.6181855  46.3108063  21.4856124  54.1857760   9.5224378  29.2073822
  54.4820111   9.7461030  30.0896788  53.6267560  10.2553651  28.9494300
  12.9004312  57.7106237  66.0972977  12.5133431  57.2402382  65.3589678
  13.7240970  57.2535229  66.2671995  81.9413948  47.7180719  19.8382413
  82.7009201  48.2211208  20.1320124  81.7232418  47.1570730  20.5825043
  36.8105984  74.0089941  38.5857487  36.4932990  74.1497993  39.4777846
  36.1339235  73.4725714  38.1727195  51.4507103  77.7992201  55.4064083
  51.8337536  77.9846907  56.2637949  52.0346212  78.2330990  54.7842884
  42.7255678  31.1672854  23.3304548  42.2952795  31.9006824  22.8908944
  42.0054770  30.6331277  23.6656857  54.9047279  71.6005230  51.4847898
  55.5017853  71.8384600  50.7754660  54.1996527  72.2456598  51.4309216
  29.9893076  31.7397023  67.3474286  29.6203644  32.6107551  67.4936391
  30.9367497  31.8750907  67.3635657  31.5835238  80.9906960  44.3142462
  31.4177918  81.7313004  43.7309265  32.4381995  80.6572819  44.0411282
  69.6832912  11.7919633  49.3686104  69.2160266  11.2009332  48.7782049
  69.4844263  12.6677987  49.0375519  46.3512354  16.8299672  58.3828878
  46.7966192  16.1430356  57.8869057  45.4848116  16.4679143  58.5685253
   5.1514282   7.7369401  52.3063087   5.7420625   7.7081582  53.0590057
   5.5287876   7.1172902  51.6819143  14.6929159   7.5180337  45.4625702
  13.9327135   7.0681664  45.0938702  14.4649973   7.6597592  46.3813734
   8.8500585   3.3047292  49.3878841   9.3087091   3.9101693  48.8053799
   9.1657819   2.4386975  49.1299200  56.1668110  73.2422304  70.0724602
  56.6978741  73.3103037  69.2790079  56.1021662  72.3015738  70.2374315
  61.0201757  22.6853177   5.5335981  61.5989488  22.5428388   6.2825650
  60.1372140  22.6202580   5.8974397  21.9913681  65.7217355  16.7526158
  21.6770036  65.9487673  15.8774765  21.2216623  65.8118387  17.3144539
  42.7242899  59.2914677  45.9474659  42.6388693  58.5567522  45.3399038
  43.5269356  59.1068506  46.4352179  55.7828253   6.4334580  51.3852501
  56.2107270   6.5289113  50.5343533  55.9236639   7.2745892  51.8198681
   1.7281284  31.5307424  28.1848907   1.1288585  30.9663960  28.6733747
   1.9129553  32.2566030  28.7808847  50.5415957   0.6811902  29.0146661
  51.4107292   1.0024259  28.7745667  50.7046645   0.0505063  29.7160125
  25.6864061   3.5468862  38.9023352  25.9724512   4.3059346  39.4105124
  26.4130773   3.3711907  38.3045793  29.8803878  72.0863104  45.7263517
  29.7483635  72.4055529  44.8336697  29.3903565  71.2648249  45.7618713
   1.2372055  32.9565808  34.1114187   1.0329094  33.3338735  34.9670720
   1.2746610  33.7088487  33.5207200  18.2427073  70.8967257  45.5636549
  18.3431482  71.5289974  46.2752581  19.0056837  71.0424423  45.0043154
  74.5911281  35.8866212  22.6388431  74.2052763  36.5565202  22.0744038
  75.5352514  36.0258386  22.5648427  68.5353756  72.7358723  24.4881177
  68.7786484  71.8752766  24.8293304  68.5006952  72.6161766  23.5390639
  11.3169565  18.1706616  17.9749119  12.1737375  18.2386300  17.5535572
  10.8616342  18.9739892  17.7227592  13.3051433  27.8963944  18.8018978
  12.9909601  27.9131886  19.7059095  13.7817611  27.0694730  18.7292981
  51.9494527  14.2813584  71.6753101  51.8242424  14.0064046  72.5835800
  52.2398274  13.4892365  71.2231350  75.6736851  71.3699055  54.8876143
  76.5733624  71.3345623  54.5627022  75.1354504  71.1525822  54.1264915
  63.3203643  32.5304601  13.5574031  62.9446833  31.9129655  12.9298627
  62.8830688  32.3274133  14.3843126  74.4143932   0.3937623  49.6276665
  74.9190967   0.4570291  48.8168001  74.8858183  -0.2524474  50.1534128
  76.5167665  64.7846937  23.5878682  76.8907833  65.6405783  23.3785796
  76.5537786  64.7342205  24.5430207  84.6002977   7.6895997  49.9626637
  84.6253889   8.6178967  49.7305822  84.7041767   7.6776883  50.9141350
  58.9078093  68.9623690  59.8471642  59.0969706  69.8262930  59.4809771
  58.0177307  68.7675571  59.5538473  41.0594511  78.9563417  20.0871015
  41.3321877  78.4645367  19.3125212  41.6922092  79.6716547  20.1517081
  77.0846289  18.7354466  33.1572080  76.3903063  19.2960259  33.5034728
  76.7732304  18.4765050  32.2899055   0.4771223  24.6537206  34.9409580
   0.9438362  24.8308560  35.7576776  -0.3019390  24.1674897  35.2109027
  78.4305239  77.2904158  36.4678311  78.0358505  78.1530571  36.5955544
  79.3341684  77.3939276  36.7660761  69.4531219   9.5006463  31.0368156
  69.5686071   8.9764115  30.2443075  68.7563651   9.0554425  31.5190625
  75.3906488  55.5367756  21.9548082  75.5414677  55.5456781  21.0096073
  75.4075909  56.4595175  22.2087598   2.4949398  30.5161855  34.2683578
   3.3848180  30.7139584  34.5603085   2.0594158  31.3678548  34.2336321
  63.7878942  58.4375858  44.5758915  63.1120157  57.8659725  44.9401331
  64.1480350  57.9435205  43.8393927  67.9851532  74.3440390  32.8255224
  67.2332764  74.5642471  32.2755980  67.7078724  74.5720768  33.7128472
  55.3843975  67.9989910  40.4902029  54.9688435  68.8281012  40.7271051
  56.3228369  68.1861305  40.5136538   4.8165455  47.1033189  39.8438358
   4.1143264  47.3623082  39.2471409   5.3916254  47.8675076  39.8829603
  47.4644620  38.3360525   5.0130613  48.1441219  38.9833780   4.8252543
  47.7879245  37.8650661   5.7810267  20.9195049  82.9277845  13.9674862
  21.4908178  82.3075529  14.4204052  21.4117105  83.1803842  13.1863602
   8.0117628  61.1256027  45.1708126   8.4829923  61.7947340  44.6743870
   7.3853609  61.6178036  45.7014704  43.8569212  70.0507832  59.2706585
  42.9971886  70.3720570  58.9988422  44.4028568  70.1369190  58.4891415
  14.4376506  24.3949696  52.0142555  13.5176124  24.1315839  51.9944000
  14.8811092  23.6817452  52.4734831  30.7892282  62.7544924   5.8377751
  30.0497396  62.1775385   6.0288628  30.5323036  63.2169576   5.0400646
  60.7860947  72.2805071  68.5732508  61.4951992  71.7765951  68.9726019
  59.9967289  71.9833326  69.0258169  56.1360376  32.3376271   9.9646616
  55.4459064  32.2363278   9.3091559  56.2789958  33.2825944  10.0178659
  41.0163141   2.0294802   3.5212238  40.8744455   1.1978285   3.9733990
  41.8558526   2.3441832   3.8564356  10.1339252  80.9252692  65.7207416
  10.3623826  80.1804782  65.1645700  10.9004910  81.0504962  66.2801347
  63.7745564   0.1992413  39.5430231  63.5323160   1.0864064  39.8085189
  64.5298617   0.3193185  38.9674139  46.1657524  58.8669825   5.6386876
  46.2918139  58.7218571   6.5763861  46.1160421  57.9872608   5.2647233
  77.2101402  80.9325504  45.0287724  77.0940781  81.8744183  44.9036884
  76.3222456  80.5956554  45.1486826  82.1641541  75.4727554  53.2665586
  81.3689327  75.2350521  52.7897358  82.4981499  76.2428141  52.8064680
  68.8754354  34.1286512   1.9675787  68.9014815  33.1843754   2.1221502
  69.2231534  34.2361112   1.0822685  46.8975973  79.9513817  21.9430852
  47.0166016  80.1019573  21.0053229  47.0571899  80.8053589  22.3449349
  39.5709276  81.5094185  45.1054478  40.4599810  81.5437603  45.4584789
  39.6655273  81.7782497  44.1916561  12.4520006   7.7766606  56.8383455
  13.1572380   8.0848214  56.2692165  11.8113031   7.3930451  56.2395382
  86.3578418  72.9693651  18.3310056  87.0672845  73.4705734  17.9288697
  86.0423316  72.3972654  17.6314461  53.1382465  78.3421850  35.8098292
  53.8096142  78.8481283  36.2675595  53.6211777  77.8464842  35.1485515
  24.7832353  64.5737406  16.2292202  23.9805944  65.0481745  16.4457901
  25.4836710  65.2103277  16.3719471  66.7849684  60.4969549   5.0361812
  67.4087620  59.7835827   4.9012250  66.1708212  60.4194212   4.3060842
  65.2201717  35.7954976  15.1630867  66.1494630  35.6820008  14.9636602
  64.7695916  35.5412862  14.3577361   6.6225519  15.5990693  54.8259926
   7.4353923  15.6079862  54.3205833   6.3133516  16.5045258  54.7983122
   7.5221815  10.0153443  35.1190472   6.5862884  10.0307557  35.3192925
   7.5642719  10.0863072  34.1654086  33.1079912  73.4528065  17.3042214
  33.0043483  72.5195456  17.1184289  34.0273833  73.6350346  17.1099472
  85.8865356  66.7969894  45.8521509  86.4273167  66.7657471  46.6413307
  86.1222935  66.0051775  45.3687477  19.7336330  37.9914948  30.0259161
  20.0311889  38.6793706  29.4304991  20.2571525  38.1168458  30.8174014
   7.1501085  72.5001431  48.4530926   6.9834062  71.6689634  48.0085897
   6.4210913  73.0623484  48.1910086  42.0232637  56.0066934   0.5692871
  41.1901958  55.5548521   0.7037314  42.4689157  55.9437891   1.4140757
  61.4622211  67.9033995  42.6549768  61.8125486  67.0129395  42.6791096
  62.0591259  68.4106064  43.2051325  66.1900187  44.5936728  51.8924999
  66.8197441  43.9797211  51.5146875  66.5967131  45.4529524  51.7808247
  84.2225552  81.5501881  22.8732443  84.6115017  82.4015045  23.0737567
  83.7229443  81.3243389  23.6578560  24.0151777   8.5021588  24.5107293
  23.7904348   8.7546250  25.4062653  24.8540582   8.0485818  24.5931196
  60.3756826  25.5225942  30.1022840  60.3292482  26.3120934  29.5630479
  59.6964949  25.6452653  30.7655263   0.4971351  -0.1256183  27.5813937
   1.2866106  -0.0020888  28.1083632   0.5426397   0.5619332  26.9169903
  30.1610470  71.8895912  20.7007742  30.0916433  71.6822577  21.6326690
  31.0799241  72.1269226  20.5759954  49.5374584  62.1378374  12.6625228
  49.2176723  61.3490534  13.1004643  48.8958693  62.8123283  12.8853703
  78.0525701  22.4516484  60.5956030  78.3259170  21.6607568  61.0603523
  78.6782425  23.1208131  60.8730650  59.2739694  24.6228406  59.7004557
  58.3651202  24.8658559  59.8770189  59.6764725  25.4255769  59.3690252
  66.1632316  33.1776711  38.3806610  66.5512221  33.2047555  37.5060415
  66.9106453  33.0852982  38.9714861  45.6897838  76.0811659  28.3307083
  46.2009294  75.7963415  29.0882309  45.0528867  75.3797861  28.1941040
  56.3155794  71.7583513  32.3003554  55.4994297  71.4134932  32.6625752
  57.0032692  71.3378906  32.8166199  80.8230322  17.8656766  26.4127326
  81.5379827  18.0934140  27.0070481  81.2197273  17.2683236  25.7786632
  28.3489347  78.2401514  28.2949901  27.8740096  77.4168348  28.1817150
  29.2312741  77.9740524  28.5536337  55.3945787  16.5850778   4.3685063
  54.6253355  17.1037336   4.6040638  56.1292512  17.1921345   4.4577702
  72.4148083  66.0595179  56.5856647  71.7373991  66.1034632  57.2605133
  73.1327486  66.5893984  56.9321012   2.4374380  15.6441304  65.7347250
   3.1206073  15.3489587  65.1327467   1.9962921  16.3533589  65.2671576
  45.0936890  61.6756058   8.3286685  45.6820917  62.2663736   7.8585547
  45.0427961  60.8970070   7.7742082  80.1451748  45.8462522  39.4795847
  80.6424206  45.4686830  38.7540364  80.7760971  45.9058282  40.1969576
  57.3224688  66.6052818  26.9081283  58.2214069  66.9217157  26.9976687
  56.9313002  66.7481279  27.7699924  83.5757082   1.3196179  54.3775654
  84.2314213   1.6747186  54.9777174  82.9366033   2.0250031  54.2764711
  71.2849920   2.7018449  41.8890524  71.7914789   2.2658059  41.2037945
  71.2119453   3.6089799  41.5923977  55.6449366  79.8837900  36.9578648
  56.0161972  79.3252182  37.6407933  56.4027882  80.1857281  36.4571333
  69.5740795  52.6924992  35.9321928  69.0358496  52.8835392  36.7003393
  70.4722977  52.8471136  36.2246490  45.5210352  80.8041668  15.5829656
  45.9821272  81.2471485  14.8706520  45.2376318  81.5120506  16.1615944
  86.8538380  62.4229097  55.2606297  87.2716904  63.2612467  55.0635958
  87.0140743  62.2891331  56.1947918  53.8719576  10.5834481  44.4605017
  54.7148435  10.7729146  44.0483427  53.2716744  11.2277600  44.0853357
  -0.0584295  67.0345068  32.7167892   0.5336019  66.2973785  32.5671887
   0.4357454  67.6275682  33.2827377   4.6586647  26.1116692  50.7372808
   3.8917150  26.6537854  50.9220362   4.5524206  25.8501718  49.8226452
  25.2227964   9.6355817   1.5804838  25.7141962   9.8206994   0.7801825
  24.5289220  10.2948281   1.5933970  21.1654510   9.1129014   6.6292846
  21.9284238   9.2787549   7.1830016  20.9350433   8.2007882   6.8059236
  21.9451267  40.1675082  66.7648653  22.7505905  40.6805278  66.6994945
  21.5465338  40.4512645  67.5875704  86.7156696  67.0378447  39.0552330
  86.0374069  67.4958706  39.5516133  86.2476540  66.3383245  38.5993171
  86.9959354  77.4515390  65.0590038  87.4463367  76.7521286  64.5855188
  87.6218987  78.1756258  65.0690651  65.3044748  67.5526762  32.8485131
  65.4593039  68.4873915  32.7122498  66.1560583  67.2049475  33.1133175
  41.3391168  40.8901258  13.2958706  40.8184154  41.0403391  12.5068577
  40.7017143  40.6143327  13.9545830  32.2344310  61.8826528   3.2601078
  32.8233535  61.3008638   2.7795656  31.3732822  61.4728971   3.1779011
  62.0842092   8.2373998  48.7824726  61.4402788   8.9403626  48.8686752
  62.8681200   8.5763452  49.2147112   6.4309635   5.0974462  44.6108150
   6.1612787   5.2039716  45.5230379   5.7002582   5.4493043  44.1023874
  12.9661199  72.3427725  42.7416372  13.3136675  73.0763769  43.2488537
  13.3701250  71.5682745  43.1330013  81.8239611   6.2588975  49.9862146
  82.1921318   6.4465138  50.8496284  82.5829094   6.2281796  49.4037390
  42.7024031  64.3199253  61.6931057  42.3015022  64.2414856  60.8274508
  41.9993210  64.6477461  62.2538519  56.2773991  80.4785061  54.6354961
  56.6830444  80.7468224  55.4599285  57.0105219  80.3845787  54.0272665
  86.7296491  57.5998636   6.1421688  86.6718350  56.6611906   6.3204392
  87.3779808  57.9229971   6.7678555  70.9621572  64.0489864  16.4292777
  71.1791754  64.7246361  17.0716429  71.7776108  63.9039183  15.9494638
  23.8698217  77.9427767  19.4227219  23.4318754  77.2988653  18.8661098
  24.1045305  77.4561548  20.2128768  10.2239456   9.0126130  39.1261101
  10.0342312   9.8873898  39.4652319   9.6010437   8.8933751  38.4091640
  66.1181402  62.0872593  24.4371295  65.6843948  62.1545792  25.2877569
  65.4119492  61.8846464  23.8235521  77.5956171   6.2442967  12.5215530
  78.2105749   5.6998536  13.0131257  77.8503387   7.1427533  12.7316046
  43.7789488  80.8811665  61.7759895  44.2571211  80.0884438  61.5327311
  44.4617319  81.5304565  61.9446945  45.6100876  43.4923602  71.7102547
  45.9186871  42.7394630  72.2143797  46.3318808  43.6939956  71.1147776
  86.6881197   8.7343976  68.0949926  87.1697109   9.5261666  68.3345747
  87.0575254   8.0509564  68.6541700  77.9133592  23.1965776   1.3408526
  77.3841367  22.5877758   1.8561323  77.9451714  23.9934870   1.8701466
  76.9372146  31.0288903  41.1387491  77.6924770  30.8922860  41.7107153
  77.3171108  31.2691686  40.2936602  11.5076753  62.8819513  33.6731029
  12.0066950  63.6976004  33.7169623  12.1570513  62.1953917  33.8253403
  50.7977343  82.4560165  40.7376719  51.1973667  83.2105160  41.1704159
  51.0527325  82.5438499  39.8192549  84.2051332  42.9388234  16.4013052
  83.9635198  43.3075330  17.2509599  83.4418505  42.4250409  16.1373782
   2.4335470  16.3139817  25.8945584   3.2686701  15.8546349  25.8062220
   2.5694647  16.9201467  26.6227889   4.2898645  22.8707787  14.1105366
   4.8653640  22.1764466  14.4313717   4.0784778  22.6113698  13.2137346
  67.1238756  74.5813942  50.0346565  66.4013672  74.5746660  50.6624842
  66.7192650  74.3405437  49.2012835  55.7657290  77.3427629  26.4392853
  55.0641394  77.5975990  25.8400655  56.3637829  78.0901384  26.4395046
  23.6548445  68.6396122  46.6978264  23.2016203  69.4805050  46.7588234
  24.2244169  68.6181784  47.4668217  71.7811935   2.2348592  29.5224977
  70.9095209   2.3989865  29.8823261  72.0709293   3.0875871  29.1982603
  76.7693775   4.8161122  24.9675465  77.0001476   4.5004556  25.8412385
  76.4915579   5.7216355  25.1056814  53.0224657  65.4038095  39.4808888
  53.7349367  65.4123449  38.8417125  53.4600639  65.3010178  40.3259754
  31.8832636  65.2706766  40.8254719  31.3473654  65.0822353  41.5958834
  32.7619052  65.4185867  41.1752558   1.0354158  76.8315887  61.4935207
   1.6436884  76.6410208  60.7794428   0.5058882  77.5600100  61.1691141
  62.3207712  70.4877615  15.5900860  61.3831043  70.6504488  15.4874110
  62.7334547  71.0358429  14.9226069  76.8795460   5.2043054  61.7654324
  77.2964828   5.1195332  60.9079885  76.2688702   4.4684789  61.8086147
  84.3735712  10.5719945  -0.0184654  85.1681011  10.0658223   0.1510413
  83.7512081  10.2694890   0.6428873   2.4001684   7.0545194  33.0819225
   3.2474031   6.6122720  33.0285764   2.0390358   6.7794225  33.9246202
  56.2993908  64.7443867  63.8477516  57.1181297  65.2287722  63.9539337
  55.9577131  65.0340366  63.0018282  29.2286134  80.3413391  26.7626190
  28.6474752  81.0925484  26.8817449  28.8297081  79.6448469  27.2841644
  84.9276543  77.2554874  66.8950796  85.4446125  76.9898081  67.6556015
  85.5719280  77.3744440  66.1972332   9.8715252  55.0771999  60.3908157
  10.6273007  55.4316425  59.9224043  10.2167487  54.8267031  61.2477303
  86.2106531  25.4536530  41.9567156  85.5048340  24.8252103  42.1087217
  87.0026605  24.9978635  42.2416878  73.5550404  70.4603052  53.1355286
  73.5924387  69.5568657  52.8214645  72.7036333  70.5286360  53.5675716
  39.7122963  62.4673506   3.2377108  40.2557428  61.7113252   3.0156000
  38.8383729  62.2344919   2.9242428  32.7358873  49.7833772   8.7991532
  31.9876630  49.4643350   9.3037327  32.6060493  49.4206472   7.9229124
   4.8403951  62.4172115  17.2575259   5.3437921  61.8588877  16.6649926
   4.7715780  63.2538652  16.7976284  75.3746288  21.3863847  67.9364347
  76.1798733  20.8740613  67.8633881  74.6843307  20.7328698  68.0488729
  70.7882929  45.8524084  39.3716645  70.6276131  45.5295372  40.2583265
  71.6601229  46.2452745  39.4141507  17.2983303  17.7172753  46.3720274
  17.6362743  16.9857976  46.8887186  16.5283861  18.0165669  46.8556023
  55.4246753  19.0997407  49.0367031  56.1491816  18.8736913  48.4534121
  54.7338813  18.4758756  48.8134813  47.8667498  81.6786480  55.8435631
  48.4530354  81.6909981  55.0870228  46.9909668  81.5944958  55.4665279
  72.4531191   8.3159539  62.9039574  73.0185240   8.3626267  62.1330023
  72.0575493   7.4454972  62.8585243  66.4393759  60.0958967  49.9306107
  66.5806007  59.1729116  49.7199249  65.5417919  60.2714157  49.6481895
  84.6832531  10.4896638  67.3811579  85.5224245  10.1925179  67.7329111
  84.1543930  10.6837270  68.1550264  53.7008905  81.3544750  71.6883183
  53.6219645  81.7915154  70.8403873  53.2932520  81.9591713  72.3083210
  45.5778551  82.3933983  35.4988670  46.2257385  82.7398586  36.1124229
  44.7440863  82.7516842  35.8033085   0.0578315  43.3251334  50.6127517
   0.3462727  43.6781837  51.4544098   0.5441792  43.8307716  49.9615828
  14.6512499   4.1235921  26.0365129  14.3971290   3.4469125  25.4090118
  14.5155086   4.9474332  25.5684352  77.1891182  51.2391946  35.4981875
  76.4884680  51.7060849  35.9535217  76.7354124  50.5822942  34.9701118
  60.9396076  67.3440838  59.6440983  60.1739359  67.8505707  59.3730783
  61.6794300  67.7880621  59.2296410  83.5910130  65.7306671  44.2491102
  82.7905560  65.7255936  44.7739601  84.1765213  66.3306856  44.7110605
  42.5277662  62.6935816  15.9166420  41.6489124  62.5378990  16.2624907
  42.7159023  61.9208479  15.3839862  45.2836180  65.7762957  50.1295996
  44.6563959  65.0592422  50.2226973  45.7459927  65.5856085  49.3134594
  68.3148003  81.7767239  39.8711348  68.2410002  82.4530697  39.1978264
  67.4582052  81.7694855  40.2982473   7.5484234  17.4081075  62.7149630
   7.6468629  17.5559890  61.7743921   8.3654553  17.7310157  63.0949879
  83.3784345  26.9006658  37.5418615  84.1393998  26.9157934  38.1223226
  83.2689419  27.8109074  37.2667193  31.7335749  25.6037927  40.4941511
  32.4255729  25.9917212  39.9585366  31.3298273  26.3484621  40.9398985
  23.9924908   0.9823433  52.0762348  24.7648478   0.4861533  52.3473358
  23.3090973   0.7168662  52.6916456  49.3888549  63.8783470  29.5891356
  49.8498700  64.0276685  28.7636662  48.7773202  64.6115044  29.6579576
  15.5380738  48.2344437  31.2707162  15.4188740  49.0541935  31.7503381
  16.4331055  48.2815361  30.9346628  61.8569772  56.8102400  71.7501006
  62.1715801  57.1345441  72.5939511  61.7817204  57.5937180  71.2053711
  16.9332039  39.8802519  48.3283186  17.1539509  39.9091983  49.2592669
  17.3950100  40.6281233  47.9492950  17.8880155  21.4355040  16.5807855
  17.4442708  20.7997561  17.1421647  17.1785331  21.9404316  16.1834013
   7.7411252  26.6154265  34.3896198   7.9037452  25.6785250  34.2800665
   7.0388478  26.8107748  33.7692332  35.0155020   1.1287888   7.4667859
  34.5725894   0.4547817   6.9512528  34.5023322   1.9223860   7.3148286
  74.7024910  75.7914476  68.4735144  74.2840044  75.0566010  68.0250679
  75.1414864  75.3943757  69.2257432  64.3173197  19.4358289  53.5707712
  65.1303366  19.8474061  53.8637543  63.6627653  19.7165287  54.2103004
   0.8464246  18.2434940  61.2551785   1.6965517  18.3306491  60.8239937
   0.3165580  18.9494348  60.8848763  87.4180780  62.4642828  35.5122304
  86.8995080  62.6156381  36.3024259  86.8443761  61.9501880  34.9440742
  11.6734195  -0.1262101   5.0851947  11.9813919   0.7134820   5.4262263
  10.8133709   0.0676085   4.7123915  79.7715650  60.7971123  34.8842311
  79.7440491  61.0136059  35.8162212  80.7047282  60.7365754  34.6798539
  55.6244662  32.6437712  19.0178978  55.6430367  33.6007905  19.0165901
  56.4891818  32.3869967  18.6976409  11.9824970   6.9249874  18.4616351
  12.6538527   6.4545435  17.9674733  11.4951706   6.2384629  18.9170790
  26.3548071  81.6122533  42.1622610  27.0890839  82.2228090  42.0967340
  26.6750700  80.9127149  42.7317429   4.6996522  24.2596006  37.7169514
   4.7168961  24.5309806  36.7991877   5.3691500  24.7982955  38.1386256
  14.0106666  17.0586383  45.3549671  14.8504257  16.5996802  45.3747892
  13.5909820  16.7554891  44.5498610   8.6811280   2.0532668  64.5718145
   9.6376973   2.0494728  64.6063423   8.4728396   2.5006258  63.7516212
  34.9584477  23.3801071  68.5379843  34.8926400  22.9728107  69.4017036
  34.8781269  22.6512448  67.9227276  12.9262376  13.5633111  41.3964939
  13.6491489  14.1513467  41.1777544  12.5653923  13.3019173  40.5493259
  73.2806233  12.3127007  35.5082202  73.4166625  12.6938546  34.6407819
  73.3914843  11.3711548  35.3761840   1.3592488  31.9671512  53.7152958
   2.0223302  31.4388204  54.1596127   0.5330633  31.7065620  54.1224098
  30.2585919  78.0988499  20.2459431  31.0683567  78.5732126  20.4343319
  29.7385866  78.1859490  21.0448408  13.6578877  77.4016622  26.9080567
  14.3995840  77.7351418  27.4129415  13.5810930  76.4848760  27.1723247
  16.4517862  71.5657106  24.3631029  17.3746473  71.7073539  24.1521597
  16.1985285  72.3417118  24.8630166  38.7366044  72.9021596  11.7320831
  38.4460180  72.7948688  10.8263882  38.2408898  72.2460388  12.2219856
  28.5703850  27.2808218  24.6618366  28.1910300  28.1501770  24.7904611
  28.4501266  26.8401718  25.5030227  43.5557787  82.5117592  64.4221089
  43.5320179  83.0706028  63.6453442  42.7585607  82.7352623  64.9024437
   3.7281960  34.1139293  67.1434450   2.8663990  34.2625093  66.7542648
   3.6462757  34.4416642  68.0390549  47.2896051   0.1259656  25.3880310
  47.6201963   0.9812186  25.6627703  47.8611517  -0.5040300  25.8269739
  18.7913549  36.6180468  36.2291098  18.4891343  37.1737313  35.5107021
  19.1890693  37.2266817  36.8516994  69.0796249  54.3935553  69.9558860
  69.4753640  55.2522008  70.1053962  68.1616466  54.5067231  70.2023390
  16.3224721  45.8398199  40.2584124  15.7862878  45.2069616  39.7806764
  16.8083751  45.3120327  40.8921099   1.9375554  14.0178895  36.9636679
   1.1672992  13.7317801  36.4726686   1.6571060  14.0038168  37.8787541
  71.5860573  11.8280244   8.2075655  71.4337090  11.6095507   9.1269624
  72.0438543  12.6682448   8.2337236  26.4400268  29.8112392   3.5911921
  26.6947103  30.2567673   2.7831858  25.9414792  30.4666471   4.0791714
  15.0806689  25.2476478  33.5085225  14.7050750  25.3660679  32.6360893
  15.3125072  24.3196869  33.5455394   1.1901246  41.2707758  60.5481768
   0.3097729  40.9268141  60.6995058   1.6512020  41.1202717  61.3733959
  86.9575153  66.2904242  20.8654475  87.5386701  66.0752740  21.5949678
  86.0837446  66.0558608  21.1780787  87.0299023  19.5295429  24.3204546
  87.9465161  19.2546117  24.3419862  87.0672599  20.4787874  24.2031074
  27.1674180  45.3395414  25.4287243  27.6068783  44.5842552  25.0380182
  26.2486362  45.2367926  25.1807022  13.7473750   6.7386889  52.6349592
  12.9207516   6.2621498  52.5585699  13.4993517   7.6607633  52.5679159
  50.8869866  71.4576617  34.4242096  51.0228334  72.1513000  33.7787294
  51.2119708  71.8274131  35.2451253  10.1176012  13.8267207  23.1452250
  10.0488234  13.2971084  22.3508620  11.0498631  13.8135588  23.3618927
   7.3200619   2.7547130  32.9323316   7.1419311   3.3072758  32.1712947
   6.5590125   2.8763103  33.5000014   1.0348280  34.3113470  36.4569378
   0.4843314  33.8351083  37.0785332   1.9216160  33.9965630  36.6322923
  49.1381536  66.6527584  24.2701602  49.0455476  67.5154045  24.6745062
  48.3798967  66.5771165  23.6908865  61.9869305  58.5508922  55.0908756
  62.6115219  58.9684442  54.4977760  61.3110949  59.2138031  55.2324009
  15.0292807  40.5137464  63.0607210  14.6919208  41.2602807  63.5558037
  15.5007927  39.9900926  63.7085591  17.8789771   5.2066040  25.1761293
  17.7744663   5.5020761  26.0805655  18.1810117   4.3015817  25.2532101
  76.2546907  73.8093546  29.2317891  77.0150075  73.4196612  28.8001752
  75.8018504  74.2852417  28.5355854  33.7662983   7.2940409  34.7927904
  34.1073942   8.1806457  34.9103403  34.3019342   6.7525244  35.3725195
  46.9685841   6.6487497   0.5729087  46.5482998   6.5431094  -0.2805739
  46.5470648   5.9944522   1.1300851  87.5162868   0.1415255   4.5610812
  87.7466937  -0.3748520   5.3334147  86.9493152   0.8355461   4.8973998
  76.1510411  13.8495374  41.4489174  75.3236392  13.9585519  40.9801388
  76.3341799  12.9114795  41.3965893  27.2240043  32.9156709  47.7906322
  28.1743813  32.9037023  47.9040861  26.8773627  32.6662850  48.6472988
   2.4252159  65.7450011  43.0504179   2.4218995  66.5974334  42.6150131
   1.5497381  65.3918245  42.8921890  17.1394253  13.1128359  67.8796101
  16.1888623  13.0286884  67.9543257  17.4803317  12.2832787  68.2140493
  74.5749317  68.8083485  42.8685760  74.3064556  68.4369519  42.0282078
  75.4056130  68.3761242  43.0670261  49.4603376  81.6134226  24.2187214
  48.9594219  81.0919197  24.8458982  50.2126072  81.0644330  23.9975119
  21.9152498  21.1277533  40.0612593  21.7133522  20.1973128  40.1600170
  21.8613577  21.2858033  39.1187358  78.6344693  78.3129769  10.3284025
  78.3137081  79.2076865  10.4417109  78.2684288  77.8315470  11.0703409
  78.7270704  18.9523625  57.9979753  77.8707543  19.1148436  57.6023054
  79.2896876  18.7130272  57.2614861  15.3209722  47.5253296  46.6995621
  15.1280117  48.3356476  46.2279892  14.4760656  47.2467661  47.0527840
  18.2548511  10.6297636  22.1271300  17.9539216  10.2806973  22.9660749
  19.0101647  11.1734641  22.3510098   7.8503066  65.8463097  11.5768111
   8.3365744  65.9115791  10.7549131   6.9654727  65.5946827  11.3122666
  13.7626827   9.1951710   1.6038340  12.9418087   9.0088987   1.1480926
  13.4974325   9.4026923   2.4998301  76.7288879   2.7512068  31.4251542
  77.0728079   2.1479927  32.0840049  77.4890688   3.2632551  31.1491776
  37.2678433  80.5362737  35.1814389  37.6362000  79.7812197  35.6401730
  36.6102300  80.8847889  35.7833624  32.5960588  15.5148804  40.5661011
  32.2207308  15.2954173  41.4188576  33.4813404  15.8195519  40.7653046
  69.6719503   6.6861683  24.6422458  68.8854456   7.2175407  24.5186090
  69.6005058   5.9956372  23.9832354  29.5155644   8.2247823  50.5858183
  29.7695875   8.2174176  51.5086651  29.4105792   9.1522580  50.3736925
  83.7998384  30.8204937  17.4191654  84.6648079  30.9944558  17.7903748
  83.1955722  31.3026524  17.9836273  78.4339407  36.8425083  49.2885923
  78.0387905  36.0131145  49.0199041  78.3872810  36.8314552  50.2445936
  52.7310324  11.8997180   5.3980786  53.3477831  11.8945324   4.6660787
  52.2227097  11.0960603   5.2886772  47.3883343   4.2654034  17.8794599
  47.4693060   3.3242083  18.0338192  47.2667074   4.6414983  18.7512350
   3.2374221   4.3731898  52.6887035   3.6876401   4.9197802  53.3327341
   2.3164220   4.6225488  52.7649307  21.6832471   0.6823474  26.2023902
  21.5675092   1.0400301  25.3221059  22.5221133   0.2227829  26.1658049
  15.4015195   5.1819324  31.3099337  14.5323753   5.5819064  31.2809443
  15.3588772   4.5692948  32.0441604  10.2212632  41.8372059  47.1397686
   9.2988014  41.5861511  47.1874094  10.6921589  41.0902929  47.5093794
  55.0952289  51.2309173  44.1874027  54.9801976  52.1626905  44.0008593
  55.9445007  51.1774662  44.6257114  13.7372971  11.0867763  15.9155095
  14.5274627  11.1153746  16.4550018  13.3282256  10.2494490  16.1340857
  61.2193143  58.2912186   9.2937785  61.6118217  58.2305410  10.1646900
  61.8987034  58.6931041   8.7523454  40.2246141   6.1683482  35.5115557
  40.8476257   6.8373096  35.7954168  40.7707882   5.4706025  35.1495099
  14.1484487   7.1208274  33.3827257  14.9525976   6.9453603  33.8713837
  14.2591405   8.0120122  33.0514097   7.9992039  69.6833971  19.8739016
   8.3255036  70.5234674  20.1964617   7.9094774  69.8081103  18.9291120
  10.8451211  65.6636953  10.5111682  10.8743727  65.0833178   9.7505522
  11.0917914  66.5221596  10.1670313  29.9003434  18.5701716  58.3028746
  29.8410988  17.9658198  59.0427923  30.2677798  18.0440044  57.5926876
  68.3489838   0.0055848  55.7241917  68.2398132   0.4339303  56.5732145
  69.2888787   0.0552690  55.5499506  15.4220641  36.5190983  33.1744099
  15.9186208  35.7223749  32.9876065  15.6674027  37.1239233  32.4742460
  23.9952254  34.9913239  42.1143055  24.2530131  35.5008626  42.8825140
  24.3385005  35.4877806  41.3713884  66.6277593  58.4553956  16.3477810
  65.9962504  57.7608072  16.5347965  67.1648686  58.5099517  17.1382054
  40.0647068  33.7339139   5.1983798  39.3756032  33.2363725   4.7581267
  40.6291056  33.0669951   5.5894065  18.1468582  19.2589426  40.5713749
  18.8258755  19.9334466  40.5859423  18.6301064  18.4331906  40.5424309
  56.8111658  11.6829014  48.7674665  56.2761068  11.2423563  49.4276667
  56.2231493  11.7990553  48.0211592   2.0503194  80.0697765  21.9291186
   1.8925531  80.1433816  20.9878826   2.1446759  79.1298112  22.0833731
  28.1186056  22.3189473  35.0780010  27.8254294  22.4029827  35.9853148
  29.0736175  22.3568988  35.1303935  70.5768309  63.2679287  59.9393082
  70.6102393  64.0956214  59.4596863  70.9673844  62.6294258  59.3426418
  86.6876113   5.3377956  48.7037611  86.9854537   4.7383091  49.3879700
  86.0919970   5.9373212  49.1532564  30.8867288  37.6883626  13.6431122
  30.1402736  38.2025194  13.3354127  31.6209960  38.3023500  13.6328661
  33.3604717  24.9224567  44.0128374  32.4805021  25.2700210  44.1580343
  33.2672930  24.3427324  43.2568789  77.3145984  79.9876827  34.4081283
  77.5016949  79.2436930  33.8356733  78.1682525  80.2394029  34.7604680
  10.8295119   5.6022739  49.6596956  11.1277115   6.5061021  49.7616911
  10.8429658   5.2440250  50.5472279   6.7408001  16.9982076  30.0927114
   6.1890411  17.3645723  29.4016457   6.8951607  16.0933089  29.8214865
   2.1178414  24.2649937  56.8566561   2.2239597  23.3942103  57.2396803
   1.9466011  24.0996027  55.9295321   9.7519916  16.9926786  45.0207996
  10.3663218  17.4974048  45.5537891   9.2356580  16.4963198  45.6558228
   5.6321061  13.7777436  35.3541136   5.3483641  12.9065132  35.0772047
   5.1871145  13.9202929  36.1895156  64.4318066  81.8364689   1.1553467
  64.8756287  82.4724444   1.7164074  64.7469822  80.9860383   1.4613926
  33.2096528  67.7778153  71.5149809  33.5434328  66.8921570  71.3720341
  33.1450044  67.8587226  72.4665619  30.1313005  74.3897793  12.4114871
  30.7548724  75.1111415  12.3276472  30.5579720  73.6524102  11.9750571
  81.8418154  29.1844726  63.9391232  82.6419434  28.6601925  63.9731503
  81.3606647  28.9387369  64.7292757  74.9127076  63.2571784  44.6659565
  75.4180799  63.4033683  45.4656172  74.4460378  64.0807047  44.5236301
  71.7412672  62.6015022  41.9278431  72.1398149  62.2530249  42.7253103
  72.3945389  63.2078555  41.5788412  41.8123913  22.6618862  44.5992947
  42.6367235  22.4180007  45.0202799  41.5883493  23.5091472  44.9842453
   1.4151715  23.6635780  24.8654556   1.8371139  24.2881441  24.2754459
   1.1222634  22.9541111  24.2935348   4.0743420   4.8337328   2.9266208
   3.8949227   4.1814780   2.2494173   3.7191525   5.6494731   2.5735775
  86.6302590   7.4211967  17.6840389  85.7962507   6.9761330  17.5337732
  86.7314060   8.0015087  16.9295597  34.0550549  69.3565288  22.2601318
  34.7328217  69.8092773  22.7620125  34.0658648  69.7835389  21.4035249
  15.5077498  32.9178612  53.1575648  16.0882585  32.2105245  53.4384851
  15.6838636  33.6304901  53.7718729  17.6182938  18.8456345  22.2750640
  16.7898142  18.4161210  22.0620608  18.2570708  18.1333125  22.3032331
  52.3167849  31.6224551   9.1546899  52.2543430  30.8626580   8.5758621
  52.9681969  31.3716793   9.8096764  10.4281878  16.6180408  34.5221877
  10.9312582  16.4079654  35.3089666  11.0463512  17.0853937  33.9603257
  38.5562038  22.3915410  55.9640312  38.0777717  22.7375412  56.7174339
  38.0980802  22.7503586  55.2040243  41.0852575  21.4963245  24.6631145
  41.6761112  21.8678284  24.0080500  41.6652393  21.1697292  25.3510022
  38.0195284   7.6236486  39.7633076  38.2857418   7.8398806  38.8696599
  37.4173188   8.3254898  40.0102758  10.6404912  25.2952838  12.6738787
  10.5075431  24.6809578  11.9519651  10.0957823  26.0497856  12.4497080
  19.1048121   8.4083682  53.6968756  19.1674769   8.1442374  54.6147728
  19.7518945   7.8653741  53.2466841  30.0842142   7.5913930  69.8299980
  29.1432929   7.4569017  69.7168159  30.3061485   7.0855099  70.6117010
  82.2804985  64.0781572  64.1641426  82.2137366  64.0638402  63.2093811
  83.1737910  63.7864008  64.3461800  49.7699086  65.8140948   6.7977643
  49.2733453  66.6319540   6.7701483  50.1974992  65.7645205   5.9428138
  85.7626853  72.8506258  45.0646782  85.8398185  73.6684778  44.5733547
  84.8306833  72.7827814  45.2720499  73.9428244  78.2110235  48.4897757
  74.8431418  77.8937498  48.4190750  73.7177298  78.4924719  47.6030111
   3.2000518  50.6268215  31.2179351   2.7422047  50.5640697  32.0561886
   3.9521727  51.1910105  31.3974738  65.2018598  26.5988469   4.4917628
  65.7106999  26.4804745   5.2938235  64.7256687  25.7752037   4.3864685
   9.4744533  23.7426472  37.4315095   9.8059791  24.0840864  36.6010022
   9.8671716  24.3078995  38.0967116  32.4177384   3.5608935  26.9288111
  32.6148939   3.9166686  27.7952886  31.5370560   3.8808554  26.7332315
  85.1667857  13.7123823  31.4429903  84.4179079  13.4950256  30.8878589
  85.8862609  13.8575292  30.8285642   5.5732316   4.6682456  38.2347965
   5.1892942   4.0200496  38.8252759   5.0699514   4.5824549  37.4251175
  17.3607516  33.3666754  13.5766149  16.8805456  34.1823006  13.7194061
  17.7456748  33.1629872  14.4290090  47.1499400  38.5288168  64.8418753
  47.9876761  38.1851716  64.5314912  47.2456710  38.5699160  65.7933889
  78.1570193   7.6579148  39.9949121  78.7711713   8.2080799  39.5087361
  78.6607215   6.8746948  40.2164555  72.6084600  66.2602320  47.1749735
  72.9985998  66.9996467  47.6411152  71.9401727  65.9257260  47.7730799
  59.3686663  70.8828071  34.6160293  60.2669389  70.6368497  34.3950248
  58.9539094  70.0618997  34.8812056  36.4813662   6.4897853  67.0354462
  35.8656478   6.2440622  66.3449812  37.0401812   5.7201266  67.1430683
  81.6244516   2.4886681  15.1636386  80.8955434   2.4942544  14.5432401
  81.7841420   1.5609795  15.3372025  15.1046216  18.0475008   3.6271399
  14.7799873  18.2055783   2.7406549  15.2412188  17.1009338   3.6669436
  27.4604201  25.9493303  65.6626320  26.6533327  25.4373288  65.7145739
  27.8015184  25.7705164  64.7863293  75.3070698  65.9600690  71.3725185
  74.6502087  65.2648392  71.4102125  74.9195764  66.6250852  70.8034515
  11.5953028  28.2920861  21.1647463  10.8232236  28.6270761  21.6207147
  11.7436945  27.4277163  21.5482497  64.0987674  82.7607298  54.6820927
  64.3798224  82.6461853  55.5899048  63.3520214  83.3571334  54.7359943
  37.9146218  27.8084397  20.2166796  37.8540540  28.6268902  19.7240329
  37.0211434  27.6435113  20.5178881  35.5347323  16.7123210  70.6320477
  35.0046921  16.3033712  71.3161898  36.4146829  16.3613260  70.7688713
  37.0619321  26.0241890  47.3507214  37.0034933  26.9233942  47.0278454
  37.9250622  25.9727550  47.7613163  42.4451780  35.0797725  25.6102443
  42.6393604  35.4542136  26.4695001  41.4941025  34.9717855  25.6054235
  18.4037352  19.3062639  28.6321855  18.1844437  19.7923827  27.8373051
  18.9902568  19.8886371  29.1149545  35.3318453  22.6189852  14.1335261
  34.5973301  22.3371172  13.5883009  36.0582876  22.7268243  13.5196185
  51.8318892   9.7779578  40.1660490  51.1531067  10.2561855  40.6422710
  52.2337151   9.2122859  40.8254242  70.2136891  58.7048868  54.1068749
  69.5670693  58.2812206  54.6713404  70.2988665  58.1165127  53.3566801
  63.8751500  65.5040268  70.9293765  64.5360558  65.9070949  70.3663744
  63.5928075  64.7261814  70.4482652  12.7189732   4.9928400  44.8211813
  13.5828435   4.7009289  44.5300627  12.4847138   5.6927705  44.2117119
  40.1144838   8.8225305  24.2333031  39.8802733   8.3538073  25.0343490
  39.2771530   9.1152936  23.8735867   5.0925388  60.0783132   4.2633207
   5.2916803  60.8815478   4.7443493   4.1368665  60.0248765   4.2715843
  36.1414336  76.5985469  61.9843410  36.6813414  75.9049539  61.6053180
  35.9051053  77.1519212  61.2399237  74.9470428   3.2366002  68.6684036
  74.9211302   2.3254630  68.3761883  75.3760114   3.7055698  67.9526615
  23.4516668   9.7800547  41.5933704  23.5690713   9.4907999  42.4982357
  22.5113320   9.9399388  41.5131235  38.0649900   7.4191988  36.5205884
  38.2551384   8.3538049  36.6017413  38.8628936   7.0439023  36.1481214
  44.4340277  32.5999188  13.2327342  44.4832468  33.5510921  13.3280146
  44.2574787  32.2794247  14.1172373  76.6086391  12.2755945  34.8316002
  75.6847408  12.5074160  34.7372437  76.8428019  11.8784428  33.9927506
  83.9076582  15.0164604  54.4721317  83.3031228  14.2962623  54.2930174
  83.6032683  15.7298136  53.9111471   0.8153530   4.1292951  38.9636016
   1.2855494   3.4096074  38.5426545   1.3417658   4.3408409  39.7345567
  69.0462020  23.4154344  66.4512920  68.5436073  24.2039895  66.6557789
  68.4639791  22.6927829  66.6858673  32.1943808  32.3409843  36.4843917
  31.6269946  32.9215670  36.9915676  32.6326561  32.9195452  35.8603621
  46.5210777  76.4959406   8.3214100  47.0979684  75.9245847   8.8283356
  46.8633848  77.3769616   8.4725960  21.2215590  24.9952269  43.4238529
  20.6554365  25.7648587  43.4822130  20.6962204  24.3464303  42.9555416
  78.5097727  25.2858949   3.2579100  77.7437165  25.3186965   3.8308975
  78.5415247  26.1515713   2.8506905  20.9574373  11.9639202   3.4085520
  21.4480646  12.7018018   3.7705525  20.1816566  11.8959947   3.9651306
  43.7643242  64.6915483  22.2337604  44.7182846  64.7701502  22.2374892
  43.5989523  63.7720060  22.4419045  37.8568983  13.7829840  28.9096355
  37.0075607  14.1584539  28.6775136  38.3355188  13.7431777  28.0816460
  23.5226512  28.6995602   3.9393973  24.0612936  29.1023779   4.6204504
  24.0737700  28.0057740   3.5772410   7.0356018   1.6640569  50.4470651
   7.4503786   1.4596797  51.2851731   7.4399263   2.4876643  50.1742617
   2.4936345   8.1736165  23.4729981   3.0997637   7.6647174  22.9346108
   2.0322248   7.5194114  23.9977336  50.8910608  18.9689827  12.0432901
  51.2585163  19.7163093  11.5713680  51.6541290  18.4610057  12.3188221
  68.6331932  81.2461822   6.8872261  68.9409194  81.2574521   7.7935421
  68.6513195  82.1641786   6.6166973  65.5159044   1.8183109  43.0082417
  65.6990671   2.4339394  43.7179470  66.3544846   1.7149742  42.5584221
  49.4191122  45.9763622   5.2259165  50.0557852  46.6850901   5.3185445
  49.1636658  46.0028696   4.3038124   9.2329590  46.4392031  66.2230371
   9.1312377  46.7136864  65.3116952   8.6866658  45.6569798  66.2999819
  63.8863955  73.9105025  18.2708395  64.1881661  74.8157665  18.3460939
  62.9979161  73.9824209  17.9220366  51.3381759  72.9474345  14.4600868
  51.1168651  72.4914196  13.6481106  51.9368050  72.3534205  14.9128795
  85.0012884  15.8046198  20.6379080  84.0938491  15.6611431  20.3692079
  85.3347218  16.4537370  20.0184727  86.3897841  42.3685455  64.0183258
  87.2769191  42.6554966  64.2348480  86.5060955  41.7615223  63.2874155
  12.4812675  21.0756350  70.6686831  13.2743430  20.9891939  71.1976337
  12.0559609  20.2205420  70.7331944  59.5204847  29.2191891  65.7643424
  59.6764128  28.2751755  65.7918255  58.7645404  29.3538217  66.3358794
  28.6432719   1.5962026  42.6964998  28.7073398   0.9367359  43.3873224
  29.4707799   1.5257078  42.2205925  86.1376156  32.8652358  17.9921770
  86.1703070  32.2089362  18.6881900  86.3657037  33.6869550  18.4269035
  62.5514534  69.9520540  47.2673559  63.4849337  70.1199150  47.1382523
  62.5221303  69.1472244  47.7846766  31.1131763  25.3057075  51.3051701
  31.5744090  25.7714868  50.6076384  30.2896070  25.0282121  50.9039688
  87.0446038  45.1010132  40.6146097  87.2298309  44.7558594  41.4879894
  87.9074434  45.2446318  40.2258778   5.9365880  25.9057403  39.5593977
   6.3516378  26.7049265  39.2349505   6.2497199  25.8218837  40.4600382
  45.9887886  18.7078786  45.1339436  46.1525583  18.5597193  44.2025661
  46.8055773  19.0820825  45.4641914  19.5958579  27.5776720  49.1254663
  18.8865709  28.2201695  49.1069794  20.3082442  28.0205536  49.5865488
  18.9628065  54.7479057   6.1263144  18.7020969  54.1675329   5.4111719
  18.2372987  55.3667831   6.2091327  14.7175360  32.2798300  38.7878108
  14.8180687  32.9712009  39.4421291  13.7966526  32.0255971  38.8475490
  87.8551273  26.6816378  47.1452284  87.4862161  26.9770455  47.9776144
  87.7867643  27.4430990  46.5692663  72.5095365  82.3411841  27.1332884
  72.2875665  83.0837214  27.6950693  71.7783199  82.2787870  26.5187478
  11.4500630  15.9841955   4.4028741  10.9745121  16.4757144   5.0725698
  12.2998095  15.7966363   4.8016018  34.7248793  25.5440450  19.7764266
  33.9216399  25.6966305  20.2741766  34.4733787  24.9108505  19.1040850
  61.1702231  61.2573147  55.3577328  61.5737751  61.8805027  54.7535706
  60.7015589  61.8041706  55.9882355  30.2260256  17.7353430  52.5465727
  31.1445451  17.9963279  52.4799538  30.0431848  17.2893059  51.7196178
   0.1229217  12.3823273  29.5191121   0.4866217  12.8863347  30.2470756
   0.0741998  11.4853036  29.8495793  83.9105735  77.7754334  64.2204332
  84.6049795  78.4114972  64.0488148  83.7877379  77.8051034  65.1692581
  13.8050508  20.2978778  31.4914632  14.5601749  19.7324133  31.6535425
  13.5268676  20.0770521  30.6025982  74.4570587  78.9633733  38.2843065
  74.2009638  79.8090374  38.6524081  74.0439544  78.9429161  37.4210811
  35.2498507  14.5555353   4.6424153  34.3549323  14.7139513   4.9428448
  35.6548977  14.0542865   5.3501701  51.7114202  77.4183658  32.5270367
  51.5903864  78.0692401  31.8356991  52.5413207  77.6583037  32.9392576
  25.5200720   2.1711634   9.6384567  25.8293676   2.6500437   8.8695347
  25.3604198   2.8493792  10.2947855  21.6769314  12.7786195  14.2683351
  22.6081657  12.6774621  14.4653106  21.2297678  12.4315739  15.0402403
  83.2718754  38.9468455  18.0997825  83.0033919  39.6642494  18.6737847
  82.9078367  38.1625366  18.5103536  13.1133556  37.4452066   5.5179828
  12.3140204  37.8399491   5.8665150  12.8167617  36.6425109   5.0890970
  33.2397223  27.1936488  26.5638757  32.5959063  27.1023893  27.2663045
  33.1166244  26.4133596  26.0232949  28.8920903  29.8804665  17.1897030
  28.4578443  30.6417131  16.8047798  29.5091867  29.5914149  16.5174890
  40.8613825  20.9888911  27.9692602  40.6382608  20.3627515  28.6580229
  41.8169355  20.9609795  27.9205775  49.4942188   6.6994822  20.5278850
  49.3539667   5.7553130  20.5993485  49.6373463   6.8503207  19.5935440
  26.4080858  38.3344960  23.2847619  27.2659564  38.3422947  23.7092948
  26.3572502  37.4766231  22.8632140  73.9483969  50.9601007  70.9709824
  74.1186755  51.7931513  71.4106010  73.0455725  50.7455544  71.2057286
  60.5644934  46.9290410  61.9743816  60.1775734  47.4333511  61.2587027
  59.9570696  46.2019439  62.1107588  19.5195425  38.4026217  42.0060444
  20.3040004  37.8552866  42.0418310  18.8049757  37.8131104  42.2470951
  79.3755964   7.3345721  33.7627101  80.2931145   7.2128218  34.0067792
  78.9244607   7.4836117  34.5936704  15.5163169  53.0552435  37.1094275
  15.0626051  52.5245142  36.4546752  16.3399112  52.5925732  37.2638988
  59.1286039  49.3774033  18.6222398  58.3544445  48.8214254  18.7105536
  59.8011208  48.7967587  18.2661426  41.5927415  65.0710754  69.9725102
  41.8233399  65.8151464  69.4162596  42.2914712  64.4342784  69.8225145
  25.9438181  19.7665322   0.5773845  25.0823331  20.1805544   0.6289933
  25.7627296  18.8719296   0.2890700  23.4662592  20.0799273   1.6111048
  22.9994803  20.2332448   2.4325951  22.8133988  19.6817588   1.0353764
  25.8096037   6.7885829  70.3297205  26.0351048   5.9138919  70.6464261
  26.5993128   7.0921899  69.8820458  75.0356570  16.7870855   0.8834694
  75.1209346  17.5387740   1.4699204  75.6857780  16.1604750   1.2011676
  27.2441459  32.2186923  44.2480659  28.0756998  32.6855206  44.1654968
  26.7640281  32.7017736  44.9206400  23.0876708  33.4978867  53.0070162
  23.5029721  33.3645487  52.1549702  23.2412052  34.4214153  53.2063961
  24.3981361  18.0536902  15.6591558  24.3278027  17.1038365  15.7543647
  25.0229287  18.1771636  14.9445796  -0.0554576   2.5472191  35.5601764
  -0.4582718   2.3518345  34.7141290   0.8422746   2.2254050  35.4780531
  35.1997995  33.2352734  20.8391452  34.9810505  34.1671395  20.8413625
  34.5993495  32.8467846  21.4753580  20.4660153  24.9484849  61.2734175
  20.1077890  24.5073795  62.0436954  21.2320137  24.4270587  61.0334253
  69.5768261   9.7940898  23.6672640  70.0804520   9.8040903  24.4812012
  68.9893723   9.0438622  23.7582994  34.0301466  30.1157498  22.4934101
  33.7986112  31.0338974  22.6335073  34.0896535  29.7466063  23.3745599
  22.5021911  50.4976845  60.3409529  23.2219338  49.9900436  59.9661207
  22.3767018  51.2230968  59.7291851  87.3022318  40.7804346  40.4553270
  86.6676021  41.0483170  41.1199427  86.7685434  40.4316998  39.7413301
  18.2598138  41.1465025  44.7701931  19.0730560  41.1622095  44.2655897
  17.9505968  40.2435017  44.6980715  40.0609589  33.5853744  43.3282185
  40.6202936  32.8111768  43.3914423  39.2568469  33.3378315  43.7846804
  28.2856631  18.1723773  40.2273178  29.0743041  17.7483642  39.8889494
  28.2666755  19.0248418  39.7923708   6.8490845  44.3039703   7.7825212
   7.1395123  43.3927965   7.8230363   7.5967228  44.7776747   7.4180019
  40.8703809  65.3899859   2.7622278  40.6636446  64.7512912   2.0799072
  40.3060286  65.1473807   3.4963139  49.8914146  47.7720976  24.5427442
  48.9928865  47.9021502  24.8460007  50.3315163  48.5999298  24.7357249
  44.3272638   0.7135557  24.7480655  44.0020084   1.6123672  24.6972775
  45.1122284   0.7733088  25.2925777  23.9282012  54.5925522  13.7870347
  23.4664226  54.0180302  14.3977034  23.9785647  55.4337120  14.2410672
  22.6084495  24.7437596  24.7773194  21.7231798  24.5758390  24.4543147
  22.8966689  25.5183649  24.2944646  50.7225037  25.8508110  39.8206949
  50.2530670  25.0183678  39.7668266  51.1025095  25.8550739  40.6992197
  38.6362839   2.5360695  13.6518490  38.6681128   2.9048657  12.7691221
  38.1971598   1.6924949  13.5432959  29.6174264   5.8977520  53.2070827
  29.4849396   5.5891067  52.3107481  30.3263044   5.3512400  53.5462666
  17.3981559  44.2314482  22.3416686  17.6118672  44.8014975  23.0803180
  16.4599526  44.0643930  22.4316645  54.6716690  21.3721848  55.8426857
  54.9752665  21.8187618  56.6330194  53.9574623  20.8107328  56.1442089
   9.9542665  34.3957067  23.6507511  10.2479208  35.3063965  23.6253142
   9.0256274  34.4497108  23.8764596  76.8889611  50.8466993  63.4299682
  76.1640780  50.9116248  64.0517102  77.3247902  51.6974227  63.4805189
  56.4886475  29.9218631  21.1088419  55.8350229  30.5135012  20.7360506
  57.2520542  30.4772806  21.2667966  25.3294158  24.9646020  25.4160309
  25.5130768  25.0223541  26.3536692  24.3742085  24.9840379  25.3574276
  26.0035014  59.5152378  38.0833006  25.2644801  59.0641403  38.4914565
  26.7653561  59.2335510  38.5897207  17.3332674  78.8001996   0.3950994
  17.4119169  78.4022629  -0.4719027  18.1581099  78.5877883   0.8318438
  74.7516826  40.3624868  22.9860783  74.7867110  39.8145866  23.7701774
  73.8186017  40.5277109  22.8508282  30.3188539  41.8452454  26.1568284
  29.7766733  41.8809128  25.3687930  30.7305360  40.9816694  26.1254263
  74.3993948  74.1874131  26.3916254  73.5575710  73.8897291  26.0467339
  74.5613454  75.0179610  25.9441924  21.6061115   6.3516378  34.8832679
  21.7235518   5.6485248  35.5220723  21.4393020   7.1311933  35.4130769
  37.3056746  28.8279796  57.6931238  37.9486847  28.6729145  57.0012236
  37.0628738  29.7483945  57.5925493  10.0652909  60.7608318  32.2086501
  10.4315495  61.5547323  32.5982738   9.6922237  60.2811909  32.9482460
  30.1549625  31.0142112  26.8181252  30.3476501  30.4074478  26.1033225
  29.4551086  31.5712619  26.4773440  30.4153919  26.2799716  37.0492482
  31.3325763  26.1064720  36.8373418  30.4461122  27.0132422  37.6637411
  71.6733448  53.6502485  70.3976001  70.8347838  54.0790192  70.2267004
  71.7146294  53.5763232  71.3510477  37.0984483  18.0326796   7.4045610
  37.3285127  17.6258218   6.5692353  36.2104678  18.3648336   7.2726715
  36.6582465  41.6549397  45.3617287  36.5038943  42.0643854  46.2130594
  37.5360775  41.2798309  45.4319954  24.6212339  16.7463923  61.0497427
  24.2530155  17.1658218  61.8273830  25.3729439  17.2913408  60.8169413
  12.5215757  58.3019066  30.5866861  12.0341372  58.0849552  31.3813972
  11.9451475  58.0332327  29.8713017   3.1064278  47.0080328   3.0129740
   3.2749116  46.3669014   2.3224694   2.4025676  47.5554752   2.6649520
  10.5353648  81.5026036  47.9535389  10.8089049  82.1399049  48.6132765
  10.3851182  80.6963716  48.4471416  12.8913367  19.0725398  28.8837743
  13.3061588  18.2441974  29.1246104  13.5789645  19.5625865  28.4329391
  19.8686945  11.1556411  55.1707268  20.6911993  10.6665003  55.1493073
  19.5079422  10.9796762  56.0397053   9.3206793  36.5583944  36.2518597
   9.7026896  35.7330918  36.5504789   8.6301249  36.2962580  35.6430483
  55.9079790   5.9341085  34.5652914  55.5924749   5.7711327  35.4541826
  56.4343786   5.1633781  34.3529058  47.8680849   2.8136885   1.9838686
  48.5234356   2.8748146   2.6788598  48.2906914   3.2078898   1.2208214
  25.3122687  35.0685692  17.6224756  25.8445191  34.6677589  18.3097100
  25.0378585  34.3342853  17.0731509  55.0091743   9.0173578  22.8434682
  55.2262545   9.7597104  22.2795367  54.2592001   9.3177956  23.3568001
  68.3589315  37.5849771  12.9355741  67.8065348  37.9342318  12.2362077
  68.9784241  38.2894254  13.1258643  68.8945721  72.5675884  39.3404937
  68.5612533  71.7364326  39.6785903  69.4164620  72.9261365  40.0583410
   9.2581254  18.6389577  25.7442379   8.7145710  17.9312027  26.0904527
   8.6324483  19.3103945  25.4723334  15.0626719  31.5797830  49.3607283
  14.1415668  31.7802739  49.1945934  15.0426686  30.9141016  50.0482559
  26.0537314  10.3447282  50.9932232  26.4468884  10.8432114  51.7095852
  26.3143182  10.8162773  50.2020407  19.9057603  27.5328851   0.7288136
  20.6933379  27.5669980   1.2717590  19.6586490  28.4496355   0.6074124
  26.7015266  36.0399723  36.7192483  26.9903636  35.5515814  35.9483528
  27.3590732  35.8445311  37.3868299  46.7732573  24.1979551  39.6964669
  46.1443472  24.6466136  39.1313076  46.2563419  23.5303211  40.1473475
  60.7536619  68.0599813  65.0046990  60.2376502  68.7408070  64.5729129
  60.4087083  67.2390656  64.6535055  79.3843875  68.5850552  31.7920494
  78.5318575  68.6680785  32.2192883  79.5943055  69.4727114  31.5018249
  84.9813233  75.5710944  46.6554117  84.9619327  75.5281946  45.6993675
  85.3377400  76.4380965  46.8490791  17.6487720  38.6227536  34.6546054
  16.9243908  39.1234398  35.0298595  17.3336816  38.3563161  33.7909150
  42.5689554  22.6880074  22.6824570  41.9467068  22.3521304  22.0373011
  43.4288692  22.4919653  22.3104978  30.0100136   4.5535669  70.7553720
  29.3828678   3.8595414  70.5522728  29.5630288   5.0982034  71.4032984
  33.9016914  10.7731807  11.3805592  33.8185644   9.9976563  11.9354320
  34.8454690  10.8886826  11.2702084  35.3053403  31.4435601  44.7498989
  36.0570288  31.0999680  45.2327442  35.6417942  32.2212887  44.3047333
  23.5414600  18.5022128  25.8010602  23.9362669  17.6303804  25.8174109
  22.7449179  18.4142816  26.3245320  11.3022757  20.1095200  24.2015338
  10.7529402  19.5990074  24.7963762  12.1217549  19.6174872  24.1506290
  38.2110596  15.2380037  41.2296724  38.5644698  14.3639159  41.0644293
  38.2027769  15.6594062  40.3702641  83.2727614  19.6746171  11.2136614
  83.7395439  20.5076075  11.1467993  83.6281183  19.1430831  10.5013227
  30.2429938  55.3183985   7.9330379  29.5108032  55.8954716   8.1500953
  30.1135278  55.1043749   7.0090973  18.8802218   4.6658507  59.0780926
  18.9671147   4.9278778  58.1615639  19.3418229   5.3472584  59.5668030
  15.1027453  39.9775457  35.0154972  15.2575326  40.9216833  34.9858046
  14.4621480  39.8179460  34.3223929  18.0132324  66.6560128  71.3062429
  17.1769554  66.3826719  70.9292030  17.7766974  67.3067596  71.9671631
  25.2096350  82.3278297  26.8454528  25.7563717  82.4516296  26.0695744
  25.8108933  81.9943298  27.5114083  25.4262948  43.2475996  13.3934486
  25.8740735  43.3443975  12.5529993  25.5939341  44.0717745  13.8504684
  45.5335808   2.5473431  42.3039246  46.0343122   1.9353727  41.7644835
  45.9187698   3.4031439  42.1155977  39.4049263  30.2399850  26.0030508
  40.0889111  30.7267332  26.4629126  39.2069602  30.7740021  25.2337217
   9.3990874  45.0136137  37.9250503  10.0382221  45.4456234  38.4917140
   9.9244672  44.6176767  37.2297525   3.8421518  74.4466618  53.6443567
   4.7988565  74.4640294  53.6189985   3.5987241  75.2708992  54.0657902
  22.3286414  20.2340555  30.7840657  22.0927858  19.3077660  30.8349705
  22.4860525  20.4914021  31.6924858  28.3794355  36.1726213   6.4818048
  29.1902304  36.3737726   6.9491154  27.8265166  35.7439375   7.1350610
   5.5804431  22.5943947   6.8183005   5.9762514  22.5612330   5.9473997
   4.9615794  23.3231902   6.7725331  31.1317277  21.2373352  64.9987841
  31.7355728  21.3912487  65.7253647  30.5955815  20.4980087  65.2854443
  71.5823713   4.1181695  39.1841531  72.1839479   3.6372030  38.6158156
  70.7165900   3.9531940  38.8107395  45.7653522  15.4598200   5.7675296
  46.6637182  15.3501856   5.4558378  45.5434275  14.6156287   6.1603689
  66.5154743  21.5032578  53.8283443  66.6887379  22.3679972  54.2004156
  66.6674995  21.6116214  52.8895283  14.2499542  34.3454432  40.4410648
  13.7740040  34.7247791  39.7022796  13.6157990  34.3417811  41.1580515
  16.7823012  81.6242918  45.2583838  17.2398550  82.2448980  44.6911764
  16.4152462  82.1648258  45.9579039  67.9518557  41.3189316   4.5236900
  67.1679068  41.8681622   4.5236579  67.7005482  40.5427694   4.0230444
  23.7777734  27.9007888  30.0403404  23.4334230  27.5489736  30.8612418
  24.7132802  28.0196643  30.2044320  24.1695452  17.0878029  41.5987968
  23.6874247  16.2610626  41.6158628  24.1723394  17.3444438  40.6766462
   5.9399348  23.9611077  56.2256908   5.5455416  23.0934930  56.3147545
   5.7688463  24.2098832  55.3173590  27.6568818  26.9142127  42.6136112
  27.4032474  26.3586497  41.8765545  26.9138455  26.8679047  43.2152605
  19.1464508   8.0643874  21.0278726  18.7036979   8.8952714  21.2005973
  18.7286723   7.4420834  21.6232133  29.6615887   8.6533546  53.4035397
  29.4874954   7.7202302  53.5268354  30.3592920   8.8514149  54.0282106
   2.5166065  39.1193199  37.0109844   3.0888563  39.8503041  36.7776942
   1.7090523  39.2823434  36.5236330   5.7067269  20.7700968  52.8722763
   5.5158818  20.4823875  51.9795132   6.4479393  21.3683581  52.7778292
  71.8059955  59.0683916  49.1236496  71.0045741  58.6867693  49.4818687
  72.1423135  58.4012178  48.5253143  17.2945678  40.6619501  20.2660012
  17.8202510  41.3944054  19.9444425  17.3898172  39.9860024  19.5949924
  29.8073959   7.0123768  39.0824699  29.0471792   7.5902480  39.0163946
  29.6749306   6.3624656  38.3923244  32.1698666  33.3429766   0.5594515
  32.7963805  34.0574121   0.4441577  31.4876485  33.7109685   1.1210506
  37.5993473  78.7014863  43.7816095  37.6568014  79.2518905  44.5626259
  36.8166859  78.1684241  43.9213085  27.7830672  29.0422392  69.9491119
  28.0793619  28.8263512  70.8333254  27.0643973  28.4325290  69.7817850
   5.2902406  26.7266417  18.6540103   4.3679070  26.9792557  18.6125505
   5.4447955  26.2495756  17.8386867  28.3684993   7.2883624  41.5415955
  28.5262108   8.1687617  41.8825579  29.0473151   7.1631831  40.8784437
  40.7587910   4.6890438  18.5522211  39.9113512   4.5753950  18.1219196
  40.6871605   4.1809615  19.3602765  12.2254431  37.0355511  19.7501528
  11.3097036  36.8640161  19.9697602  12.7243781  36.5311980  20.3927445
  23.5633039  15.4690969  15.6149220  22.7120137  15.3473461  15.1945496
  23.4872198  15.0051951  16.4487314  70.5103445  14.8497677  55.1115847
  70.4460955  14.2466748  55.8521128  70.4199791  15.7190120  55.5020761
  19.8169787  78.5569051  53.9726639  19.9124081  77.6124623  53.8495636
  20.5851395  78.8105792  54.4843340  56.5564299   9.2339957  16.6058862
  57.2519779   9.8153001  16.9133472  55.9728718   9.1396517  17.3587418
  34.2417049  35.8535337  20.7218385  34.2359352  36.6524816  20.1946974
  34.3772101  36.1593080  21.6187072  75.8472035  72.0523146  45.7775354
  76.0853432  71.1781171  46.0862398  74.9970303  71.9334415  45.3540897
  40.9727430  17.6720607  41.9574451  40.2027035  18.1090295  41.5936756
  41.3067532  17.1367693  41.2376308  27.0397139  18.8620389  35.1799464
  26.7698932  17.9621589  34.9965167  26.9530702  19.3138838  34.3405652
   2.8777525  41.6495037   2.7787805   3.5799676  42.2993612   2.8072429
   2.0917837  42.1350384   3.0292615  31.4881420  36.6158938  23.7589002
  31.4783692  36.0940266  22.9565334  32.1253943  36.1769605  24.3223524
  63.0206159  71.9659376  56.4961195  63.6664775  72.4426508  57.0175028
  62.4189571  72.6417351  56.1838102  40.7272243  16.2150645  62.4238396
  40.5925608  15.4088056  61.9257975  40.7286358  16.9074500  61.7629051
  41.0355275  68.6140846   5.2495726  40.3124206  69.2386602   5.3066214
  41.2719183  68.4375261   6.1601647  13.5108018  40.4078293  32.7139997
  13.9594889  41.2038183  32.4288392  13.2976758  39.9488688  31.9014955
  79.5380340  82.2251394  21.7831159  79.9547325  82.0952844  22.6350141
  79.2068825  81.3594575  21.5440202  18.4250147  70.7448116  58.0806446
  17.7782805  70.5636766  58.7626696  17.9143602  71.1065140  57.3563290
  25.1977515  29.4743657  65.2519369  25.8057404  29.4591069  65.9910917
  25.6132150  30.0523472  64.6119642  54.5049477  56.4087152  16.5712798
  55.2288437  55.8195686  16.7836702  54.7545242  57.2457075  16.9629264
  28.1208134  50.7409048  16.3657963  28.4476900  51.4730310  16.8886471
  28.7757397  50.6272268  15.6770444  15.6311929  45.9864330  44.7083759
  14.8966324  45.3910685  44.5594025  15.3600597  46.5189219  45.4561567
  19.1468787  21.1956668  22.0818114  18.5863900  20.4320621  21.9439864
  18.9273608  21.7869806  21.3618183  51.9289987  65.5509595  62.5925688
  52.2401707  65.8276061  63.4544693  51.6460340  66.3611917  62.1686719
  36.5220809  68.0025244  34.5718431  36.3419247  67.4657345  33.8000727
  37.4755359  67.9894495  34.6554279  39.3098712  17.2678733   3.5406557
  40.0260162  16.9622838   4.0974167  38.5159588  16.9906032   3.9978814
  28.7365324  20.6622506  67.0905189  29.1357023  21.4352657  66.6913341
  29.3133623  20.4461623  67.8231884  25.1764297  28.4192896  54.3520784
  24.2321062  28.5746098  54.3711042  25.4522872  28.5086799  55.2643013
  26.4128780   8.7820619  44.3002319  25.4637504   8.7463158  44.4190359
  26.5781093   9.6591997  43.9544582  45.0315619  39.0506411   5.9251028
  44.6239805  38.2738423   6.3081044  45.7228470  38.7047195   5.3605682
  34.0859675   3.2055670  20.2669144  33.6074758   2.8314981  21.0067463
  34.9052525   3.5224730  20.6471419   1.2753545  74.2113209  30.2263379
   1.7682952  73.6110973  29.6668983   1.3673007  75.0643539  29.8019385
  26.4934421  66.9976807  39.1735101  26.7020416  66.6516638  40.0412607
  25.7409668  67.5711632  39.3188739  32.5288963  10.8703196  36.5032649
  32.8930712  10.1480210  37.0150185  32.1414876  10.4488647  35.7361150
  63.3585310  37.8614545  16.2203813  63.9571667  37.2604895  15.7768595
  63.3805752  37.5880885  17.1374512  35.3139687  51.2503052   2.2984332
  35.2499747  52.1712875   2.5512624  35.5304360  51.2723064   1.3662910
  54.5653582  43.8533640  10.6718969  54.5565271  44.5796680  10.0484872
  53.6592197  43.7848282  10.9726393  37.8295636  33.0654955  45.3383303
  37.7380586  32.2710419  45.8643532  37.2897410  33.7147665  45.7891798
  22.7508759  45.8544540  26.8097138  22.1561193  46.2798834  26.1920547
  23.4710097  45.5339098  26.2666750  82.0695594  37.8103328  29.8771334
  81.6260633  37.0533776  30.2599669  82.0476875  38.4744692  30.5661011
  25.5531478  44.1323233  48.3043432  24.9121714  44.8424292  48.2706881
  25.2291870  43.5495996  48.9911556  44.9860477  41.8161488  30.1994944
  44.4128227  42.3990393  29.7016215  44.5321321  41.6878700  31.0324049
  43.5247850  31.3067198   4.5736933  44.4110680  30.9612918   4.4668901
  43.3014727  31.6632962   3.7139159  18.3701491  32.0461702  20.9683537
  19.0156722  32.6050329  21.4010239  18.8412380  31.6657519  20.2270103
   4.4001678  70.6477880  41.3898182   4.0966880  71.3909340  41.9112206
   3.9303520  70.7297230  40.5598831  32.9015326  56.9815159   7.6689494
  32.0355868  57.3477316   7.4893510  32.7264762  56.1947966   8.1853414
  12.3685706  25.9085345  61.3484383  12.9355788  26.5121222  61.8284607
  12.3383403  25.1228976  61.8944216  33.1554580  42.5208092  11.8406260
  33.2871842  43.0136538  11.0306966  34.0325236  42.4354553  12.2143960
  44.2429018  35.5594897  23.2223535  43.4210539  35.7986474  23.6508369
  43.9752293  35.1832080  22.3839068  85.8500534  39.6610522  20.4562593
  86.4176044  40.3837872  20.1883602  85.7150488  39.1532803  19.6561527
  45.7907534  49.4734430  14.4188464  46.1689186  49.0047455  15.1628542
  45.9361553  50.3980637  14.6192729  63.9832115  24.4967341  20.4720211
  64.3881416  24.0280509  19.7422290  64.6635103  25.0962543  20.7786179
  57.7275324  32.3301077  17.4431193  58.4059954  31.6670752  17.5708270
  58.1277418  33.1442308  17.7485204  52.7533865  53.1456757  15.6609023
  52.6128006  54.0872622  15.7603443  52.1002626  52.7441502  16.2339985
  18.6317754   6.7817587  42.3303175  19.4015229   7.0465797  42.8338957
  18.9363229   6.0491627  41.7947912  48.5185242  45.5328131  20.0406528
  47.7271843  45.0055885  20.1504230  48.2440186  46.4243507  20.2552247
  17.3514235  68.3471823  44.6250820  17.6005638  68.0266047  45.4919052
  17.6277316  69.2636204  44.6201086  44.2609882  35.5060863   6.9398904
  43.3871508  35.1674056   7.1346653  44.7086096  34.7791314   6.5069920
  30.7924128  29.8189592  41.2406158  30.9877205  30.1187825  40.3528166
  31.6013765  29.4008994  41.5356350  36.2670500   2.9098703  67.1428708
  36.0225708   2.0192386  67.3943336  35.5026800   3.4404994  67.3673780
  18.3436692  59.1886950  22.8817105  19.1452098  59.4444895  22.4252748
  18.0683780  59.9802637  23.3441663  27.8126717  48.6013269  19.2339122
  27.3490191  48.0176115  18.6334658  28.0483961  48.0439615  19.9755394
  81.8407968  72.4312687  50.8218622  81.9591710  71.6205025  51.3167095
  82.7178970  72.6499557  50.5070543  43.5898256  27.2493982   0.0010805
  43.8392735  27.4964118   0.8915822  43.8262844  28.0077600  -0.5329659
  47.7499628  49.5058680  32.5609303  47.2744989  49.4678736  33.3908224
  48.5168839  48.9498901  32.6986098  47.6697206  35.3983450  26.6194987
  47.6846313  36.2372446  26.1587858  46.9408417  34.9205995  26.2236166
  32.8088522  28.2575130  41.5236092  33.5381722  28.7896609  41.8416357
  33.1891394  27.7213240  40.8278227  27.3917556  15.9389162  11.8491757
  27.8298068  15.1321387  11.5781534  26.6536665  16.0250163  11.2458158
  36.4654064  29.4473839  26.8498254  37.0525694  29.5235586  26.0977173
  36.9764185  28.9728904  27.5055337  24.2964578  31.1054230  23.1410789
  25.0596547  30.5596495  22.9516244  24.5133567  31.5430307  23.9642954
  27.5383806  49.2864990  25.9708047  28.0638599  48.4925985  26.0699153
  28.0913210  49.8774529  25.4596686  29.8610377  44.4934845  23.0078268
  29.8910046  44.3723011  22.0588017  29.0285206  44.1025639  23.2730293
  33.2293248  34.9288058  25.2839518  33.4847426  35.2547908  26.1469293
  32.8622103  34.0614319  25.4545927  16.0938740  26.5372062  22.4389696
  15.3317666  26.2412453  22.9367948  16.1727774  27.4670506  22.6520371
  50.0798702  55.1857090  21.4089966  49.2536259  55.2414036  20.9289360
  50.0209951  54.3615770  21.8922877  35.3285670  35.4334927  12.9581058
  34.5028758  35.6477070  13.3923602  35.0663614  35.0275683  12.1318460
  44.2262506  43.5880423  45.9327555  43.5068417  43.0457067  45.6094027
  44.1745329  44.3897009  45.4122686  12.8900456  22.4155092  59.1365528
  13.6679959  22.5367355  58.5921955  12.8923333  21.4831877  59.3533564
  66.6196680   2.5460768  20.9656715  67.4721050   2.8009254  20.6126356
  66.0165405   2.6429975  20.2287340  47.8026962  13.6139929   8.3543789
  47.8130627  13.4429932   9.2961240  46.9917583  13.2093287   8.0463868
  39.4097662  35.4159307  41.3028193  39.6150875  34.8206329  42.0237207
  39.9917960  36.1639547  41.4367294  50.5736685  50.5269146  19.5414901
  50.8347368  50.8898115  18.6950970  51.3983774  50.2860022  19.9634457
  32.2858715  33.4869576  40.7918215  32.0798707  34.2635059  41.3121748
  32.7474713  32.9078197  41.3982534  77.1372602  80.4750752  48.4900284
  77.5928293  80.3544822  49.3231821  77.6599775  79.9820074  47.8576660
  34.9186778  41.0267258  15.1762366  34.8225904  41.6772556  15.8718014
  35.4444432  41.4664125  14.5080447  39.1776252  54.1088438  30.5607986
  39.5476270  54.8099899  30.0243950  39.3144798  53.3145857  30.0444078
  20.2985120  17.8766477  48.8055944  20.1153350  18.3887625  48.0179262
  19.7125030  18.2402873  49.4693613   8.6379349  50.2447033  13.1451237
   8.6651319  51.1955929  13.0388486   9.1504300  49.9068546  12.4106574
  59.7581005  49.6050406  22.4725008  60.3694630  50.3040361  22.2404027
  59.2360592  49.9707651  23.1866097  19.7581911  21.0209060  51.6681910
  19.8034978  21.0268426  50.7120848  19.1515696  21.7293048  51.8836308
  39.0554428  13.7094152  11.5385091  39.7034431  13.0858684  11.8664086
  38.2258487  13.4109640  11.9112444   2.3778990  37.0294309   3.4212181
   2.6476765  37.9285192   3.6085474   3.1857723  36.5859032   3.1626514
  87.8057520  49.9023602  69.7126244  87.3268883  50.6907503  69.9682785
  87.1515458  49.3550698  69.2782075  15.6555963  12.3718977  44.3700218
  15.9267938  12.8918505  43.6134958  16.3228667  11.6895401  44.4432878
  35.9372973  21.6275930  28.4238648  36.1024833  22.2794127  29.1050935
  36.8048358  21.4168215  28.0786324  21.4509678  76.8442774   9.5149672
  21.8830037  76.0003901   9.3829507  21.4254284  77.2392225   8.6434162
  34.4284153  29.7449017  17.2220802  34.2937803  30.4809523  17.8190160
  34.3609190  28.9693713  17.7790618  29.7661567  49.9942636   5.8635211
  30.2039242  50.8443737   5.8198547  29.3311048  49.9050570   5.0155807
  49.0102434  60.2549171  38.3342338  48.6931753  60.8322811  39.0287495
  49.2831230  60.8488655  37.6349521   0.1944315  35.1953411  30.1136923
  -0.1474564  35.1257944  29.2223406   0.5714378  36.0740662  30.1577330
  29.6320701  29.0933323  38.4371567  29.5288610  29.9895287  38.1171441
  28.7365532  28.7741280  38.5484576   5.4109556  81.3457668  16.0403168
   5.3291447  81.8424581  15.2261698   5.8518822  80.5359051  15.7835305
  52.0295763  35.2205467  23.7739110  52.7246809  35.2149820  24.4319606
  51.2974882  34.7700500  24.1950178  76.7142234  79.7674432  21.0079360
  76.9331537  79.3083823  20.1970315  76.9173727  79.1393402  21.7010808
  50.7785552  72.4014048  64.5528893  51.0107748  72.2510103  65.4692338
  50.2932136  73.2263951  64.5610951  39.8863101  36.5892529  45.3640652
  39.2203712  36.7025638  46.0422373  39.7872376  35.6803775  45.0805807
  67.2954123  77.0864324  48.7922685  67.2727029  76.1374597  48.9154331
  67.6921003  77.2065453  47.9294578   9.0258319  28.8760568  65.7364218
   9.1698582  29.2961599  66.5843616   9.6758921  29.2749263  65.1580147
  25.8909941  63.3955765   7.2527641  25.9807539  62.6697922   7.8703493
  26.4007592  64.1059589   7.6422900  22.3988271  33.9612246  27.2260094
  22.1247602  33.1857324  27.7156353  22.4645138  34.6507597  27.8866577
  47.0598078  29.1273451  24.7286558  46.1933708  28.7566376  24.5610356
  47.0991993  29.2234540  25.6802034  46.7395639  10.6069517  23.1468296
  47.2306585  11.4271271  23.0981255  47.3651218   9.9737716  23.4989548
  43.1631851  38.8478732  42.7040005  43.5520315  39.6918964  42.9334688
  43.9124393  38.2797813  42.5247812  49.9603844  26.7212367  26.9931102
  49.9727154  27.1538687  26.1393476  50.0557947  27.4343991  27.6244020
  80.9249489  53.3917121  70.8497376  80.8927529  53.0241744  71.7329767
  80.9696238  54.3381612  70.9856391  48.6110258  61.4469147  40.7418299
  48.3782387  60.7848406  41.3927555  47.9980183  62.1647358  40.9005117
  72.1154785  49.3183947  50.8705139  71.5237713  49.3773651  50.1204205
  72.7791166  49.9881124  50.7052946  85.5221653  33.4436774  37.6245666
  85.8653831  34.2510128  38.0075049  86.2481594  32.8227162  37.6843381
  31.6070652  49.1704988  29.3411517  30.6839418  49.0572929  29.1147351
  31.6653347  48.8923836  30.2552009  63.8229990  81.6594887  32.1166468
  64.0437269  82.5714970  31.9275856  63.8172483  81.2319660  31.2602425
  29.1029000  44.7032213  19.3568337  28.3885503  44.2334318  18.9264441
  28.7383413  45.5663967  19.5524120  21.7423470  13.5368873  70.9253937
  21.5416462  14.3869258  70.5337530  22.6439411  13.3572150  70.6587791
  72.1083498  12.8847194  25.4854655  71.2213087  12.6090837  25.7165885
  72.2253132  13.7198341  25.9383821  59.3688917  61.3569450  37.4424982
  59.7625542  62.0461464  36.9074655  59.7096443  60.5425167  37.0726061
  42.2210455  42.2765398  44.5520353  41.6725206  41.7262173  45.1110554
  41.7785168  43.1252575  44.5432186   5.7171226  48.2670498  17.5110710
   5.2667016  49.0705490  17.2507882   6.6055763  48.5499048  17.7275801
  19.7977638  16.7259669  10.4065537  19.4520426  16.3994384   9.5758384
  20.0985456  15.9417307  10.8656144  73.1791735  49.2057753   8.0323237
  73.9498615  49.0131283   7.4983251  72.9617643  50.1135492   7.8203875
  39.9960494  51.0895014  17.1650374  40.2880049  50.8313656  16.2907600
  39.3145728  50.4550362  17.3870206  68.8402987  64.0863085  35.6127763
  68.4903431  64.1044855  36.5035248  69.0279579  65.0028610  35.4104233
  34.2207789  62.6967096   9.1543657  33.6452270  63.3177423   8.7079459
  34.5300913  62.1150398   8.4599483  49.4467497  59.6366262  56.1932468
  50.1852369  59.0276957  56.1847687  48.6732244  59.0758324  56.1349249
  43.7840271  38.3788705  26.3557720  43.9514732  38.3740759  27.2982001
  43.9000893  39.2929602  26.0965371  32.2572923  25.4486251   2.4531600
  31.6115141  24.8888493   2.8842676  32.7451634  25.8494210   3.1725883
  42.7944756  59.3140221  42.4618387  42.1523046  60.0157499  42.3549557
  43.0837059  59.1163206  41.5710592  44.0888834  38.9053583  31.8869495
  44.9608421  39.2980361  31.9284272  43.4885550  39.6490788  31.9390535
  18.7927306  75.1848364  28.3673334  19.0037978  74.2544031  28.2900047
  19.6226740  75.6330490  28.2044458  15.6874585  40.9306335  17.0638120
  15.8942604  40.6548500  16.1708331  16.0531712  40.2412796  17.6181376
  18.7503779  71.7165899  67.0756197  19.2132533  72.3693419  66.5503645
  18.4534478  72.1975374  67.8481150  43.8639975  61.0798645  38.0026412
  43.7577534  61.7708588  38.6564541  43.1711102  61.2462568  37.3635387
  40.8074331  37.8961110  41.5891790  41.5441847  38.1812954  42.1296406
  40.2674055  38.6798692  41.4875889  51.2734079  70.5188227  38.0976844
  52.1681166  70.2097273  37.9555798  50.7492971  69.7195482  38.1496358
  56.2017536  53.0376339  22.4962616  56.7820501  53.7711525  22.2926879
  55.8214235  52.7919245  21.6529322  54.0606928  52.3119926  54.9351740
  54.6460342  51.8647242  54.3239784  53.6164713  51.6045523  55.4025364
  13.7801445  74.7234297  43.9499998  13.6042011  75.2576780  43.1754971
  13.3944273  75.2167654  44.6739340  58.2036495  40.8205414  19.4788432
  58.7487698  41.4066458  20.0037789  58.0368567  41.3073730  18.6717474
  47.3137093  42.1237898  28.6240816  47.9761696  42.2149944  29.3089604
  46.4806414  42.1211338  29.0954876  52.0138788  38.4232545  16.2011063
  51.2470484  38.6243248  16.7375481  52.1859932  37.4964142  16.3671672
  48.6597490  42.2673368   9.0136123  49.0952778  42.9714203   9.4940382
  48.2821655  41.7106247   9.6945935  28.5578871  52.0879316  42.4006653
  27.7896857  51.8423367  42.9162025  28.7085485  51.3391304  41.8237495
  40.2655697  77.5485802  13.3130050  40.1979351  78.0654669  12.5102055
  39.8867273  76.6998816  13.0840611   6.1883368  78.4500293  68.8200451
   5.8996834  77.5850825  69.1112069   6.4250340  78.9076523  69.6267582
  47.8299904  46.2286425  45.5840015  47.1722841  46.9207525  45.6520987
  48.6154795  46.6749573  45.2677155  59.1295052  62.6141214  52.0101213
  59.9888659  62.7297068  51.6046953  58.6090565  62.1646452  51.3442898
  74.3515222   3.7850854  10.8628917  74.5066612   4.3832585  11.5938842
  73.9485138   4.3311879  10.1879168  44.2749882  47.1940708  11.5576756
  45.0249481  47.7053070  11.2536561  44.4832325  46.2931061  11.3104331
  72.5821495  50.9969378  58.5026121  72.8140593  51.5873384  57.7857590
  71.8862152  50.4463339  58.1438065  45.2432632  53.4493208  21.7632866
  45.3151083  54.3757820  21.5336394  45.7154322  52.9926634  21.0670424
  40.7281685  31.3055992  19.6475494  40.5035877  30.4500031  20.0132704
  39.9136686  31.6194201  19.2546892  18.0746491  48.8826991  60.1763706
  17.9868157  48.7559367  59.2316751  19.0108139  48.7777187  60.3460984
  64.5241134  78.8261751  59.1923432  64.3316882  78.6253242  60.1082389
  65.1660864  79.5350484  59.2323582  66.5397692  66.0464954  37.0729518
  67.2434807  66.6499519  37.3113990  65.8393908  66.2367105  37.6970720
  68.4020160  33.6431791  62.5050668  68.8981901  33.9153482  61.7330770
  67.5253502  33.4525443  62.1713797  49.6458197  71.7081594  42.8669262
  49.4885921  72.4219131  42.2488070  50.0824785  71.0331821  42.3473454
  34.7663450  48.4614897  33.0895162  35.1149797  49.0340900  32.4062753
  34.5395780  49.0542173  33.8060951  34.1579437  73.9856911  34.3761826
  33.6719418  73.9722729  35.2007151  33.7667251  73.2837534  33.8561177
  58.1483555  63.8732004  33.4137177  58.5733461  63.0297661  33.2580471
  57.2125578  63.6720657  33.4214234  51.1106062  33.2626390  12.2104430
  51.3900614  33.9666486  12.7956831  51.6639376  33.3614206  11.4356542
  70.0489664  76.0132122  21.1019540  69.1030025  76.0274792  21.2474751
  70.3078222  76.9345903  21.1188745  69.5706599  70.5849437  63.3780466
  69.4882529  71.5186028  63.5722612  68.7734549  70.1945285  63.7361924
  54.0776730  75.0466776   7.1214652  54.6966505  74.6823978   6.4886987
  54.3241549  75.9687471   7.1940625  67.8914213  47.6009846  34.4831657
  67.2047806  47.8868771  33.8806510  67.9225254  46.6501904  34.3770766
  33.1135082  70.7934570  16.9090426  33.9496303  70.4015207  17.1610725
  32.6167059  70.0712776  16.5244889  42.3006248  47.7298546  41.2431383
  41.7591810  47.1398640  41.7675209  42.1153450  47.4831247  40.3370333
  26.4178157  64.3479300   4.3121967  26.3090873  64.5054865   5.2500594
  26.7788839  65.1665783   3.9720777  40.2920818  64.5185900  42.2530842
  40.1705265  65.4137516  42.5695372  39.4768167  64.0714455  42.4803209
  31.7154605  40.5212160   9.6458061  32.2477348  40.3588720  10.4246243
  32.3176916  40.9319826   9.0254696  42.6917887  71.7910004  34.4865227
  41.8497276  72.2184944  34.6427846  42.5819302  71.3453531  33.6465454
  33.7964630  44.3276787  21.2189484  33.9108109  45.2777243  21.1949611
  32.9541302  44.1769171  20.7900214  68.2727671  56.4256239  45.5126429
  67.7087545  55.7882929  45.9507465  68.2661772  57.1885347  46.0907030
  61.1204863  58.0400419  40.2352285  60.1885939  57.8228760  40.2098227
  61.2557220  58.6044645  39.4740629  75.0316971  27.3631474  44.5263529
  75.4704159  27.7486989  45.2847099  75.7455891  27.0781037  43.9559650
  53.3689451  70.6549215  58.2517099  54.1197109  71.0861444  57.8435087
  53.1674910  69.9225807  57.6691866  33.0201554  61.7023611  17.1893060
  33.6333609  61.0506582  16.8494618  32.1784019  61.2475014  17.2173405
  45.9470987  52.7359629  49.0303040  46.8349552  52.6221037  48.6912155
  45.3796530  52.4240875  48.3253479  63.0846643  69.9403477  54.7854805
  62.9517984  70.6157875  55.4505873  63.5410166  70.3906202  54.0746832
  37.3745155  73.1671429   0.4031312  37.6613379  73.3364820  -0.4942479
  36.4526415  73.4246111   0.4125446  25.6177187  67.0815659  10.8981526
  26.2240958  67.8174353  10.8142555  25.9796095  66.5528870  11.6093242
  49.9658632  74.8281622  34.9905014  49.7430897  74.0715742  35.5328846
  50.6673813  75.2685452  35.4702520  86.8395560  81.6574387  61.9536499
  86.4734213  82.5052361  62.2054879  87.6369946  81.8748144  61.4708714
  42.1048069  28.7925315  17.4022782  42.6452732  28.5093379  16.6647589
  42.1136522  29.7483993  17.3525774  40.1420641  36.6156387   6.6520596
  39.9564362  35.8495712   6.1090010  40.8744144  36.3449264   7.2057772
  49.9913025  47.0473003  29.9175310  49.7001219  46.2260294  30.3137136
  49.6533966  47.7273655  30.5002499  14.8495514   2.7349569  64.3359665
  15.3714258   2.6955939  65.1374201  15.2304442   2.0643998  63.7689529
  39.2430115  40.2159500  27.1550512  39.1627693  39.2799187  27.3384738
  39.8687530  40.5346918  27.8054976  39.1364462  20.2728845  54.0820793
  38.1995804  20.3073646  53.8888840  39.3600304  21.1660148  54.3439273
  58.8748598  69.4357347  47.2869968  57.9568911  69.7051859  47.2561407
  59.2871237  70.0579929  47.8862190   5.3712404  68.4964371  14.8533285
   5.3687358  68.8473701  13.9627838   5.5982155  69.2449474  15.4050922
  19.2559028  46.1748314  48.4600878  19.5619774  46.2012577  49.3666458
  18.3013725  46.1940575  48.5289049  44.2189169  41.1892080  43.0201197
  44.0572596  41.8926573  42.3914242  43.7537003  41.4628887  43.8106298
  58.6552811  58.9733934  44.4412661  58.9025831  58.4848928  45.2264023
  58.7871647  59.8912287  44.6787882  40.7231808  30.8797979  30.9239268
  40.5803156  31.5028429  31.6364121  40.0784588  30.1890326  31.0769272
  48.3090925  58.6895990  11.4285624  47.8545475  59.4594479  11.0865724
  49.1148806  58.6391449  10.9143746  55.5162191  62.5240946  33.3943820
  54.7121620  62.8768492  33.7755489  55.4891443  61.5897417  33.6005068
  49.9897671  32.9635787   8.9925218  50.7608080  32.4096131   9.1143811
  49.4905567  32.5303125   8.3002049  22.0718786  60.4141140  34.1824245
  22.5513765  60.2426529  33.3719230  22.6691458  60.1371002  34.8772383
  49.5573759  53.2963896  28.3706737  50.1587772  53.6117601  29.0452766
  48.8667583  52.8461075  28.8570118  66.8133879  62.2791958  40.0040245
  67.0673800  62.3313522  40.9254360  65.8708668  62.4461603  40.0055695
  33.1562953   7.4138829  42.6656818  33.8327988   7.2383306  43.3197117
  32.7480193   8.2293984  42.9563475  24.8819637  34.3789816  34.1910219
  25.7590795  34.6090674  33.8844919  24.3872833  34.2023015  33.3908296
  60.1224273  12.1840283  25.1980686  59.9489587  12.3573682  24.2728162
  60.4505937  11.2850186  25.2159047  52.5494671  51.2226629  61.2750387
  52.2364426  51.8650341  60.6381655  53.3265114  51.6270208  61.6609526
  27.9652912  12.7954389  58.3585576  28.9205343  12.8510572  58.3841328
  27.6672775  13.5807277  58.8176195  80.1665592  16.0730565  29.2261076
  80.1559353  15.4108965  29.9172378  79.2478085  16.3171887  29.1141725
  38.1257939  64.3830252  47.6200151  37.8136873  65.2629757  47.4090481
  38.7984538  64.2035675  46.9630861  63.5871935  61.7233849  40.1718903
  63.7786150  61.1921549  40.9448004  62.6546955  61.9264174  40.2457619
  14.0473771  41.4322996  50.4698801  14.1235995  40.7643366  49.7885227
  14.7682524  41.2446070  51.0710001  53.0560303  61.9623947  21.8950033
  52.4857807  62.0629406  22.6571989  52.5928450  62.4121952  21.1883402
  14.7865093  74.1961432  16.7922652  15.3280795  74.5162535  17.5136960
  14.3317080  73.4352922  17.1534956  48.2755804  36.7724347  21.4353180
  47.4978828  36.8113446  21.9920087  48.0292368  36.1855960  20.7203603
   1.2654193  49.7482777  14.2579603   1.2464757  50.5776310  14.7355032
   2.1659729  49.6742821  13.9421129  18.7421906  29.7669458  14.8885906
  17.9984331  30.1024795  15.3890634  18.9439237  30.4632163  14.2634964
  62.1386385  69.9057388  44.3974447  62.3151112  70.2630472  45.2677441
  61.2637711  70.2271652  44.1794538  56.5993643  53.0371094   7.2893316
  56.2490082  52.3263931   6.7523390  57.5313902  53.0637836   7.0728719
  38.2597852  61.8306017  22.2075844  37.7373648  62.2932434  22.8627706
  37.9282427  62.1494579  21.3681555  29.3621969  67.8641796  51.1722612
  29.6933222  66.9936371  50.9514952  28.7688494  67.7151489  51.9084454
  45.7409525  55.0049257  16.2085283  46.1913013  54.5533133  16.9222939
  46.2883615  55.7684040  16.0250127  29.4649935  34.0756869  23.7532973
  29.0301895  33.5663509  23.0693722  30.1106429  34.6043253  23.2843518
  14.4911206  62.4871254  51.6280699  14.9095511  62.1089602  52.4014664
  14.6035469  63.4319115  51.7327785  39.2551088  45.3561449  27.2757459
  39.4413638  45.6884193  26.3976049  39.0842128  44.4230938  27.1475244
  35.8633518  63.5978317  14.2105103  35.0785208  63.8231421  14.7100186
  35.5316734  63.1488848  13.4329069  25.8239293  52.2973967  32.8038907
  25.7977605  51.9618177  33.6999559  25.0418782  51.9334936  32.3889160
  69.4875717  57.9932976  50.1449013  69.9934769  57.3215199  50.6020737
  68.5766792  57.7986526  50.3653955  72.6386309  63.6796284  11.8250155
  72.2878647  63.3880091  10.9834981  73.5770988  63.7859488  11.6694319
  53.0782366  51.0001612  10.8844054  53.7675333  51.5416288  10.4998052
  52.7778578  51.4988375  11.6442263  78.0339479  57.9936743  18.8083160
  77.7136803  57.0983982  18.9185202  77.8158474  58.4292030  19.6323180
  51.2248564  60.9750652  58.9336729  50.6667757  61.6706562  59.2814302
  51.7721939  60.7142973  59.6743822  76.8045681  37.7589318  36.3536763
  77.5733345  38.3054444  36.1907244  77.1559780  36.9656560  36.7579794
  72.9773378  64.6587801  28.6498141  72.4236441  64.8589182  29.4045329
  73.7626266  64.2624521  29.0272689  80.0110912  65.3646135  49.7771358
  80.0842381  65.1186275  50.6992912  80.3480911  64.6065903  49.2995834
  49.0660858  64.1705751  18.5218227  49.2522001  63.3082390  18.8932681
  49.6359253  64.2290974  17.7549529  71.7025852  64.1470385   8.7366986
  70.9534168  63.7687254   8.2764149  71.3138580  64.6673346   9.4398439
  62.7552605  67.3356533  13.2300436  63.3019543  67.2566128  14.0117788
  61.8928099  67.5813723  13.5647547  49.0897781  33.3956052  63.3398078
  49.9942810  33.6839009  63.4622816  48.5621721  34.0828515  63.7466977
  57.4061680  51.8764734  17.2754824  58.0914688  51.7561007  16.6181350
  56.6567993  52.2098255  16.7819715  75.9098625  75.8635426  33.8938498
  75.0343275  76.2207174  33.7452316  75.8055115  75.2779245  34.6437788
  62.1626282  69.0300465  21.7457795  62.0720243  68.0771780  21.7538619
  62.3920107  69.2411613  20.8407664  78.9608669  55.4348469  58.6311960
  79.1762066  54.9540234  57.8320265  79.8083162  55.7106018  58.9805126
  34.3890142  38.5509706  28.5784578  35.2967811  38.5972309  28.8785458
  34.2154288  39.4156051  28.2062912  56.4439011  79.5741796  19.3839979
  56.0451031  78.7117481  19.4997871  56.5697289  79.6548891  18.4385443
  47.4969704  29.7837640  63.2137607  47.9795868  29.3767787  63.9332585
  47.5339634  29.1401292  62.5062339  19.3985915  50.3262520  39.2443442
  19.8904514  49.5294619  39.0457726  19.7925937  50.6559181  40.0520039
  60.7241344  78.6781883  60.2088261  60.1102877  78.6779356  60.9432840
  61.3722801  78.0121946  60.4381561  42.9600430  80.3273010  66.9711018
  43.8050222  79.9164009  67.1538639  42.9585934  81.1205482  67.5068235
  80.6190365  11.6861436  40.2647018  81.2090605  12.0041654  40.9480476
  80.1565521  12.4685475  39.9644065  49.9702062   1.8819615  32.5901389
  50.8938207   1.9146440  32.8393698  49.8303880   0.9783837  32.3068881
  54.9085903  57.5164223  36.6001391  54.7390652  57.0342541  37.4094629
  55.5385351  56.9739723  36.1256409  87.0732277  13.3564088  54.0910816
  86.8423860  13.8420960  54.8829556  87.2870319  12.4771401  54.4031811
  62.7334642  61.6176414  26.9021201  62.8636408  62.4401903  27.3740315
  62.5671625  61.8840122  25.9978938  48.8674671  27.7006627  59.1158156
  48.1838638  27.9377938  58.4891705  48.9623577  26.7530538  59.0195684
   1.4304461  75.2527003  66.4312224   1.2212672  75.0717716  65.5148486
   1.6328301  76.1880616  66.4505307  48.7263966  66.8159819  45.0595522
  49.0880251  66.1727810  45.6692648  49.4035864  67.4890900  44.9919605
  40.7470407  11.4213845  22.5175095  40.3631868  10.6007192  22.2086382
  40.1483812  11.7237184  23.2004642  86.2033463  32.7076888  70.3427076
  86.6139603  32.1166563  70.9738255  85.4723644  33.0987215  70.8212328
  70.2684689  61.2383652  10.5904365  70.1639032  60.9002542   9.7010666
  69.7713327  62.0563269  10.5957031  74.0513134  50.6235552  23.5847497
  74.7682667  51.2248945  23.3832669  73.5117817  51.0975885  24.2175436
  85.9180450  76.8464088   3.7019199  85.9235191  77.3372030   2.8801399
  86.8004513  76.4815903   3.7688991  29.5143118  11.4586732  28.6523557
  28.9786424  12.2017190  28.9301491  29.9056329  11.1296937  29.4615960
   5.5218115   6.7436788  31.1872458   6.2542715   7.1055314  30.6884480
   4.7577133   6.8870255  30.6288171  38.5298777  51.7655754  36.5521765
  38.6307454  52.6230383  36.9654775  38.7643766  51.9123077  35.6358194
  14.1076398  64.9715328   0.6706409  13.4334695  64.3790197   0.3379901
  14.6551764  64.4211245   1.2305400  47.5156355  64.8935509  55.3711796
  47.0902634  64.2873096  55.9776163  47.4735975  64.4524717  54.5227051
  53.0297756  53.0983305  27.3187518  52.7595520  53.2547235  28.2236004
  53.3369637  53.9506340  27.0098090  29.0435495  14.0614125  51.9297123
  29.8168840  14.5019719  51.5774298  28.9325323  14.4349954  52.8039789
  10.0061645  17.6114270  64.4593048  10.8063974  17.1470544  64.2139244
  10.3081550  18.3362958  65.0066614  45.5883009  42.3683597  67.6865841
  44.6811564  42.5795222  67.9073281  45.7238037  41.4908839  68.0442394
  48.5805798  74.1339684  25.4123402  47.8540659  73.8584471  24.8533273
  48.3325577  75.0078487  25.7140899  79.2024851  51.1389351  49.3938065
  79.3526125  52.0566988  49.6205330  79.9417114  50.6719828  49.7833300
  30.6171894  77.9795361  70.0108433  30.9514427  78.5454464  70.7067251
  31.3132882  77.3380804  69.8686838  71.6832304  51.4236021  33.6720729
  71.8319798  51.1007023  34.5608020  72.1946573  50.8365822  33.1152248
  17.1399519  60.2343178  69.4576740  17.2306558  59.2883348  69.5722342
  16.8575022  60.5533886  70.3147888  44.2807293  73.6357355  19.8908210
  44.1640425  74.5263577  19.5600569  45.2029181  73.4383154  19.7270262
  83.0704784  56.6955757  48.0866003  83.3426094  56.1326075  48.8113356
  83.6584568  56.4622355  47.3682261  53.1007760   3.5527036  41.5082216
  52.4816530   4.2232797  41.2197161  53.8172810   3.6000249  40.8752823
  75.3331375  39.0032482  15.7882631  75.9669113  39.0205193  16.5053821
  74.5940208  38.5027266  16.1338365  31.1548877  59.9569845  58.4467983
  30.3418660  60.2974415  58.8200474  30.9344840  59.7538996  57.5377274
  36.6832185  72.7913284  61.1346531  36.9670892  72.0660925  60.5781651
  37.0796824  73.5670137  60.7379675  59.6711581  12.4313733  15.6738341
  59.3320959  11.9103333  16.4017034  60.4083484  12.9140279  16.0477662
  27.0523252  11.7818448  26.9188643  27.7730741  11.7752072  27.5487041
  26.2667265  11.8897340  27.4549961  65.3546429  74.5125055  52.0070601
  64.5913172  73.9477921  52.1281862  65.9065533  74.3358755  52.7689219
  74.8007345  53.9065218  25.3869271  73.8455868  53.9691019  25.3905296
  75.0323582  53.7258482  26.2979364  65.0147390  65.9750986  62.1442509
  64.4643116  66.7582083  62.1447420  65.6532574  66.1307001  62.8401804
  52.2506046  51.6509962  13.4183359  52.6224566  52.3905706  13.8989484
  51.7367697  51.1752701  14.0709364  33.4949136  59.1919947  16.0794425
  33.1637335  59.4160843  15.2097666  34.0409184  58.4189987  15.9359598
  62.7458143  47.6321840  19.9662256  62.1067047  47.7509689  19.2636144
  62.8097916  48.4930229  20.3798604  43.5013380   1.8131539  44.1895676
  43.0403032   2.6486203  44.2649651  44.0910806   1.9313905  43.4449434
  81.4600103   6.5003106  35.3519249  81.3239019   5.5557343  35.4259229
  82.0642155   6.7117116  36.0635996  73.0953503  70.1796818  48.2034683
  73.1270504  69.4905424  48.8670301  73.9770126  70.1943254  47.8310537
  47.3546839  53.1507444  26.3927174  47.7601337  53.4823847  25.5915570
  47.9328728  53.4488678  27.0948935  53.1059933  81.2534714  31.8640804
  52.2797346  81.0186481  31.4417148  53.6485863  80.4692554  31.7814231
  78.7435913  81.9280243  13.6459887  77.8718805  82.2112656  13.9218926
  79.3379498  82.3317528  14.2784226  46.8917036  62.2509241  48.6147118
  46.5567636  61.5545702  49.1796350  46.7266655  61.9379902  47.7252913
   5.2868864  59.6553469  30.0171804   5.9723970  60.2924109  30.2183175
   4.9399683  59.3989944  30.8716750  76.6897774  66.9485188  17.1146262
  76.3888264  67.8495884  16.9974458  77.4770594  67.0270920  17.6533699
  66.5279245  36.6957045  44.8594236  66.8445730  37.4531603  44.3672609
  65.6988049  36.4667583  44.4394445  72.8557777  61.7249012  18.8397074
  73.6103296  61.9096041  18.2804513  72.5279045  62.5879908  19.0923178
  48.7546730  61.2352371  22.7814174  49.0889549  60.4164410  23.1475592
  49.2091179  61.9201279  23.2719612  69.1191816  59.0061951  42.3655939
  68.9108324  59.7879839  41.8540955  69.6599770  58.4747887  41.7813158
  66.2583685  59.9834204  31.2968516  66.9989395  59.5361900  30.8872533
  66.5155649  60.9052372  31.3150835  66.8998337  29.4396377   1.4497194
  66.3778591  28.6946702   1.7477083  67.4061298  29.0978599   0.7127764
  30.8989263  57.8089571  43.2652521  30.7719707  58.2379341  42.4190283
  30.8041716  56.8752337  43.0770493   0.3021230   0.1916596  22.2893977
   1.1074867   0.7030389  22.2112036  -0.3142033   0.6235406  21.6979074
  53.9969873  79.2617178  55.5262566  53.9576006  79.9201775  56.2198830
  54.8302937  79.4277000  55.0854826  77.3026943  78.4017992  23.2351422
  76.8498325  77.6278210  23.5699654  77.4183846  78.9622498  24.0024376
  74.9596024  51.6927338  38.5878253  74.2216921  51.3802147  39.1113281
  75.5207253  52.1502590  39.2139602  52.4833536  72.7610493  42.1813202
  52.4818945  73.7124777  42.0763922  51.6773844  72.5718355  42.6617861
  61.7544651  58.5041285  31.7428088  62.4329281  58.1413651  31.1733103
  60.9311533  58.2610226  31.3193893  45.8351851  63.8787413  42.2845745
  45.9110689  64.8329115  42.2786570  46.3936186  63.5985565  43.0097532
  46.1435890  48.4442043  35.1581144  46.1628103  47.7287436  35.7937121
  46.4569712  49.2060757  35.6455302  39.8598671  41.7222404  17.0971692
  39.8342061  42.6022673  16.7214966  39.5250893  41.1553478  16.4023387
  10.5790961  73.9284420  22.0581627  11.4420462  73.7440157  22.4290228
   9.9734193  73.8082838  22.7895641  21.6605749   4.5435807  28.3178592
  20.7992353   4.1678807  28.1357217  21.7569627   4.4724366  29.2675352
   2.6096746  29.8785973  44.2672777   2.4392912  29.8117232  45.2068138
   1.7410490  29.8708487  43.8651896  46.6807032  70.9489012   2.9995975
  47.4227762  70.8972549   3.6019999  45.9209967  70.7206631   3.5353047
  51.7113447  68.8387156  34.9121213  51.1876202  69.5597124  34.5626783
  52.5108099  69.2565966  35.2322149  71.6585636  57.8995895  58.0985165
  72.0613766  58.1107187  57.2562599  71.1823559  57.0847750  57.9387188
  11.3250276  82.3229122  20.9812307  11.8064138  83.1491089  21.0247755
  10.8618757  82.2712231  21.8173242  32.4377567  14.9930288  71.3963952
  32.8883822  14.5145799  70.7005112  31.5401060  14.6615363  71.3724789
  31.2417967   9.8396445  65.9787325  31.1301262   8.9469863  66.3057242
  30.4329617  10.0225259  65.5006383  35.8171678  22.0760274  16.7892766
  35.6536746  22.2890306  15.8705103  35.8039594  21.1193919  16.8193758
  69.3344300   2.1084496  22.2763252  69.9994581   2.0986745  21.5879393
  68.9236730   1.2453935  22.2248054  53.3170795  72.8659725  45.9993839
  53.8988733  72.7371264  45.2502871  52.5538921  72.3214388  45.8063507
  46.3670349  65.3740692  39.5412374  47.2830105  65.4867315  39.7952557
  45.8689260  65.7314873  40.2763414  10.5491104   3.9573762   3.3253527
  10.1051321   4.8052499   3.3405012  11.3409700   4.0923306   3.8459110
  23.1727239  42.0255423   1.7527598  23.0919191  41.3184834   2.3928891
  22.5371286  42.6815414   2.0389579  80.2083492  72.1565866  48.2811213
  79.4346285  71.8936825  48.7795877  80.8794785  72.3130512  48.9454508
  65.0703478  57.5769806  21.9915485  65.4451752  58.3699799  21.6082859
  64.5239544  57.8937578  22.7108097  85.7901478  70.0689459  54.0004206
  86.2890434  69.2535162  53.9513922  85.0941849  69.8863411  54.6317053
  69.5029163  75.1587772   2.1129812  69.2935610  75.8455801   2.7459908
  68.8577318  74.4722605   2.2822885  82.3635578  41.4526749  19.5613372
  81.7449951  41.9115067  18.9929330  82.4868965  42.0415497  20.3058124
  67.2851849  69.0385246  29.3728495  67.3665476  68.3412361  28.7221575
  66.7932320  69.7271919  28.9256859  14.4547102  74.6304083  22.3154235
  14.1317865  75.4699612  21.9881487  14.9121115  74.8496962  23.1271625
  65.8964968  57.6895189  27.1959329  65.3893137  57.1811676  26.5630245
  66.3786030  58.3222961  26.6635799  71.7658043  67.5338745  43.1485415
  70.8428240  67.4275112  43.3788061  71.9942570  68.4055948  43.4712648
   3.1760332  65.1540327  13.4279811   3.2075617  66.0444880  13.7777424
   3.9680311  65.0775290  12.8958869  11.3040819  11.4321038  11.2691450
  10.6317653  11.7145249  11.8891954  10.9173574  10.6784913  10.8233368
  80.8423328  57.5805044  34.0181899  81.3665867  56.8310118  34.3004107
  80.8495140  58.1741476  34.7690368  68.3392525  50.9553814  34.2791891
  67.7051640  51.5904093  33.9461684  68.7453890  51.3924265  35.0277042
  62.4975586  79.6510267  37.5992298  62.3686981  79.3960476  38.5127997
  63.3899593  79.9960136  37.5704384  87.2350502  57.4900055  70.1467371
  87.3902798  56.8666410  69.4371223  87.7730656  57.1682978  70.8701134
  71.1453056  70.5776024  20.0859427  70.6039190  71.3142347  20.3696752
  71.2607908  70.7134867  19.1455007   1.6060373  59.4156742  49.0435600
   1.5884897  58.8827372  49.8384857   1.6161272  58.7792158  48.3286810
  62.7281332  60.7548952  68.0070925  63.3636951  60.6995678  68.7206984
  63.1883621  61.2259436  67.3124456  11.6527881  20.1831052  53.4028196
  11.5306081  20.2013585  52.4536228  11.0034027  20.8003327  53.7398052
  48.6284971  75.5444622  20.7328176  48.8824129  75.5560112  21.6556549
  49.0153027  76.3404036  20.3679991  60.9619999  57.1193790  20.9027147
  60.7156897  57.8888512  21.4160156  61.0246944  56.4127874  21.5453863
  87.9018991   6.3599202  26.3967347  87.4668472   6.6417119  27.2014427
  87.1904438   6.2489793  25.7660532   1.8670103  77.5085783  38.5041618
   2.7455923  77.1894550  38.7102866   1.7915651  78.3314085  38.9873695
  69.0967417  49.2490005  50.8430290  69.5439100  49.1065884  50.0087643
  69.7571707  49.6585226  51.4019156  80.5685425  61.6476107  62.7791071
  80.4210949  62.2397900  62.0416689  81.2532997  62.0733404  63.2949495
  50.0587940  29.4593525   0.2478911  49.6867990  30.3327727   0.3703253
  49.5707512  28.9038062   0.8556878  64.3455315  68.4193087  44.5396137
  63.4944010  68.7960005  44.3161917  64.5062876  67.7686071  43.8562584
  40.0113201  69.3881607  51.2849855  40.3611088  68.9654779  52.0693445
  39.9863791  70.3192616  51.5055799  68.9578962  63.4883690  11.1129105
  68.1732035  64.0336037  11.0563004  69.3820286  63.7627125  11.9259751
   2.1423361  50.0364876  49.3127012   2.4715826  49.3479919  48.7349415
   1.3242361  49.6841669  49.6631479  52.0503044  32.9943395  20.5632734
  51.2636948  33.5370135  20.5086279  52.4598694  33.2488060  21.3901544
  60.3111839  52.8323746  17.1300805  59.4743872  53.0425262  17.5446153
  60.7476997  53.6782742  17.0293558  20.1326990  58.1637383  33.6047649
  20.3366971  58.0809593  32.6732278  20.4513288  59.0342569  33.8433003
  24.6831503  14.4212338  18.2236052  25.0096597  13.6723420  18.7223840
  25.2587881  15.1442811  18.4727752  57.6214886  81.1082458  26.4838338
  57.2527456  80.4691601  27.0936131  58.1268787  81.7035484  27.0373893
   2.6710071   2.6645848  45.5169153   2.2274389   2.2589013  46.2618303
   3.3207025   2.0170590  45.2433681  79.6762180  78.8016653   1.5880187
  79.0703201  78.1685829   1.2028940  79.2007732  79.1640568   2.3355854
  51.5443420  60.0106478  36.4430690  51.2366390  59.9707556  35.5375528
  51.1177540  60.7863998  36.8070340  85.5251789  40.7590485  30.4585052
  86.1539555  40.0855160  30.1992178  84.9233341  40.3092766  31.0515642
   2.3952982  28.8207674  46.8565559   3.2413217  28.3742046  46.8890285
   1.7521784  28.1260252  46.9978380  53.4770679  62.5480843  56.4858961
  53.4645176  61.7299128  55.9892416  54.4005919  62.6865578  56.6960478
  69.3602269  10.5005357  64.9186611  68.7346094  10.9712789  64.3679905
  69.2795723   9.5867154  64.6454382  72.1078539  64.6701431  50.1190281
  71.6620398  63.8541031  49.8919678  72.5523281  64.4784880  50.9448242
  43.8796568  51.7878437  41.9755554  44.0474510  50.8821917  42.2360659
  42.9386854  51.8168592  41.8024540  77.4735403  75.3558636  31.0847402
  76.8252087  74.7774220  30.6831169  77.1097469  75.5621338  31.9457507
  28.1217177  10.3516246  68.3583025  28.6370070  10.6101466  67.5941841
  27.7441485  11.1700345  68.6806021  70.5739420  19.7145936  45.1407385
  70.5834597  20.6497857  44.9368477  69.9904459  19.6400163  45.8958578
  24.4564935  79.7157383  30.3016973  24.9339697  80.5402279  30.3936815
  24.9822351  79.0791655  30.7860470  29.1044950  64.4227552  54.6474409
  28.5092163  63.6738825  54.6801090  29.6082377  64.3638802  55.4592371
   3.8762876  53.4006453  39.0237427   2.9628011  53.5501003  39.2675304
   4.3233415  53.2427263  39.8552704  76.0141724  11.2439534   6.6558623
  76.2990730  11.9913480   7.1816623  75.8969562  10.5361268   7.2894841
  56.3792832  33.8808728  60.3004090  55.4788239  33.5927011  60.1508431
  56.2903244  34.7361757  60.7208602  27.2974873  65.2338934  47.2793198
  27.1773314  65.7944918  46.5128183  26.4118576  64.9579668  47.5154448
  52.4077892  61.2281418  30.0768709  52.2111130  61.9725037  30.6456208
  53.0713177  61.5583134  29.4711113  75.8507824  61.5519619  28.1855631
  75.0820494  61.6348934  27.6212907  75.8279037  62.3334122  28.7378740
  60.9668779  47.5044107  17.3309469  60.4594994  46.8425989  16.8610501
  61.4540339  47.9632616  16.6465735  71.0981321  63.1071091  37.4115396
  70.5760193  62.3582554  37.6993752  70.6821918  63.3902788  36.5972662
  56.9757929   8.9278314  33.5398459  56.6475572   9.5501039  34.1888928
  57.2962846   8.1889436  34.0571094   7.9644289  32.1194360  45.0759983
   7.1316471  32.5899026  45.0390005   8.0689134  31.7481896  44.1999340
  16.0524692   0.7082269  49.9629116  16.0032787   1.3857839  49.2885780
  16.1375751  -0.1103881  49.4741678  36.1564350  53.9621735  38.5194564
  36.9321012  53.5456991  38.1437945  36.4008045  54.8828506  38.6136127
   5.2472612  52.8767920  41.6468143   6.1095354  52.5008869  41.4696217
   5.4105112  53.8148308  41.7451239  31.9779195  16.6469380   4.1627944
  31.9715395  15.7379720   4.4627395  31.1974420  16.7235372   3.6139607
  49.3541813  47.8110838  41.7096424  48.7122393  47.1333933  41.4977980
  48.8542843  48.6272573  41.6957378  33.5750992  24.1727735  46.5060226
  33.5863478  24.5915414  45.6453602  34.4966919  24.0048219  46.7027251
  44.5063877  55.9807825  24.9983311  44.3150806  56.8101072  24.5603108
  43.7713194  55.4128170  24.7674179  58.2811832  79.9910831  52.8357792
  59.0789413  79.7857618  53.3232737  58.4838486  80.8065319  52.3772907
  14.9552748  81.8394852  34.7317195  15.0128385  82.4660206  34.0103459
  15.2239248  82.3376656  35.5036497  15.7001135  55.5311871  38.3037066
  15.7190439  54.8174429  37.6661777  16.3781282  55.3024864  38.9394927
  57.6495504  68.2736301   5.5574107  58.5058641  68.5530233   5.8812881
  57.7489328  67.3353481   5.3962022   4.3494596  13.3831784  57.8328180
   4.5865526  13.2948205  56.9096661   5.1687183  13.6168572  58.2692051
  77.1907425  21.0030246  23.2164168  78.0198526  20.5972385  23.4696865
  77.4382448  21.8652391  22.8824091  51.9078732  81.9454098  27.9168272
  51.4884949  81.0864353  27.9670119  52.6697016  81.8739605  28.4919333
  49.2639723  13.5325620  14.4542027  49.4941511  14.3116281  14.9604678
  49.4925871  13.7569043  13.5521829  53.5631210   2.2369863  61.3937823
  53.6507733   3.1627561  61.1668436  53.1568367   1.8390657  60.6238310
  68.1755686  61.1384010  28.3146644  69.0451574  61.3449478  27.9720545
  68.3343601  60.4769278  28.9880705  46.5620041  31.3752818   0.2249645
  47.3982191  31.6462684   0.6038426  46.6861343  31.4670181  -0.7197094
   8.7383959  58.2986212  57.9518652   8.0961534  57.9074240  57.3596573
   8.8775560  57.6343584  58.6268663  68.1124163  64.8437023  30.4874253
  67.4113274  65.4093885  30.1638365  68.3255196  65.1966763  31.3512683
  74.5913084   7.1766372   4.4533356  75.4421575   6.7393013   4.4852789
  73.9606531   6.4896627   4.6691473  66.7441742  75.6254987  44.6356027
  67.4986045  75.0804619  44.8592131  66.9756858  76.4976291  44.9550073
  48.3819609   4.0402982  21.4821243  49.1705387   4.0441129  22.0246744
  48.2085472   3.1133267  21.3181353  65.4719448  66.0738468  30.4928517
  65.2892637  66.4706087  31.3445807  64.9910259  65.2463341  30.5060148
  82.2706192   8.6548230  30.4919863  82.6196068   8.5289189  29.6096087
  82.3848026   7.8053758  30.9181738  30.2245069  65.1481295  30.5557370
  29.4018483  65.2043009  30.0696206  30.3474450  64.2116547  30.7110906
  23.2052633  53.5607004  28.1776190  23.3955499  53.9432144  27.3210549
  24.0053674  53.0911303  28.4133267  65.0453901  54.1274881  49.5018339
  65.7701063  54.1428185  50.1269579  64.2685604  53.9734316  50.0394583
  25.2235126  69.7222948  29.0169787  25.9562802  69.7137308  28.4011793
  25.3355122  68.9243317  29.5336485  86.9353008  44.7258568   5.2175707
  86.1976910  45.3357124   5.2328801  87.6809311  45.2587032   4.9412721
   7.0291288  37.5024940  64.1931818   7.8198964  37.4282314  63.6589472
   7.2262938  37.0004512  64.9839489  58.6226766  11.0080716  17.6275969
  59.2932146  10.9253308  18.3056557  57.9957264  11.6362569  17.9861331
  85.8698750  39.0908265  17.0432019  85.6152058  38.8946509  16.1415970
  85.0993824  38.8648748  17.5642800  86.2696552  49.0039444  39.9383855
  86.7451668  48.4021664  40.5110836  85.7159805  48.4367323  39.4017816
  66.4894676  77.7462816  31.7829895  66.9630098  77.5128317  32.5814176
  67.0086050  78.4499788  31.3937068  80.8769417  74.8214579  36.9937205
  80.5889320  75.5282640  37.5713992  80.3805065  74.0566778  37.2850966
  65.9611273  55.0853395  33.7215376  65.7650518  56.0043430  33.9038086
  66.8153048  54.9376059  34.1274858  63.8542938  79.8203421  16.7127335
  64.6390295  79.2807341  16.6166091  63.6900997  79.8384714  17.6555729
  56.8809938  43.9654875  18.0269885  57.6281357  43.9329576  18.6244428
  57.2615385  43.8262606  17.1597898  84.5747965   1.6547486  32.3683739
  84.7188967   2.4356458  32.9028440  85.2563684   1.6945645  31.6974783
  49.2733479  72.8540230  30.5381966  49.7289658  73.6587238  30.7853794
  49.9736834  72.2425127  30.3105712  31.3384581  66.8391275   7.1612352
  30.6119108  66.7670441   6.5422332  32.0966315  67.0516586   6.6169584
  43.3099086  10.4893776  16.5820130  43.6284215  10.8094402  15.7380112
  42.4757631  10.0663133  16.3784226  33.3828425  71.4294052  45.1358509
  33.9987040  71.4678955  45.8676052  32.5214577  71.3786459  45.5501747
  27.1494555  54.5863104  17.5921524  27.7584910  55.1867533  17.1622920
  26.4551377  55.1513720  17.9310596  71.6233856  58.6799957  65.5479376
  71.3416035  59.5783282  65.3752242  71.2770588  58.1747485  64.8124049
   6.3365211  23.8978955  50.2688074   6.2904205  23.5339734  49.3846893
   5.5622282  24.4563100  50.3386354  20.5328073  55.8350369  15.1721632
  20.6562891  56.7444894  15.4439712  19.7298851  55.8476636  14.6512127
   2.2367403  71.2099314  19.4218779   2.7205393  70.6384993  20.0182295
   1.3260576  70.9272337  19.5053589   1.2888231   1.8238160  24.9586296
   1.2574901   2.1275899  24.0514517   1.3589468   2.6252648  25.4772878
   7.0049688  76.5543175  46.8399334   7.6806948  75.8950472  46.6818571
   6.5606710  76.2563562  47.6336956  76.2244606  51.6558981  27.0594072
  75.3673840  51.2783003  26.8617535  76.6765261  50.9756708  27.5585604
   9.1167392  24.0124890  21.0872841   9.4592180  23.1368539  20.9078121
   8.5215892  24.1907784  20.3591108  77.2189856  60.1864243  40.3688335
  77.5837898  60.7648230  39.6990490  77.3130989  60.6765461  41.1856318
  55.7705069  56.9563580  13.2121181  55.2221394  57.6395416  12.8264034
  56.6667891  57.2304440  13.0177224  72.2452831  78.3160353  41.1918449
  71.7579412  78.9426708  40.6569958  72.9938650  78.8134336  41.5211630
  17.1178665  16.4171025  28.5880232  16.5961780  16.6176793  27.8109503
  17.5446357  17.2446153  28.8101339  20.9681732  51.9547225  68.8335435
  20.1540882  51.4887572  68.6428146  21.4792139  51.8839217  68.0272834
  21.0388126  23.0382440  37.2326016  21.0655775  23.7792108  36.6272235
  21.3519659  23.3961961  38.0632854  34.2840566   7.4644658  29.0756273
  35.0129690   7.0194718  29.5079565  34.2710485   8.3381173  29.4665170
  57.6376152  55.6553459  51.3404703  57.3025513  55.1956415  52.1103001
  58.4228420  55.1671314  51.0928869  85.8392399  14.1188333  28.8892221
  85.9520214  14.9463174  28.4214950  86.7149084  13.7326810  28.9073658
  57.1229799  14.4008442   3.6669834  56.6957910  15.2468057   3.5325106
  57.5677831  14.2227407   2.8383310  22.2074015  26.3498403  56.9704787
  21.7963011  25.4980375  57.1176700  21.5532572  26.9850303  57.2617881
  11.7529716  11.7965695  17.8896785  12.4835386  11.2016293  17.7207160
  11.5686359  12.1968839  17.0399690  61.5529490  83.0215263  29.0286613
  62.0482397  83.8316631  28.9079022  62.1994019  82.3904800  29.3450809
  74.9037266  63.1959724  17.5165677  74.7584057  63.3755302  16.5876591
  75.4742336  62.4274206  17.5255585  52.9343374  62.0041319   6.5304621
  52.0193918  61.9418283   6.2561758  53.1985242  62.8904386   6.2836846
  18.2461393  66.5287638  56.2857437  18.1463087  66.6998386  57.2222281
  17.4966431  66.9656372  55.8812332   2.2272291   2.0930001  37.9141045
   2.5165548   1.4274117  38.5382223   2.3694696   1.6942689  37.0556092
  77.0456028  77.7020931  54.4279671  76.7793560  76.7881823  54.5285320
  76.7771816  77.9332972  53.5387421  69.0480232  71.4916277  31.8025827
  68.9549637  71.6988564  30.8727288  69.1934061  72.3389673  32.2234297
  67.4935675  76.6918850  12.9640150  67.4055386  76.6194820  13.9144051
  68.4380436  76.7297697  12.8131557  62.7132082  59.3398046  37.2406292
  62.2873163  60.0792217  36.8069172  63.5268927  59.7033072  37.5899339
  13.6840906  25.6909749  23.5713911  13.3387222  26.5800759  23.6516786
  13.0712785  25.2480790  22.9844189  81.7860096  -0.0137237  46.7621517
  82.0791929  -0.4930976  45.9872437  82.5418775   0.5156037  47.0165348
  66.4342117  65.7557869   4.2769000  66.2600183  66.3292694   5.0232255
  66.6502333  64.9101543   4.6699291  84.0675259  65.2212429  60.3609037
  84.8296261  65.4121113  59.8141003  83.3392048  65.6552505  59.9165869
  15.6737175   9.9531266  47.0908308  16.2323179   9.8428628  46.3213921
  16.0541811   9.3708703  47.7484417  71.4440410   8.7813470  21.0138154
  70.5410402   9.0853593  21.1054730  71.4747827   7.9670999  21.5160966
  38.8000765  12.5521085  37.8867626  39.3102731  12.0442674  38.5176587
  38.4004678  13.2488725  38.4073997  55.0069036   9.7446725  26.6358542
  55.9565534   9.8339459  26.7161179  54.6966448   9.6659467  27.5379491
  64.5558023  68.3941555   3.2417697  64.9237442  68.7580585   2.4365211
  64.9502563  67.5250006   3.3139357   4.7085115  79.5104647  44.4828272
   4.9735376  79.3420076  45.3870487   5.4967233  79.3412876  43.9667463
  14.7481813  16.5013787  34.8005748  14.9982633  16.8442532  35.6585526
  14.5392599  15.5813024  34.9619555  34.7065470  79.0186214  39.5646453
  35.3000185  79.1765499  40.2988625  33.9638349  79.6000290  39.7276759
  61.2312222  74.3683529  59.3433571  61.8056822  75.0681305  59.0326548
  60.8276510  74.7236395  60.1352739  44.1733255  11.6206548  31.1763215
  45.0881376  11.5917012  31.4565253  44.1545477  12.2857091  30.4881525
  86.2237947  30.6120870  19.7511363  87.0527285  30.5866334  20.2291012
  86.3056009  29.9220178  19.0928471  80.6682890  20.0821111   4.3549815
  79.8974626  20.6214425   4.5315668  81.3642042  20.7124993   4.1691262
  12.9573240  15.3214166  31.2327552  12.9294862  14.6693227  31.9329214
  12.8734770  16.1612985  31.6841984  59.2414236  78.4356403  27.1567273
  59.6158791  77.6699066  27.5922298  59.9300051  79.0988350  27.2043252
   7.7695646  15.1185700  33.3905792   8.6369648  15.0708959  33.7925410
   7.1814003  14.7411344  34.0446663  87.8612804  75.3771734  22.9150963
  88.6703014  75.0461817  23.3051729  87.6985359  74.7962379  22.1719551
  21.2982389  72.7964211  60.7270718  21.1015531  73.0047274  59.8137522
  22.1751806  72.4135685  60.7019234  56.4293766  73.6450243  24.2931914
  56.4209223  74.0795326  23.4403348  57.1952438  74.0070534  24.7388577
   4.1747608  16.8721291  34.1941333   3.5556450  17.3432633  34.7517681
   5.0010671  17.3429582  34.3026161  19.4669857  24.9000546  16.1256027
  18.6799850  24.9078462  16.6703939  19.8607578  25.7618997  16.2612927
  55.4072428  61.6559410  51.6858721  56.1904287  61.1083889  51.7409945
  54.8724461  61.3848162  52.4320078   6.1837663  24.1413876  22.6015425
   5.8418264  24.9976060  22.3442507   5.8271494  23.5358998  21.9515896
  82.6436251   9.1537282  26.2806010  82.4011152  10.0307080  26.5778136
  83.1163757   9.3006799  25.4613662  85.3044891  52.7095699  30.0261354
  84.5830727  53.0817270  29.5189023  86.0825253  53.1668139  29.7070289
  24.1688051   5.2310559  59.0527534  24.3468752   6.0840032  59.4489956
  24.4911565   5.3119847  58.1551075  80.0215118  20.8182332  33.3203435
  80.9253710  21.1322209  33.2943463  79.9071854  20.4910466  34.2125940
  72.4888199  16.3236138  41.5490723  71.5654104  16.4080235  41.3115454
  72.8364914  15.6784055  40.9333897  62.0793598  32.8156278  53.9544153
  61.2994402  32.2745702  54.0777636  62.3798173  32.6047227  53.0704069
  75.6921721  59.7150946  30.3311229  75.6534815  59.0425968  29.6510625
  75.7079697  60.5421448  29.8494887  84.3266218   1.0539815  27.6048732
  84.6606701   0.1751039  27.4253511  84.7944897   1.6183850  26.9894218
  69.1638691  68.0637599  65.5535344  69.9491531  68.5755016  65.3594254
  68.7072785  68.5709811  66.2247167  75.3492577  38.0552198  49.1913764
  75.0079949  37.5927211  49.9567954  75.7606251  37.3717881  48.6623017
  15.3783686  67.0109130  67.1086876  15.1789124  67.8011657  66.6067408
  15.7190830  66.3948585  66.4601372  31.8407144  52.6375386  19.3500710
  32.6082220  52.9755494  18.8886499  32.0976057  52.6346776  20.2721477
  63.1118860  16.8200681   6.4434338  64.0584936  16.8833539   6.3162822
  62.9575433  15.8954999   6.6372722  13.2325782  34.2618749  43.0050755
  12.3186674  34.4837853  42.8268671  13.2170953  33.3260629  43.2056761
  77.9321831  29.3818089  49.2957497  77.7872055  29.9572560  50.0467968
  78.8632839  29.4786832  49.0960026  47.8073628  43.1185867  66.3637648
  48.2295782  43.9105941  66.6964601  46.9860346  43.0618430  66.8520616
  60.4537821  60.9344149  13.9954519  61.1471701  61.3436556  14.5131063
  60.0301790  60.3260136  14.6009588   8.9837684   8.8757512  17.6231420
   9.0714016   7.9608724  17.3556519   9.3400516   8.9008138  18.5112095
  14.8106231  29.1344544   4.2701986  15.0683727  28.3125684   4.6877044
  15.5136671  29.7456452   4.4902071   3.9475431  39.2408463   3.2859021
   4.3105926  39.0489099   2.4212703   3.5187235  40.0903413   3.1824243
  37.2098739  20.5259701   3.4167965  37.0938785  21.2971969   2.8618343
  37.9056079  20.7720180   4.0264233  54.7273922  62.3491812  28.3821011
  55.1399040  63.1232548  27.9988647  55.1461887  61.6108227  27.9397488
  11.3937008  77.2977686  53.1148243  11.8757737  77.9249048  53.6538410
  11.5250242  77.6028395  52.2170973  40.1592016  82.4356556  48.8436794
  40.5940962  81.5829754  48.8496447  40.6936359  82.9730129  48.2589960
  16.4767351  36.3842961  24.1237640  16.8376436  37.0131871  24.7486472
  16.9153347  35.5597302  24.3334126   6.9371404  34.3637273  36.9094968
   7.2463312  33.5305116  36.5539789   6.5048303  34.7933766  36.1714339
  35.9631753  68.7336111  10.2015579  36.3697600  69.4985342  10.6087542
  35.1684880  68.5836983  10.7136405  42.7379503   7.3242185  29.1797233
  43.6168565   7.4045560  29.5502687  42.3522653   8.1936452  29.2873240
  18.2121124  17.1649453  43.5429049  18.0591001  17.2338864  44.4852781
  18.6810436  16.3373181  43.4363079  76.5089369  72.9605627  17.9504979
  76.6273451  73.8379478  18.3143771  75.6064224  72.7297878  18.1705892
  61.8204910  54.8474075  33.4522192  61.3818962  54.0605212  33.1286733
  62.1654827  54.5943881  34.3084876  65.1957281  18.0721517   3.3794125
  66.1231954  18.2636734   3.5185249  64.7403390  18.8546463   3.6901625
  18.5344543  42.6487348  33.8492250  18.6506071  41.7623994  33.5069609
  18.8626804  43.2188985  33.1539440  14.7176477  67.6099634  44.3557453
  15.6571314  67.7049160  44.1989326  14.4497034  66.8944120  43.7791824
  63.3368731  80.8776093   9.3701547  64.2749596  81.0501194   9.4505656
  63.2722092  80.2254581   8.6724830  10.7795181   2.5745198  37.3849654
  10.3810777   2.9504201  36.5999961  10.1898327   2.8248021  38.0962038
  75.6919878  11.4011762   3.8776270  75.9184807  11.4043424   4.8076385
  75.2367752  12.2317407   3.7391466  76.7066574  49.4815683  38.0149484
  76.5842390  49.1314745  37.1325207  76.0058355  50.1255989  38.1164670
  57.9684067  76.6247511  12.1698570  57.7266550  77.4095583  12.6616538
  57.1326637  76.2461090  11.8970966  74.3120480  58.8892698  37.4132967
  74.7156906  59.6123695  36.9332600  73.5615301  59.2852068  37.8562236
  58.4584301   4.8804948  50.6289959  58.0031484   5.3839490  49.9540997
  57.8727978   4.9097440  51.3855743  80.5879372  18.6451241  55.9186268
  80.8707540  19.5365712  55.7147503  81.3945978  18.1299111  55.9093666
  83.0384636  82.4221039  26.6895628  83.6849022  81.7425346  26.4984417
  83.5005188  83.2445812  26.5275240  48.8382959  81.3986778  15.6807721
  48.5676050  81.9427872  16.4202952  48.3072281  81.7095947  14.9476087
   8.2725658   8.5672376  37.2367740   8.1337299   9.1028878  36.4557290
   7.5099411   8.7444875  37.7874303  40.6437874  79.1600227  11.0440457
  41.3630867  79.7626543  10.8551717  40.7139063  78.4844923  10.3695297
  84.9498367  60.2397966  19.8771226  85.7991982  60.0872612  20.2913046
  85.0203133  59.8145437  19.0224719   9.7261259  71.4339733  57.6848030
   8.9234945  71.0414886  58.0282640  10.0911352  71.9192028  58.4247684
  71.3603687  40.5173397  10.7520425  71.4016390  40.4461384   9.7983873
  71.7178535  41.3844681  10.9431732  37.1320033  73.6499405  46.8111706
  37.9893708  74.0734625  46.8533945  37.2701120  72.8846741  46.2530327
   6.9420042   1.0985658  47.5990105   7.7954807   0.8517358  47.2428083
   7.0291748   0.9664723  48.5430336  18.5736074  11.3801572  31.1791182
  19.2811813  11.8654725  30.7548141  17.9959001  12.0575139  31.5307999
  46.9933271  77.6600790  16.1237836  47.0816803  77.9128599  17.0427656
  47.5582504  78.2718468  15.6517220  75.0012922  59.3048048  44.5235538
  74.4557858  58.9886808  43.8033295  75.5939865  58.5772562  44.7122955
  68.7093592  82.0946789  18.9310849  67.8091192  81.7710686  18.8982427
  69.0729809  81.8787098  18.0723834  47.7853496  33.9846798   1.9257410
  48.0228765  34.7073694   1.3447674  46.8373544  34.0641590   2.0316418
  75.9116514  53.6960550  15.1333721  75.5246885  54.5084043  15.4598339
  76.8505533  53.7985750  15.2889164   8.0462351  32.0326707  20.7800484
   7.6700773  32.5088784  21.5202904   8.8650694  31.6710183  21.1190915
  75.8087254  50.0387430  42.9261875  75.0740147  50.2121401  43.5147190
  76.2363482  49.2671967  43.2977915  48.6499500  75.9678793  43.7908125
  48.3770418  76.7095280  44.3309164  49.2042112  76.3558340  43.1136751
  59.8641396  61.2554264   7.8539288  60.4958582  61.2137365   8.5718578
  59.9463701  60.4097557   7.4131250  59.3126917  69.1750622  54.9609184
  58.5556650  69.0760422  55.5382776  59.6183109  70.0684929  55.1177931
  58.0040295  57.1421672  63.6077146  58.2834465  57.7271033  64.3119965
  58.4948761  57.4385883  62.8412674   9.7032663  83.1084251  55.4369354
  10.0439665  82.9342461  56.3143301  10.4415437  82.9316998  54.8538780
  42.3319006  75.7305717  21.8884254  42.6661301  75.3646708  21.0695004
  43.1132317  76.0289907  22.3539305  59.8284960  72.4584484   0.8083344
  59.5448208  72.4405670   1.7223591  60.3686190  71.6743660   0.7098025
  73.2462662   9.0224168  32.4479103  73.5146015   9.6881482  31.8146491
  72.8108471   8.3523366  31.9209981  42.5218317  54.7509909  42.4562263
  42.7558443  54.4990253  41.5629339  41.5799639  54.9175549  42.4191523
  55.2635860  64.3387413  52.9607534  54.3323612  64.5203733  53.0874825
  55.2826309  63.5901880  52.3644876  14.8238966  71.7486143  14.3794203
  15.1793691  71.6998816  15.2668273  14.6098921  70.8425379  14.1570354
  39.4666185  35.0557610  25.9799552  38.8609304  34.4684884  26.4321446
  39.1182031  35.1208398  25.0907946  15.9635391  18.3983705  42.7566528
  16.6886987  17.8405282  43.0380630  15.9974899  18.3711049  41.8004465
   1.4756700  78.7950850  45.4341650   1.9478723  79.5734024  45.1384020
   0.5532572  79.0042639  45.2870750   7.5351991  18.6492917  16.1124599
   7.8399934  18.8046739  17.0064318   8.2099952  18.0935475  15.7225370
  54.8262501  62.7885008  17.0498991  54.4748211  62.2766924  16.3213527
  54.0687084  62.9605150  17.6091611  72.4153185  42.2473431   7.6987827
  72.7533770  43.0689049   7.3424315  73.0785561  41.9693947   8.3305210
  27.0106401  12.8514478  44.5296669  27.1035852  12.5013635  45.4156876
  26.4696397  12.2071740  44.0730953  84.9016190  63.7850714  34.1280746
  85.2098751  64.4100809  33.4718919  85.3883266  62.9822588  33.9414239
  14.6527185   4.3437478  38.6796474  14.8738994   5.2469727  38.4527254
  15.4549398   3.8504502  38.5083866  32.4662287  42.0743228  71.1860404
  32.6833803  41.1529399  71.3279138  33.1057341  42.3744060  70.5401160
  17.0503599  47.7020885  65.7769189  16.8251879  48.5699416  65.4417185
  17.9415161  47.7988101  66.1126463  72.8446358  11.6304967  56.7160559
  72.9580801  12.3629376  57.3217630  73.7313097  11.4255139  56.4193630
  45.6461038  11.1506364  40.7830715  45.4774942  10.4208657  40.1870584
  46.5736093  11.0691163  41.0051584  60.7845259  62.6490068  31.1789870
  60.4755688  61.8229294  30.8070016  60.2187347  63.3144522  30.7874632
  47.1263361  59.6453953  42.2966146  46.7830133  58.9473867  41.7388105
  46.4465332  60.3191233  42.2829628  37.2885496  66.0969211  71.0202436
  38.1061775  66.3880969  71.4238989  36.6039879  66.4186240  71.6068523
  80.2142239  68.0981159  59.8402071  80.9669590  67.5175381  59.7282314
  79.5791721  67.5752401  60.3296423  77.7403212  66.6333818  50.8217573
  78.6057949  66.3444519  50.5324411  77.3915339  65.8898115  51.3133717
  83.2806301  35.1140833  67.5163412  83.2369041  35.7192254  68.2566929
  82.3711109  34.8592043  67.3612833   6.5644397  40.5717465  12.8359139
   5.7369842  41.0188100  12.6579142   7.1613922  41.2704274  13.1037140
  57.3028231  60.5461836  20.7072759  58.0188560  61.0464525  21.0987616
  56.5941238  60.6005669  21.3483810   4.1340961  12.5605580  28.7701082
   4.7050657  11.8211266  28.9785862   3.3986463  12.1697041  28.2983303
  69.1202968  13.4219930  23.7533784  68.5865920  12.7621457  23.3106661
  68.7873881  14.2578790  23.4267187  51.3444281  63.2661724  31.9268727
  50.6447411  63.3874607  31.2850308  51.1337090  63.8806581  32.6298904
   4.9777784   9.3622682  24.1407657   4.3017759   8.9526269  24.6806216
   4.5467176  10.1248834  23.7549925  84.2637222  18.8148114  15.2307034
  84.5211094  18.1314752  14.6118104  83.5048073  19.2328927  14.8239017
  78.9121723  66.7952538  36.0719776  79.1281891  67.5531244  36.6152978
  78.2320356  67.1125317  35.4778552  50.0026281  29.5861145  20.4713162
  49.2050941  30.1118417  20.4097851  50.2907665  29.6932359  21.3778122
  37.3821712   2.6063147   0.8621852  37.0297480   1.9337013   0.2794146
  36.6137838   2.9651737   1.3060711  78.3227740  66.8268970  44.1733551
  77.4943755  66.9604960  44.6339417  78.4903763  67.6611808  43.7350512
  23.5979776  61.7193345  64.2348180  23.1244986  61.0899441  64.7787992
  23.4134756  62.5687842  64.6355997  15.5015308  78.9962131  35.6982112
  15.4826052  79.5464367  36.4812350  14.6216328  79.0740177  35.3294849
   3.6609223  39.8847747  15.6021941   3.1497967  39.6900558  14.8166573
   4.1572192  39.0836120  15.7697117  32.8022742  36.7032862   8.0645859
  31.8597722  36.6424131   7.9089677  32.8803015  37.2329783   8.8580412
  68.8100860  59.1001108  30.4157424  69.1986583  59.0884665  31.2904477
  69.4757257  58.7049869  29.8526859  72.6415775  81.7227331  20.4072881
  73.4236918  81.6594109  20.9554863  71.9250987  81.4481640  20.9795666
  17.6642639  65.8818760  19.9146640  17.6968414  65.5288771  20.8037996
  18.2002718  66.6740623  19.9516881  13.2044816  10.8407462  40.8761072
  12.9792893  11.7002416  41.2321806  13.3525336  10.2933311  41.6472435
  20.0991644  78.7396673  63.4088538  19.2466177  78.9515833  63.0287389
  20.6779494  79.4381313  63.1032560  85.2187722   2.3178963  62.5405864
  85.2781765   2.4567751  63.4857927  85.3703110   3.1835894  62.1613167
  12.4917204  56.8661693   4.3983048  11.6188414  57.2589186   4.3899718
  12.9577763  57.3329547   5.0919414  71.5829039   0.3047766   6.4513010
  72.2170925   0.9945761   6.6467786  70.9468222   0.7218876   5.8702230
  20.4437566   1.9246076  52.0543337  20.9483719   2.1773586  51.2812138
  20.8940506   1.1501953  52.3916054  38.8514662  29.7760963   4.7048187
  38.4044385  28.9385223   4.5828775  39.7738433  29.5423794   4.8088691
   6.5845759  68.7037566   4.8415554   6.4936335  67.7606133   4.7057524
   5.6935413  69.0442398   4.7618046   0.6674447  13.6204100   5.0181836
   0.3248120  14.5040965   5.1520973   1.0844120  13.3965600   5.8502060
  57.3160839  20.4567623  29.8603940  56.5542936  20.8029652  29.3955803
  57.5210142  21.1243749  30.5150151  74.0090654  56.5996578   0.9014787
  73.3383224  56.0059741   0.5640257  74.6889446  56.6006854   0.2276871
  35.1722002   0.7057235  68.4019136  35.5567074   0.0879614  69.0238142
  34.2371678   0.7009761  68.6066628  14.6075899  55.4866889  13.1005239
  15.2802164  54.8948768  12.7635336  14.0760023  54.9402812  13.6793911
  29.6303034   5.1108396  19.3934023  29.8286605   4.6524245  20.2099442
  29.2004919   5.9197503  19.6711743  15.6211502  80.1980105  38.0691600
  16.5722830  80.2237046  37.9646611  15.4286415  80.9052396  38.6847901
  28.2201052  22.7456999  22.9864931  27.3090029  22.9055810  22.7404070
  28.1724620  22.4282169  23.8882494  15.6918848  20.5995560  48.5087156
  15.4596138  19.6718955  48.4671116  15.0474417  21.0331368  47.9493093
  20.6265974   4.7451416  31.2939167  20.2681899   4.2167842  32.0070887
  19.8603868   5.0165367  30.7884502  58.8060059  74.4473359  49.5647907
  58.0917681  75.0758174  49.6701813  59.0991138  74.2659101  50.4577684
  22.8942895  23.2183576   7.3127282  22.8683305  22.4718499   7.9112971
  23.4641194  22.9329872   6.5985245  48.3878279  15.6360781   4.9170306
  48.6831808  15.9263408   5.7800168  48.8885355  14.8378873   4.7484729
  15.4717827  35.6396651  11.3026750  15.1703608  35.6795216  12.2103024
  16.4182103  35.5132484  11.3699400  21.7038165  40.1883961  61.6662912
  22.5621669  40.6100122  61.6249923  21.4979558  40.1552438  62.6005046
  79.8236165  59.4726470  23.2305646  80.6899081  59.6988013  22.8920031
  79.5190964  60.2710679  23.6618686  22.9282260  41.0787964  24.2287922
  23.0156016  41.3315058  23.3096981  22.8352666  40.1263571  24.2075205
  41.0484552  13.0618763  29.2290187  40.8352423  13.9802384  29.3944931
  41.0097456  12.9748678  28.2765675  15.9503317   6.3354421   9.0905988
  16.7426324   6.6919649   8.6888754  16.2541568   5.9351707   9.9052799
   7.7932715  49.3645382  39.5374370   7.6733047  49.5012951  38.5976839
   7.5666499  48.4450102  39.6765161  28.3281929  51.3662484  34.2260289
  27.4114115  51.6102388  34.3533683  28.7420590  51.5405181  35.0713563
   8.5251236   7.7483827  46.3768148   9.4394541   7.6091802  46.1301279
   8.0274421   7.1980697  45.7720804  25.9681201   4.6598935  23.7043118
  26.4771795   4.4328618  22.9261446  26.5396690   5.2443218  24.2023158
  13.8453519  22.0455885  33.8051295  14.0594494  21.5422702  33.0195951
  13.0068231  21.6882610  34.0973926  25.0303204  82.0129203  39.7618890
  25.5361969  81.6928944  40.5088186  25.2562554  81.4178656  39.0469790
  80.5235658  42.0637897   5.4417664  79.6112905  41.8668559   5.6543767
  80.6943426  41.5705874   4.6393836  31.9695997   8.8470495  27.4005389
  31.2900305   8.4632361  26.8463659  31.6934252   8.6432135  28.2940769
  76.5859673  64.8350492  26.3248205  75.6934831  65.0516418  26.5946198
  77.1417711  65.2297977  26.9967508  30.3483677  33.1171012  28.5641003
  30.8318210  32.9744577  29.3778324  30.4447579  32.2962761  28.0812049
  29.8768592   9.5248556  21.2722635  29.5599198  10.0126719  22.0324063
  30.6269407   9.0295213  21.6012812  44.4884954  74.6283474   9.8361766
  44.6187423  74.8697612   8.9191234  45.0235186  75.2525183  10.3264749
  49.0701322  74.4354227  18.0247891  48.6191938  74.7619274  18.8034296
  49.7380755  73.8409862  18.3664441  56.6036558  23.7957692  16.7518425
  57.2081280  24.2817926  17.3127568  56.9207048  23.9556193  15.8629346
  16.4565051  22.8000140  34.9689007  17.2163010  22.2351432  35.1098442
  15.8052516  22.2284222  34.5622277  45.5378151  40.1037121  22.8453732
  46.2126064  40.6360149  22.4240184  45.3937531  40.5259800  23.6922288
  25.8570504  52.5931168   9.1953737  25.0473404  52.2796917   8.7924266
  25.6241798  53.4416056   9.5722914  10.0531173  15.8515751  12.2277653
  10.7012689  16.5298426  12.4177277  10.2258623  15.1673639  12.8744841
  87.0331014  39.3178391  13.6346257  87.3406015  39.5327401  12.7540040
  87.1057461  40.1391935  14.1207683  85.0046483  44.8125696   9.4103807
  85.5203888  45.4568624   9.8952830  84.5019475  44.3529797  10.0829136
  44.1390800  13.3490527  56.0266447  44.0927219  14.2814374  55.8151245
  43.8905764  12.9066801  55.2149868  44.6908283  45.3843117   3.3248755
  43.8132095  45.0763178   3.0987033  45.2115774  44.5852661   3.4059864
  33.1339264   6.4198577  32.0699143  33.1127572   6.8342376  32.9325104
  34.0437579   6.1439240  31.9590163  77.1430681  15.2121404  18.7919533
  76.8815301  15.9175923  19.3837011  77.2823820  14.4581559  19.3649590
  84.6782780   5.2262747  42.4799871  84.5854855   4.8804912  41.5922642
  83.7840557   5.2558798  42.8201818  33.3946490  31.8401670  42.9834986
  33.9808297  31.7864537  43.7383080  33.7124109  31.1642003  42.3848963
  18.9550686   9.5837176   1.7244497  18.0675662   9.3399239   1.9873863
  19.5142746   9.2395264   2.4209073  12.2336233  27.7860713  13.0818665
  11.9204223  26.8856001  12.9965043  11.5278780  28.3206367  12.7180028
  21.6576498  35.1554618  60.0596527  21.3330721  35.7378010  60.7465021
  22.3283731  34.6263639  60.4914145  21.4709377  24.5378280   1.6886221
  20.5405283  24.5650697   1.4654005  21.7353702  25.4570293   1.7256892
   4.6566302  71.9427422  14.8591876   5.3088529  72.6391259  14.7824705
   4.4717533  71.8899789  15.7968807  26.8513465  18.7073231  50.3083897
  26.1772609  18.0896938  50.5918980  26.4259791  19.5636129  50.3538036
  23.9439392  25.6374168   6.6232896  23.3687520  24.9062347   6.8485987
  24.6178055  25.6303310   7.3030579  49.9047613   8.1890553  15.5271482
  50.5631351   8.3704478  14.8564219  49.7304392   9.0405583  15.9281313
  17.3989260  13.6238182  27.8978062  17.1595728  14.3167448  28.5132694
  16.6964889  13.6278594  27.2475767  54.5628595  26.8712211  32.7093911
  53.7757683  27.3545504  32.4581695  54.2572355  26.2355328  33.3564854
  14.4920659  38.0006242  17.7424061  13.6964428  37.6180243  18.1123149
  14.8942292  37.2860599  17.2485483  11.1238158  33.3774567  20.3984451
  12.0217240  33.5658145  20.6714201  10.7859516  32.7905464  21.0749197
   0.2121026  37.7911237  23.8627076  -0.4148929  38.5010913  24.0007257
   0.7809574  37.8210357  24.6319532  62.2039525  49.6037165  71.0228529
  61.8112342  48.8204817  71.4082706  62.9613917  49.7897051  71.5777640
  57.0488739   2.6416785  47.8006887  57.8802633   2.8393745  47.3694849
  56.4333153   2.5013977  47.0812178  63.1393222  73.0756965  10.2751446
  63.9142982  72.6122001   9.9576312  62.4016781  72.5878599   9.9089104
  54.2026758  39.4021440   7.7093095  54.1386557  38.6210155   7.1597892
  53.5455513  40.0000906   7.3531049  54.6107452  47.6665131  52.2680609
  54.0903513  47.6777444  53.0713646  55.4266279  47.2323934  52.5172738
   5.7144666   5.6124341  47.1705389   6.3849336   5.9017873  47.7893925
   5.5461657   4.7007376  47.4086905   5.7629544  82.3574290  11.9017303
   6.4709122  81.8216047  12.2593880   5.3594143  82.7639956  12.6686013
   5.8167273   0.0200754  45.3765392   6.0003740   0.2894339  46.2765121
   6.6734946  -0.2063990  45.0147533  54.0306513  50.0138007  69.6036014
  53.2734148  50.5449961  69.3573142  53.6868947  49.3875579  70.2406917
  38.6562586   2.8414556  16.4143348  39.0232038   2.0925075  16.8840802
  38.6757994   2.5797766  15.4938054  37.6859188  34.5462060  14.0738988
  36.9663072  34.7453666  13.4749603  37.2548819  34.2800188  14.8860466
  23.3703089  48.1625891   9.0734863  22.8250122  47.5069141   8.6387712
  24.1679215  47.6904392   9.3124926  76.3856302  69.5978990   7.0324093
  76.7041705  69.0967706   7.7831656  76.4445601  68.9894059   6.2958664
  25.0506473  20.9390926  50.8933401  25.0550056  21.8834925  50.7373810
  24.2170691  20.6401777  50.5299854  10.4258502  41.9624233  14.7821438
  10.5914330  42.0664787  15.7191527  11.2385857  42.2445679  14.3625164
  44.2091179  41.3172770   3.5976237  43.3304977  41.0967541   3.9068547
  44.7365522  40.5457973   3.8046712   1.7207479   8.9582318   5.1758701
   1.2380700   9.7407234   4.9094871   1.9321585   8.5157973   4.3538058
  36.0455036   0.8426416  40.1615477  36.4614391   1.1537554  39.3575335
  36.5852809   0.1026668  40.4395962   5.8029754  67.5978663  34.3340492
   5.5646927  68.4625438  34.6683955   6.3308890  67.7789071  33.5563827
  83.8987170  81.1065666  43.0579233  84.7250901  81.2637632  42.6011610
  84.1270409  81.1464067  43.9866352  50.2439976  19.9659324  19.1756105
  50.8562231  20.6875134  19.3195999  50.3975296  19.6987879  18.2693577
  57.8423214   6.0000551   1.2769096  58.1460381   5.1825583   0.8823369
  57.8844833   5.8410341   2.2198659  46.0515911  48.1056240   4.6925816
  46.2013609  47.2240642   4.3510389  46.5677054  48.6746147   4.1215256
  73.8409472   9.6081877  25.9106183  73.3572197   9.9316347  25.1506042
  73.3586645   9.9486113  26.6641092  26.9353795  26.5082502   2.3471622
  26.0999036  26.3452077   2.7849168  26.9330788  25.9131789   1.5974173
  24.3981709  37.4835701  30.0640241  25.0256790  36.7607660  30.0671284
  24.3415226  37.7555085  30.9800331  10.8305294  79.9826491  15.6297815
  10.2413780  79.6876660  16.3241267  10.4454405  80.8028833  15.3213143
  21.4303953  52.8184107  31.5883613  22.2304804  52.2929671  31.5889263
  21.7289192  53.7094882  31.7702866  19.9833788  51.8658702  64.3696062
  19.2294420  52.1361796  64.8937665  20.6974138  51.7835001  65.0017456
  51.4030907  79.7676971   3.2204804  51.3609318  79.4584778   4.1253769
  51.9874696  79.1486761   2.7828205  58.8900702  57.4321822  54.2906372
  58.0082576  57.5426177  53.9350502  58.8361304  57.7851276  55.1787536
  73.2951436  81.4542235  24.5091653  73.7048290  81.6194372  23.6599922
  73.3399961  82.2950578  24.9643779  69.9444294  34.1616106  22.7317572
  69.4400835  34.2770028  21.9264340  69.4940233  33.4570622  23.1975627
  24.0912055  55.7151202  67.0453180  24.9274962  55.2879195  66.8599812
  23.6044722  55.0741510  67.5634698  69.0675752  44.4997014  56.7399220
  69.2864149  43.8088907  57.3653201  69.8699086  45.0159914  56.6628770
  83.5414069  73.2868866  63.9460347  82.6300042  73.5060124  64.1398428
  83.9443247  74.1231279  63.7123941  22.3903465  43.3122015   8.1322682
  21.9414878  42.6519251   8.6602753  22.4488902  44.0772533   8.7045437
  76.4109223  43.4882536  42.5068728  76.8526928  43.1762707  43.2966415
  77.0518391  44.0596158  42.0837824  31.5565085  10.8673143  32.8286982
  30.8031726  10.5394292  32.3375702  31.3232756  11.7685068  33.0516052
  57.3463413  41.2674239  16.8127930  56.4840097  41.1256078  17.2033107
  57.2626116  42.0965961  16.3419521  16.5896356  10.3304803  19.8445082
  17.2306621  10.4374313  20.5472732  16.4299023  11.2198305  19.5286369
  25.7825436  38.2343103  69.4928632  24.8720326  37.9790504  69.3443398
  25.7334675  38.9198516  70.1590889  60.2504635  16.9687235  58.9017773
  59.9540806  16.3597429  58.2253695  60.2361155  17.8256464  58.4755039
  51.7931335  47.7442072  42.8808610  51.8862193  46.9190947  43.3570496
  50.9079139  47.7128081  42.5180499  84.3804556  34.3825126  28.2750559
  83.8516876  34.4019508  27.4773979  84.0316323  33.6450362  28.7757373
  67.9672813  34.5574379  20.9570003  67.1667147  34.4040442  21.4587975
  67.6886702  35.1050639  20.2230310   7.2397930   3.0937005  59.1457264
   8.0226833   3.6356593  59.0477614   6.5197141   3.6611320  58.8705103
  19.8104084  40.1657963  35.6440616  19.2234039  39.9244070  34.9275517
  20.5788159  39.6081448  35.5223823  34.3861365   8.3374101  38.8003564
  34.7613645   7.7997339  38.1029749  35.1217341   8.8574046  39.1239810
  10.9301884  28.5070134  55.5479078  10.6721861  28.8990165  56.3821737
  10.8022196  29.2050315  54.9055449  30.5232167   6.1794889  23.3465648
  30.2297401   7.0054972  23.7310290  31.4490056   6.1209899  23.5826254
   4.9927923  47.0653725  35.2393579   5.0044042  47.9113483  34.7916675
   5.9133494  46.8076897  35.2883983  73.9791308  61.8866661   5.4485637
  74.3045078  61.6245797   4.5873597  74.0726195  62.8392175   5.4602098
  10.4751241  13.5124838   6.8977994  10.8957803  14.3115664   7.2152054
  10.8009517  13.4091997   6.0037076  12.2239983  31.0135055  38.5148406
  11.8027103  30.3135490  38.0160308  12.4009132  30.6242609  39.3712425
  12.7589059  30.2442932  25.9728074  12.5272584  30.9143996  25.3297472
  12.0579350  30.2841949  26.6234088  76.3563416  33.7009860  61.4502446
  77.1815274  34.1463424  61.6424922  75.8827064  33.7047244  62.2820423
  26.9447994  13.0680573  71.4815474  27.0430064  12.1165884  71.5175390
  26.1499190  13.2074940  70.9668064  38.6809444  18.4484589  14.1028786
  38.5936952  17.6345003  13.6068022  38.8192081  18.1645787  15.0064969
   9.9399877  45.0197554  34.2699981  10.7724535  45.3133154  34.6402097
  10.1223946  44.1409111  33.9374423  28.8557172  39.4162774   2.0243141
  28.7051988  39.0387368   2.8909397  28.0964565  39.9792218   1.8731436
  24.0053225  31.1169934  30.5361843  24.4410396  31.1783552  31.3862514
  23.3712840  30.4078460  30.6426644  69.7066967  49.9284009  66.8742995
  70.0423090  49.2715148  67.4842973  70.4865258  50.3910581  66.5676300
  36.7712545  17.7241898  28.0537820  36.8826079  17.0374322  28.7111974
  37.6505375  18.0813825  27.9292536  48.5706425  21.8774486   2.0178910
  47.9972982  21.2319088   1.6046298  48.9882278  21.4019585   2.7360576
  22.2880840  19.0091336  42.4853992  22.8771305  19.7591114  42.5677967
  22.8388500  18.3094418  42.1342325  54.1261148   6.9561672  24.9954343
  54.3345881   7.8897697  25.0294518  54.3556023   6.6276824  25.8647227
  72.8365898  13.1298077  10.7451594  73.2085180  13.9967620  10.9073019
  71.9111490  13.2959425  10.5657256  46.9124842  19.4390082  15.8248520
  46.1036110  18.9836514  15.5911708  46.6193676  20.2532268  16.2339473
  16.2162971   9.2454249   2.7209824  15.3959930   9.1647047   2.2343430
  15.9633219   9.1326183   3.6372304  42.4202585  50.8788586  30.7537603
  42.2732735  50.4753113  29.8983216  43.0886889  50.3310871  31.1653209
  20.9314074  42.6542364  68.7681101  21.8304600  42.9557791  68.6376805
  20.9819330  42.0708028  69.5252655   5.7762034  36.7205192  41.3070099
   6.5000565  36.1644603  41.0188000   5.8527667  37.5101091  40.7713644
  20.3875954  77.6791140  19.0283358  19.4313795  77.6445076  19.0544677
  20.5853254  78.5001799  18.5777962  59.9663496  35.4072356   3.5829973
  59.0464926  35.5991650   3.4006089  60.2512550  36.1207485   4.1539252
  40.6827927   1.1939113  31.8337154  40.4462957   1.7249516  31.0732555
  41.6389370   1.2287438  31.8621635  64.8860216   2.4135004  25.0862193
  65.2394867   1.7588568  24.4839430  65.5837011   3.0634847  25.1698351
  31.0215408  82.0849349  29.0913796  31.0149319  81.3628381  28.4630752
  31.9488937  82.2321337  29.2773390  86.2275446  19.1724777  11.9058478
  85.7969409  18.8482487  12.6968527  85.7465299  18.7633836  11.1864746
  77.6860230  30.7082621  59.1579918  76.9371932  31.2415997  59.4245247
  77.9196732  31.0397569  58.2909576  57.4791710  73.4608821  67.7072991
  58.3697407  73.3286480  67.3822854  57.0190184  73.8812260  66.9807999
  49.4022560  68.5905504  37.8828406  48.5990620  69.0982199  37.7671266
  49.3985605  67.9674816  37.1562028  64.3379514  52.7753882  70.3695446
  64.7669499  52.2061304  69.7306879  63.7707703  52.1889095  70.8701236
  75.2347844  82.5138048  60.8489458  75.0611727  81.6071467  61.1020510
  74.8316996  82.6027588  59.9853234  38.9961696  43.0300760  26.5148020
  38.7346268  42.1213770  26.6634369  39.4995928  43.0043745  25.7010841
  54.1408348  66.1755562  15.3192890  53.2245731  66.1028051  15.0520802
  54.5817089  65.4606867  14.8601425  88.0372334  50.9668159  17.7284503
  88.3697033  51.3711548  16.9270730  87.1050167  51.1838675  17.7372968
   0.3110504   4.0619141  14.5159733   1.0490288   3.6522204  14.9673831
   0.6587221   4.3011394  13.6568308  18.3602643  42.6559782  18.9108217
  19.1649485  43.1118202  18.6639977  17.8084648  43.3361816  19.2969286
  72.2203813  78.5366896  28.4399724  72.2082982  77.6236704  28.1527758
  72.8240249  78.9696780  27.8363419  24.5935678   7.9148871  51.4533043
  24.5256996   8.7815362  51.0526228  25.3497505   7.5121921  51.0263872
  21.6243291  29.7809720  31.8053436  20.7664061  29.6246552  32.2000146
  22.1257257  30.2240133  32.4898481  62.6764154  43.7928581   3.4248456
  63.5498953  43.5340881   3.1310785  62.5802708  43.3799982   4.2830610
   9.2879278  74.5635554  15.5410337   9.9429304  74.2113122  14.9384344
   8.4523708  74.4219837  15.0960219  72.6315784  68.2566786  20.8312106
  72.0979309  68.7572908  20.2140903  73.2009363  67.7226973  20.2771997
   0.7532372  26.7055635  57.1316115   1.4028420  26.0242502  56.9582431
   1.1092867  27.1924083  57.8748767  49.7843187  70.5371193  68.5489686
  49.3780773  71.0195903  67.8289531  50.7248800  70.6535105  68.4146948
  37.7517343  26.5140224  31.3576341  38.0488896  25.7227969  30.9083080
  37.5502777  26.2230539  32.2470069  29.4790108  66.5605012   9.3155301
  28.8199980  67.2528651   9.2649025  30.1358206  66.8069282   8.6642969
  48.9718962   3.3280092  29.1671348  48.1507397   3.2810622  29.6567512
  49.4453573   2.5344700  29.4168639  21.0309148  16.0239124  28.8887382
  20.9220600  16.6016901  28.1333852  20.6630635  15.1869786  28.6050820
  55.8395685  48.4437349   2.3064893  55.1255796  47.9213431   1.9410324
  55.5082587  49.3417242   2.2974864  70.1013926  29.2630124  29.6218348
  70.8692566  29.4755912  30.1523328  70.4622558  28.9039755  28.8112164
  48.2381868  26.4205074  14.5714557  48.6871815  25.7713008  14.0300107
  47.5616312  26.7828274  13.9994133  37.7179742  24.7631764  33.4203029
  37.6051545  24.2703128  34.2330694  38.6599874  24.7362137  33.2526374
  46.1085272  17.1641052  40.0688076  46.7900848  16.5133464  39.9008107
  45.8664513  17.4869502  39.2008233  37.6742435  37.5431466  14.8834503
  38.5854006  37.2527480  14.8422825  37.2711945  37.1797895  14.0949368
  59.8833513  33.8490200  21.9674397  59.8170424  34.7353649  22.3227286
  59.8692703  33.9698863  21.0180068   9.8234886  15.0276327  37.7010345
  10.5937099  14.9392033  37.1396327   9.1550994  14.4892490  37.2772074
  67.1581745  24.5144343  20.8128738  67.3193312  24.3364334  21.7394662
  67.0108747  25.4593754  20.7725930  51.4459817  81.6936402  58.6354296
  51.1901872  82.1658234  59.4277946  51.5766780  82.3788456  57.9799573
  10.0022197  27.3220634   4.1959754   9.1570282  27.6748919   4.4741708
  10.5741644  28.0874634   4.1387689  20.5834937  38.8509583  24.1610122
  21.3625765  38.7841606  23.6089277  19.8792613  38.4834385  23.6269546
  67.4681380  44.0972233   1.5827125  68.2319084  43.9032888   2.1261063
  66.8120745  43.4550858   1.8537702  58.2215691  26.5616322   8.8484287
  57.7131128  26.4498115   8.0451870  59.1271782  26.6429543   8.5492706
  36.4505363   9.8546255  40.0348139  36.7428184  10.4721987  40.7051897
  35.8714414  10.3684771  39.4719315  50.2487898   4.9937722  27.5616932
  49.6549988   4.4848034  28.1135941  50.7244396   5.5541617  28.1748414
  26.6307855  12.1242297   7.8032511  27.0033884  11.4680481   7.2143322
  25.8280921  11.7210364   8.1339306  59.3505812  44.1930866   9.4753641
  58.7206221  44.9135876   9.4592166  60.1962137  44.6105862   9.3115431
  13.1901038  34.4852591  17.8372502  12.7735078  33.6490464  17.6288486
  12.4738896  35.1201034  17.8217340  42.0714188  18.3860731  15.5926681
  42.4136639  17.9522026  14.8110950  41.1336088  18.1947088  15.5815732
  65.6278372  32.0432758  24.7674203  66.1710978  32.4138379  25.4629636
  65.9038258  31.1285520  24.7095752  16.2317002  53.4706736  12.0736742
  16.9763541  53.7446451  11.5382671  16.5674245  52.7422237  12.5960553
  18.2306981  14.0160584  35.8922195  18.1145346  14.9505877  36.0636663
  18.6813986  13.6842942  36.6687727  60.4784012  11.0370994  19.5137525
  61.2084341  11.5800011  19.2161942  60.5182648  11.0847330  20.4689336
  54.0412443  56.4151553  57.0101742  54.7785013  56.0475497  57.4975638
  53.8612287  57.2502569  57.4419538  10.2514362   4.6328890  23.6077976
   9.8916495   5.3807664  23.1308651   9.6553874   3.9113995  23.4067750
  39.5521188  36.1287141  10.0259542  38.9981699  36.1794996   9.2469841
  39.5147967  35.2085018  10.2868128  16.6669335  37.4393586  62.2278206
  15.8105578  37.7612893  61.9463770  16.5124001  36.5256063  62.4674205
  67.9409027   2.6035050   6.2220412  67.4090242   1.9535962   6.6813368
  67.3037243   3.1997800   5.8287388  50.3753519   2.6193881  17.2551048
  49.4883156   2.3184258  17.0580733  50.5147552   2.3718673  18.1691802
  21.3233311  76.9740477  21.8438959  21.3489992  77.7335873  22.4258518
  21.1090119  77.3376915  20.9847927  18.3568442  15.7839572   2.5612816
  18.6050677  15.5899811   3.4651566  19.1184223  16.2334406   2.1949551
  61.7884541   9.2592931   5.4167825  62.4076176   9.3259329   4.6898523
  62.3383236   9.2567712   6.2002826  69.5316076  16.7107427  14.0909266
  68.9333725  17.0189703  14.7716212  69.0548658  16.0044181  13.6549711
   4.5348239  22.3551106  43.5126734   4.6024403  22.3247504  42.5583506
   4.9664792  21.5537953  43.8089848  17.8183920  70.7022729  21.4779735
  17.4696142  71.3047603  22.1349335  18.7599737  70.8743325  21.4710951
  41.3453102  31.5586805   6.4892006  42.1196842  31.4305758   5.9413242
  41.2060452  30.7099271   6.9092685  85.6755583  42.6407454  66.6590522
  85.8281605  42.3521407  65.7592456  85.7594578  43.5935591  66.6224639
  39.2546034  51.9910717  28.8956451  39.3586445  51.0448217  28.9957452
  38.7668276  52.0932722  28.0784178  20.0974106  77.0920903  65.6029169
  19.4824576  77.5039394  66.2099145  19.9737489  77.5643117  64.7795395
   2.4641432  73.8176040  46.7521469   2.3941292  74.7263197  47.0446674
   1.6609158  73.4023408  47.0661799  72.6462112  51.8378571  39.9842930
  72.6328717  52.7190307  39.6106839  71.8786702  51.8082312  40.5554628
  36.2086821  42.2338247  19.4156826  37.1580052  42.3306370  19.3405700
  36.0117030  41.4274549  18.9390326  87.5793784  36.8422414  54.8353295
  87.0456784  36.2213425  54.3394653  87.4305813  36.6078089  55.7513718
  36.9294047  16.0004032  30.3324556  36.7143488  15.7151568  31.2204981
  37.6192832  15.4005885  30.0486946  34.6998072   3.1824821  40.4111004
  35.1702857   2.3571172  40.5279636  34.7566867   3.6134189  41.2639141
   3.7775547  18.5660363  56.9705645   4.3284948  19.1763736  57.4606566
   2.9782683  18.4930850  57.4921481  48.0644972  55.2065471  24.1275954
  48.3839447  54.5470145  23.5118032  47.6999123  55.8958653  23.5724831
  34.0768099  44.0229893   9.6234655  34.9656320  44.0561962   9.9771994
  34.0640044  44.6973038   8.9442265  39.7985315  61.2404490  32.1820307
  39.3753624  60.3887510  32.0735192  40.4492331  61.2756538  31.4809036
  71.1093943  48.0688111  68.5885198  70.9927933  47.9451100  69.5305042
  71.5014260  47.2496192  68.2860882  10.7769454  10.4716599  62.6242399
  10.2936029  11.2761819  62.4362087  11.2074959  10.6412017  63.4621620
  11.7656054  28.5862962  67.9335932  11.0490240  29.2068831  68.0663161
  12.2328772  28.5777644  68.7689481  32.1173239  37.4480820  19.0757310
  32.2978115  38.2927513  19.4882727  32.9104042  37.2505379  18.5775006
  29.1383243  25.1285625  29.1515493  28.2058597  25.1855707  29.3600917
  29.5534992  24.8784590  29.9769640  53.6915731  11.6270804   2.6696938
  53.8995647  12.5598454   2.6156524  54.5218801  11.2094080   2.8985450
  12.9844153  13.8392663  21.9039822  13.5976601  14.2098463  21.2692904
  13.5118139  13.2274330  22.4175406   4.7996038   7.7949435  18.3958852
   4.9644053   6.8936390  18.1188977   3.8581723   7.8247929  18.5663199
  36.3693936  65.0391069  26.9457030  37.2823364  65.3066507  27.0514441
  36.0355789  65.5984691  26.2443352  72.2727101  51.1869369  66.6016297
  73.1495230  50.8972941  66.3495586  72.4227660  51.9634084  67.1408946
  11.1577427  16.6638315  25.2087355  10.6585491  17.4266267  25.5005980
  10.8997524  15.9646213  25.8093834  57.7099752  17.5351202  29.6786451
  57.2461128  16.7401171  29.9413800  57.2462082  18.2422864  30.1270509
  68.9657800  73.0664829  63.7836073  68.4947650  73.2977084  64.5841758
  68.9610546  73.8694171  63.2625447   6.4801461   8.9718820  71.0977081
   6.8945629   8.3522655  71.6981791   5.5410916   8.8443996  71.2324479
  39.3789315  42.2755432   5.8807683  40.2776289  42.0775366   5.6174004
  39.3192720  43.2295561   5.8304316  29.9116778  37.3060107  16.0569704
  30.2833295  37.9467773  16.6632080  30.4059815  37.4283504  15.2464604
   8.1703764  58.6180210  29.6323872   7.9786438  58.3007526  30.5148911
   8.2271069  59.5688677  29.7267675  85.2481502  26.1655903  17.5041771
  84.6988541  26.4937043  18.2161093  86.0688844  25.9175229  17.9297233
  44.5369959   8.9113241  35.5076146  45.0810385   8.1874931  35.8179712
  45.1570606   9.5256448  35.1147246  22.4423313  50.3199911   4.1341802
  22.6411033  51.1847973   3.7752500  23.0341077  50.2288246   4.8809862
  17.3627741  80.4816478  14.2840469  17.6310761  81.3975766  14.3569970
  18.0104096  80.0006038  14.7992170  73.9890807  62.4149565  66.5616516
  74.0117304  61.5478794  66.9664935  73.2045262  62.8275279  66.9228790
  36.0535526  41.2844038  27.0126772  35.1275802  41.2643051  26.7710114
  36.3703775  42.1232128  26.6776299  39.7437906  22.8861356  29.7949028
  39.1217279  22.2568083  30.1598954  40.1139307  22.4420881  29.0319800
  30.7069349  29.0695357  32.5707984  31.0287094  28.2351899  32.9122019
  30.8257008  29.6858382  33.2934999  68.3293581  29.5596385  25.6497765
  68.1339645  29.2359114  26.5291238  68.4739637  30.4985809  25.7668567
  73.4389203  76.8290333  71.4148419  73.0559628  77.4630527  72.0211392
  73.8398783  77.3643998  70.7301218  63.3831739  47.9113579  14.0736997
  63.7729692  47.4423122  14.8114586  64.0649652  47.9099751  13.4018445
  54.5799667  80.9817018  28.9256573  54.2452938  80.8659381  29.8149395
  55.5098087  80.7636322  28.9894056  53.7215710  24.3654013   1.4185229
  53.1276178  23.9149451   0.8180705  53.6773634  25.2844381   1.1546083
  22.0276046  31.2961793   5.0194329  21.7895389  31.6522574   4.1634160
  21.5406346  30.4744005   5.0808495  62.3459721  16.2120676  28.5795951
  61.5205765  16.6917777  28.5101247  62.0983553  15.2931917  28.4767151
  48.6098242   5.6333590   6.7201215  48.5615253   6.4946973   6.3053977
  49.5294094   5.3800899   6.6398215   8.9924731  69.1685251  68.5910554
   9.2092766  68.4202985  68.0348296   9.6302666  69.8398856  68.3487166
  61.8817616  40.6076479   3.3876684  61.0324907  40.5401087   2.9513031
  61.8033028  40.0391388   4.1537470  76.4256256  66.8928789   2.0833786
  77.0704191  66.7883872   1.3836964  75.6085222  66.5660929   1.7068394
  64.3642426   6.1061907  41.6361475  64.7990084   6.9356775  41.4382505
  64.0249109   5.8064502  40.7927990  20.3747630  32.8515029  31.6069174
  20.4447913  32.2871852  32.3769021  19.5806098  32.5537610  31.1631823
  47.3457050  34.3065166  13.6026800  47.7068710  34.5118785  12.7403462
  47.4803162  35.1039076  14.1148126  80.1956163  80.4049262  10.2093530
  80.6708179  80.7133222  10.9809148  80.0591884  79.4711286  10.3694808
  27.9336691  11.6214061   0.8564566  28.8480377  11.7554867   0.6070890
  27.5731874  11.0733712   0.1593598  29.0749264  67.1540165  13.7615263
  29.5567703  66.5178061  14.2900109  29.7395086  67.5486803  13.1968975
  72.7686636  64.6275095  52.8952102  72.6593964  65.5599646  53.0818097
  71.9411938  64.2303232  53.1668178  27.8956366  17.5108063  24.7619462
  28.6050558  18.0795574  25.0610757  27.9092908  17.5922358  23.8083148
  15.7188809  23.9238453  20.9044099  16.3203037  23.8029647  21.6391945
  15.2023602  24.6939468  21.1418629  53.6847639  41.6145849  18.7616432
  53.1136847  41.0092640  19.2346013  53.8409996  41.1877394  17.9192507
  79.9194758  65.8276514  62.0383016  79.1553824  66.3189797  62.3399554
  80.6620400  66.4030389  62.2220353  50.2317190  43.6204767   4.2178228
  49.5863438  43.1508827   4.7462165  50.2745724  44.4921589   4.6109715
  28.2466473  70.9292607  33.6989657  28.6607708  70.1308851  34.0265767
  27.5495590  71.1132101  34.3286220  47.6449966  27.5368476  18.9026153
  46.7757797  27.7732754  19.2263412  47.9414129  28.3113885  18.4246433
  44.1441946  66.8500022  64.8910562  44.2815142  67.1051554  65.8033459
  43.6387520  66.0387735  64.9427227  60.0910568  14.2290962   1.6386162
  59.2160082  14.6151972   1.6005863  60.6342459  14.8143852   1.1107741
  72.8513329  70.7536916  69.2909209  73.6536257  70.7486657  68.7688751
  72.5329964  69.8519282  69.2495359  60.5657053  36.5670681  21.5370321
  60.6528425  37.0357227  20.7069707  59.6566153  36.7117119  21.7994618
  78.7122250  45.3731298   3.0237058  78.7349033  45.5932522   2.0924361
  77.7852297  45.2279139   3.2129881  42.3491812  37.4901414  17.5544918
  42.5866842  37.1662354  18.4233463  42.3467159  36.7096639  17.0003414
  55.5333042  51.0362005   5.4281521  55.4360819  50.9807062   4.4775206
  56.3581562  50.5863905   5.6112224  44.7506523  56.0487080  20.8137345
  43.8972235  56.2993145  21.1674047  44.7850847  56.4659405  19.9529409
  30.0108933  13.6919785  20.5358028  29.1300869  13.5810196  20.1778889
  29.8741579  13.8124859  21.4754891  30.5282307  58.4278727   2.2306597
  29.7741461  57.9448175   1.8926591  30.1793671  59.2908001   2.4540161
  28.0465855  45.7652326  68.5556872  28.5866513  45.3794609  67.8659443
  27.8782048  45.0425960  69.1603975  82.4031966  14.8804216  60.5973904
  82.1213238  15.4205422  59.8591189  82.5175183  15.5002741  61.3177685
  55.9789324   8.9675760  11.5036976  55.3572989   9.3489790  10.8837461
  56.1706161   9.6766096  12.1175063  55.7984440  72.1513085  57.6421456
  56.4447038  72.4536614  57.0040528  55.4788368  72.9523782  58.0573205
   1.1530039  19.9106991  13.2220984   1.3747236  19.5404112  12.3677206
   1.7305967  19.4578815  13.8365722  69.7033332  71.1402169  29.0318942
  69.2413698  70.3202572  29.2065024  70.1993583  70.9698453  28.2311678
  52.1703100  16.7279935  24.2408538  52.2902966  17.6746941  24.3156385
  51.3756800  16.6279471  23.7166524  11.5357508  76.4180450  71.7706561
  11.1187710  77.2174386  71.4492099  12.4249520  76.6875724  72.0006843
  86.4284801  35.0732422   5.7219708  85.5727005  35.2401710   5.3269869
  86.8621731  35.9265518   5.7233816  57.7582026  12.0589149   5.1980251
  58.7135839  12.0800543   5.1429635  57.4711275  12.8006804   4.6654791
  48.6921692   9.7207922  21.0253477  48.0074596   9.6987629  21.6938663
  49.3580627   9.1116494  21.3443589  23.7225080  20.5150390  16.7238009
  24.0144873  19.6045828  16.6785204  22.7845550  20.4570007  16.9057584
  13.5786188  21.5722156  17.8217924  13.0570245  22.0511723  18.4658206
  14.3589306  21.2965536  18.3027875  21.8505825  33.2815967  64.9459468
  21.9782128  32.3380611  65.0443564  22.4741329  33.6727403  65.5578486
  56.2380569  75.1771096  65.8469049  55.3636949  74.9019579  65.5711965
  56.1294143  75.4396610  66.7609594  58.9666271  62.5951767  24.8360324
  58.6696148  62.4003601  25.7248878  58.1881618  62.9308033  24.3915391
  19.7079212  14.3747188  68.4641973  19.6229441  14.5528508  67.5275655
  19.9899895  15.2078248  68.8418241  63.8147705  67.5356678  53.9934079
  63.1169789  66.8808512  53.9702670  63.4039681  68.3099512  54.3780593
  63.1517172  40.8611250  15.4123175  62.5892353  40.1951408  15.8076882
  63.1118631  40.6813860  14.4729900  39.6605086  49.6160936  26.8624401
  39.4036150  50.4895163  26.5668583  38.8616252  49.2456055  27.2376108
  28.6048126  14.9955893  27.9433966  28.0126691  15.7339585  28.0862474
  28.2881856  14.5870352  27.1377516  29.1292572   8.3672345  27.4249291
  28.4727216   8.0633521  28.0517054  29.4392014   9.1975981  27.7864003
  39.6406126   0.6963814  17.8522611  40.5007124   0.3089568  17.6898992
  39.7523308   1.1976315  18.6600351  11.7612774  17.5506355  46.8150346
  12.5068648  17.3233367  46.2594549  11.7007382  16.8294431  47.4414937
  53.4128046  48.9263630   6.0596901  54.1256714  49.1865635   5.4762965
  53.6834335  49.2392063   6.9228923  86.5676880  27.9432988  43.1346130
  85.6346321  28.1401706  43.2175112  86.5954018  27.1019840  42.6789236
  46.8782377  15.6673074  24.3187046  46.6290617  15.1926303  25.1116896
  46.4517117  15.1877761  23.6085224  28.7394357  19.0098929  18.8825119
  29.6568322  18.7657797  19.0050805  28.7736893  19.8334146  18.3958197
  51.2567234  50.0560665  25.5570197  51.1561918  50.9473801  25.2228284
  51.9868279  50.1123333  26.1734700  47.4215603   3.2530221  35.4294157
  47.7715015   2.4435040  35.8015108  47.5290108   3.1481466  34.4840670
  63.4180896  63.5744433  64.1700957  62.4792545  63.7580518  64.1368149
  63.7867491  64.3017248  64.6714757  67.7639294  35.8625484  18.6001611
  68.4666777  36.0876203  17.9904747  67.2963810  36.6857982  18.7411916
  59.4633198  10.9777164   8.6169183  58.5091400  10.9275901   8.5598397
  59.7296762  11.4069796   7.8038859  34.0088606  47.1228218  20.9295964
  33.6005569  47.3785448  21.7567158  33.6978889  47.7716637  20.2983046
  73.2013743  54.4357208  33.1939546  73.2574789  53.4803645  33.1745045
  74.1050093  54.7262482  33.3175175  41.0068941  56.7626905  23.9228249
  40.6071568  57.4879169  24.4029164  40.4705191  56.0023308  24.1472864
  19.8709583  42.4894238  22.3872042  19.7017252  41.5915918  22.1017408
  19.0039289  42.8916407  22.4392819  40.1739025  20.6491184  13.7209797
  40.2114105  20.7513571  12.7699947  39.7104025  19.8223984  13.8548958
  72.7117491  20.6092548  14.5375443  73.6462641  20.4047608  14.5706975
  72.6647997  21.4387298  14.0621507  37.6078606  12.7443242  34.5044160
  36.7189407  12.4079037  34.6178842  37.9443431  12.8373122  35.3956866
  45.6005621  74.5248985   6.5584725  45.4824591  75.0476694   5.7653832
  45.9564877  75.1398325   7.1998817  51.5653658  22.2788906  19.8708510
  52.3397684  22.8233624  19.7291327  50.8272696  22.8588676  19.6835625
  80.9507887  60.2408854  55.9610562  80.3824894  59.8280362  55.3108100
  80.4191821  60.2754263  56.7563133  43.6397696  60.1747131   0.5233451
  43.0074215  60.0060463  -0.1751668  44.3970823  60.5512142   0.0750662
  28.0128881  70.0393820  17.0704043  27.9272291  69.5674944  17.8987873
  28.7283251  70.6575108  17.2197413  38.3524990  31.6579747  17.6394475
  38.7374592  30.7888317  17.7518308  37.9650617  31.6370058  16.7644143
  67.2784281   4.9333972  11.8074191  68.1271219   4.7198761  11.4196539
  66.7361689   4.1635135  11.6357601  53.2431269  12.1446085  34.7893071
  52.5412512  11.5398145  35.0297809  53.1746674  12.8562188  35.4258251
  46.7608309  29.0612221  15.3054547  46.9273090  29.8591280  14.8035955
  47.3457479  28.4091473  14.9195731  63.2298994  40.3413248  12.6149273
  63.8521194  41.0633755  12.7027476  63.7135410  39.6646571  12.1411777
  33.6326718  26.9444299   4.4475004  34.4008589  27.5154972   4.4492930
  32.9189062  27.5021410   4.7568989  66.4593642  79.0376000  69.9993232
  66.6748230  78.4062461  69.3128831  66.3866489  79.8745994  69.5406526
  85.0436013  49.1695480  68.2204492  85.5679791  49.0396766  67.4302639
  84.6137946  48.3263932  68.3639370  25.0254560  32.7093649  25.3936601
  24.5561409  32.8290558  26.2192822  25.4290318  33.5601926  25.2220416
  61.4656258  66.2974787  22.9283643  60.6454086  66.4154959  23.4074783
  61.1949348  66.0003948  22.0596290   9.9002845  79.3870014  23.9486217
  10.2373893  79.2141709  24.8276687  10.5701668  79.0359387  23.3618999
  53.6689942  79.8515062  60.3069882  53.4424632  80.6827668  59.8899536
  52.8295677  79.4077782  60.4282371  60.2768898  26.0330939  26.0784411
  59.5114660  26.0780334  25.5054331  60.6454372  25.1643610  25.9181070
  24.9581885   9.2603838  39.1865540  24.2387724   8.9878196  38.6170101
  24.5300722   9.5423895  39.9949002  84.7102015  70.8026556  62.6658259
  84.4167178  71.7134313  62.6416354  85.6402199  70.8447103  62.4432896
  63.9242444  81.1934274  26.4775085  62.9712591  81.2592037  26.4164758
  64.2394970  81.4801690  25.6204033  64.4692278  30.8067417   6.6291088
  64.4992352  30.6342626   5.6880546  63.6269665  31.2402987   6.7664099
  39.9254203  23.7140083  10.0777793  39.0299916  23.9445972   9.8302513
  40.3546095  23.4977794   9.2499661  76.8549267  44.5813370   5.9166175
  76.3308671  45.1655483   6.4646047  76.6375414  44.8352385   5.0196719
  73.7141943  19.0967798  11.9524825  72.8523684  18.7421560  12.1709406
  74.2762899  18.8239443  12.6776314  34.2438316  10.0052524  32.4098277
  33.3229065  10.2508998  32.4980736  34.5749831   9.9908572  33.3078051
  53.3434963  17.7158666  12.3849297  53.6378479  16.8053102  12.3630881
  53.6042547  18.0311835  13.2502699  35.9696531  45.3670168  11.4446688
  35.2513313  45.4633999  12.0699334  36.7468095  45.6484127  11.9274485
  77.6104777  82.8971533  39.4638888  78.4710019  82.5241045  39.6551053
  77.1781771  82.9513745  40.3161828   1.7006602  56.2522153  69.7080742
   1.4915098  55.7031945  68.9523862   1.4920439  57.1418099  69.4228871
  56.1913633  29.4786978  16.4258790  56.1755228  30.3974271  16.6940486
  55.3011274  29.1665125  16.5879047  40.6619692  34.5452404  32.0048618
  41.0541916  34.9916244  32.7552843  39.8989797  34.0942740  32.3663974
  26.7175126   3.6412010   1.8657702  26.4267135   4.4661942   2.2544265
  25.9097075   3.2097217   1.5873678  20.0380022  57.5592306  12.0624602
  19.3051321  57.1956351  11.5655375  20.8015425  57.4145177  11.5036273
  80.7305431  33.5434413  25.1574612  79.7937870  33.7279534  25.2258086
  80.9698105  33.1971955  26.0171700  74.5169687  21.0932159   4.8800126
  74.4915295  21.8776774   5.4279226  73.6148882  20.9811687   4.5801267
  60.0379944  50.6281710   5.6287658  60.6187439  49.8856974   5.7951826
  60.4439068  51.0900164   4.8951653  78.5033219  82.7371506  64.1650884
  78.8480513  82.7237849  63.2722191  78.5621254  83.6548428  64.4308255
  52.3818428   1.1236716  59.2029087  53.1217034   0.9247686  58.6290900
  51.9958908   0.2703334  59.4006137   8.1464543  79.5930819  54.3944017
   8.0296911  79.6841745  53.4487275   7.9133000  80.4513554  54.7482948
  41.3134575  32.9259825  21.8175888  40.6448126  33.0879688  22.4831033
  40.8231688  32.8500152  20.9990048  23.7930632   1.9812925  43.2744551
  24.4551253   2.0996556  42.5933552  23.4932971   1.0791153  43.1628847
  36.9629955  21.6416740  33.3644676  37.4261713  21.9420004  34.1464543
  36.8514013  20.7005453  33.4988379  35.7147670  36.8555593   0.3791866
  36.2596107  36.7829156  -0.4044592  35.8423352  37.7562785   0.6769440
   7.6682200  43.3450572  59.6320073   8.2453026  43.0781065  60.3475086
   8.2589306  43.5127677  58.8977270  19.3876040  31.5161490   9.8266530
  18.7370193  30.8729649   9.5450735  19.9949932  31.5808558   9.0896845
  71.7175245  20.8470225  25.7403970  71.4526987  19.9494660  25.9416223
  71.8201876  21.2639523  26.5958858  53.8188457  14.2890716   9.0463310
  54.5514631  14.5754898   8.5009223  54.1419363  14.3708920   9.9436331
  27.1073801  12.9157830  67.5017257  27.9917271  13.0816890  67.8282801
  26.5364582  13.3948137  68.1024019  64.0524054  27.0106554  27.3402739
  64.2077875  26.0662699  27.3253608  64.8866081  27.3862290  27.6218462
  62.6080258   4.6251346  63.9339791  63.3741886   4.0652658  63.8084052
  62.4404461   4.5940353  64.8758821  77.1874087  82.3286776  36.1249368
  76.5157835  81.8876795  36.6452042  77.9713385  81.7918782  36.2412516
  55.6672614  58.2959084  58.9144711  55.6770103  57.5876395  59.5582823
  56.4280121  58.1252889  58.3591501  41.9125605  35.4274249  34.2428851
  41.9015884  34.5503640  34.6261287  42.7217960  35.4556441  33.7324214
  60.4441929  19.3302250  40.2560711  60.1252079  20.2325630  40.2723789
  59.6564245  18.7958479  40.3565407  28.4033942  29.7006416  31.1046195
  28.8417554  29.5689297  30.2639532  29.1087317  29.6649027  31.7507267
  14.9665911  16.6243983  59.9844829  14.3639166  17.2864820  59.6458737
  14.4038326  16.0001374  60.4425578  15.4147208  18.2586300  14.4284010
  16.1223018  17.6184607  14.5041931  15.6276393  18.7588191  13.6405516
  17.7703793  67.3254457  29.3019700  18.6369831  67.4185410  28.9062881
  17.9468901  67.0811263  30.2104759  21.7625427   8.4828013  15.8911049
  21.9723630   8.6243916  14.9679792  22.5765014   8.6797839  16.3546777
   8.7329204  76.0411200   2.9552773   8.5803659  76.5081051   2.1337646
   9.3551142  75.3506902   2.7263349  59.9953127  23.9521337   9.1295367
  60.2141190  24.8757577   9.0059406  59.4309378  23.9410615   9.9025768
  43.8981581   7.3986053  18.7069547  44.3078232   7.2249627  17.8594530
  43.6834526   8.3310974  18.6826277  66.7608356  31.9782352   7.1799570
  67.6106167  31.6660810   6.8690443  66.1541128  31.2675071   6.9726229
  58.4771729  18.6814618  15.0529540  57.7663517  18.1877375  15.4618573
  59.1636276  18.7095165  15.7194579  67.3332732  77.4363212  67.8447012
  66.8018906  77.5438122  67.0558355  67.2737329  76.5029077  68.0482407
  63.9293671  51.4324093   2.5931281  63.8801479  50.4870796   2.4511406
  64.7498322  51.5607119   3.0691659  29.3423772  39.0326118  20.9642792
  30.0434780  39.2020965  21.5935373  28.8173556  39.8329592  20.9693408
  62.7112722  26.5276766  32.6043892  62.8942060  26.8375325  31.7173958
  63.0860043  27.1989560  33.1746459  72.1729708   6.3219678  31.2095785
  72.4562168   5.7675081  30.4825425  71.9840193   5.7082003  31.9193792
  78.0961506  74.6598796  52.8598873  79.0514510  74.5998816  52.8536634
  77.8249066  74.2472867  52.0398704  32.0702791  15.7727218  32.6795912
  32.7580738  15.1167274  32.5662780  31.3674092  15.3069961  33.1326985
  33.5997452  74.5580391  71.7208096  34.2522778  74.9952893  72.2678348
  33.9726986  74.5796589  70.8395240  50.0151443  38.7632298  18.2292223
  49.2944574  38.1855726  18.4805357  50.5073309  38.8983512  19.0389907
  21.8861675  69.3472481  29.3718147  22.3534989  69.7802114  28.6574078
  21.3766408  68.6598158  28.9428043  34.3829329   6.1586763  65.3150867
  34.2266352   7.0607663  65.0357400  33.8266785   5.6307698  64.7422574
   8.9396174  82.5330315  14.7424734   8.4764607  81.8032719  14.3311715
   9.6479613  82.7410233  14.1331971  29.8277116  21.1361313  14.0747762
  29.0064478  21.4496517  13.6960149  29.8142886  20.1905823  13.9264894
  57.7351325  51.8695573  57.4556319  58.1565206  51.0315434  57.2648506
  57.2655623  52.0901446  56.6512219  34.0733194  39.1121101  11.0709989
  34.7176766  38.4096813  10.9836543  34.4370508  39.8356175  10.5606365
  39.3702149  27.5633788  25.6716537  39.5706677  28.4912205  25.7947850
  38.8251066  27.5384188  24.8852277  19.0294249  72.7616218  34.6415973
  19.7554857  73.3851996  34.6562171  19.4235928  71.9420126  34.3430972
  35.1511168  38.3222222  20.0941896  35.4635167  38.8127923  19.3339419
  35.8308816  38.4480143  20.7562518  64.8214817  42.9002333   1.7131101
  64.9021053  43.0779934   0.7760227  64.7145796  41.9506311   1.7684306
  47.4233913  67.1666622  26.9374824  47.9626989  66.7123652  27.5847816
  46.7072821  66.5587950  26.7533183  17.9284024   3.0504239   7.9193753
  18.3015251   3.7470242   8.4595227  17.2743261   2.6355600   8.4817845
  24.1303761  10.1937772  66.8168609  23.3750803   9.8254873  66.3584713
  24.1760857  11.1004068  66.5132717  84.6886539   9.3193811  32.5302410
  83.8905144   9.7964436  32.3030496  84.3775558   8.4814304  32.8727126
  45.4366388  10.8368203  49.1604185  44.5343198  10.5212018  49.1109514
  45.3531160  11.7802045  49.2993212  53.8125563  48.4984684  12.5747240
  53.3793402  49.3125629  12.3181999  54.5149517  48.7759495  13.1628406
  76.3120985  25.4199314   5.4786503  75.5405474  24.8603392   5.5669528
  76.0778713  26.0441995   4.7918752  82.3033040  78.8456110  62.0647154
  82.2286789  79.7987632  62.1112375  82.7786295  78.6035041  62.8595017
  49.9461174  26.6712379  10.8889842  50.5191898  27.4269247  10.7595348
  49.0604401  27.0277500  10.8203590  28.7129147   9.5202781  64.6429746
  27.8761608   9.2539121  65.0239293  28.6699087   9.2184068  63.7356399
  34.3318112  35.9583951  70.3292831  34.3552286  36.2604858  69.4213058
  33.8305456  35.1435519  70.2977436  44.6632940  76.0496065  23.4170628
  45.2512295  76.2919930  22.7016497  44.5661718  76.8521586  23.9296126
  85.8228111  50.9497976  21.2551951  85.6620026  50.5533123  22.1114492
  85.1640892  50.5575275  20.6820965  50.4865122  57.4812698   6.7635870
  51.0993862  56.8661165   7.1663266  49.6368885  57.0439196   6.8192458
  83.2369423  27.7110982   6.5786988  82.3154068  27.9590988   6.5044671
  83.6744213  28.5046101   6.8872213  42.4229622  30.3967333  29.1746521
  43.2167101  30.8393168  29.4751740  41.7915535  30.5312490  29.8813772
  57.1014357  79.5844507  42.9203939  56.6008139  80.3998470  42.9476547
  58.0065441  79.8537588  43.0768728  29.8020983  30.0683904  12.0556009
  30.4011130  30.6963539  12.4594295  29.5712256  29.4677997  12.7642763
  10.7204458  52.9036999   9.8065972  11.3329717  52.6498699  10.4969716
  11.1510202  52.6369095   8.9944029   3.5455908  81.5641789  59.5224146
   4.2624869  81.8080477  58.9369051   2.8535380  81.2550120  58.9378540
  73.3673089  72.1032886  56.4448861  73.0073349  72.7019576  55.7904808
  74.1911404  71.7992930  56.0639421  38.6838198  70.1143026   5.3209281
  39.2345953  70.6164455   4.7203204  37.9780054  69.7741890   4.7710362
  71.6463661  53.4892082  14.7396243  71.1821938  54.1423082  15.2633011
  72.0715904  52.9235601  15.3841853   4.5560190  53.1675005  10.9296143
   4.4014093  52.6052475  10.1705372   5.0601312  52.6217794  11.5331805
  62.6641846  37.0407772  13.4658694  62.7158928  37.5017643  14.3031561
  63.0040216  37.6667571  12.8264213  76.1759233  73.9155293   7.2591609
  75.4710150  73.2910013   7.0879883  76.7813921  73.4427166   7.8302038
  62.7142572  54.5886993  14.4037485  61.8411541  54.5509481  14.0132368
  62.9825640  55.5019474  14.3026567  10.2657530   0.9680190  23.3433342
   9.9249193   1.5603653  22.6731181  10.0328371   0.0936701  23.0310893
   0.3447935  42.6350403   4.2889461   0.3560850  43.5758686   4.4648632
  -0.5652407  42.4448824   4.0611172  44.0451765  47.2270298  19.1001177
  44.8176908  47.6347876  18.7087274  44.1868162  46.2872314  18.9863372
  17.6618321  15.3767110  39.6835677  16.7658789  15.1114560  39.8912637
  17.5607760  16.0808850  39.0431301  59.5471191  42.1157932  11.5879214
  59.7000837  42.1862364  12.5301909  59.9916124  42.8773546  11.2155211
  28.5642321   1.1739589  49.4418756  28.5788662   2.1218206  49.3092958
  29.2620451   0.8422805  48.8768331  27.1124554  50.9932184  21.8575382
  26.8448496  51.8079233  21.4322424  27.2248936  50.3727913  21.1373568
  15.0166001  81.6676859  70.6168882  15.7230915  81.5772824  69.9774129
  15.3012289  81.1416582  71.3642258  40.6147654  11.1476947  39.2604367
  41.0011847  10.5494643  39.8999898  41.2707455  11.2126685  38.5663931
  72.9520845  74.6030712   1.1580585  73.1154156  75.1121140   0.3640632
  71.9985199  74.5858908   1.2396294  63.6927891  24.3208075   5.2921933
  63.6549282  23.7344456   4.5365617  63.6584330  23.7372446   6.0501552
  38.7164576   0.2122546  61.5599982  39.5679409   0.6003286  61.7615001
  38.5580713  -0.4028271  62.2761140  36.3159742  12.5215814  50.2799273
  35.7219209  12.7164933  51.0047293  37.0012464  13.1865785  50.3464413
  60.0668049  55.1051521   2.0670554  60.9331512  55.4967260   2.1781608
  60.2379274  54.2575026   1.6566437  38.6347699  51.8404675  19.7174931
  39.3734646  51.6960239  19.1261399  37.9763293  51.2043858  19.4380510
  23.5905671  47.7489758  16.4512420  23.3958411  47.7123737  15.5147731
  24.3149543  48.3707619  16.5211260  23.7986595  28.8798524  42.7046339
  23.0762322  29.4971706  42.8197305  24.5740444  29.3624545  42.9911701
  82.3528807  80.3070764  65.4792307  83.0274813  80.5166082  66.1251758
  82.6380055  80.7532362  64.6818117  58.3822530   7.5308129  36.2237906
  58.4396642   7.0598027  37.0551085  58.7967961   8.3757874  36.3981318
  70.7789278  44.9128580  14.8302162  71.1462212  44.9180031  15.7141280
  71.3141298  45.5406761  14.3447971  25.2420259  70.2225304  12.6173878
  24.4103479  70.2706861  12.1459806  25.1008034  70.7458448  13.4063292
  66.7426682  56.9307995   6.9421184  67.0749187  56.6762114   6.0812914
  66.4541006  56.1094236   7.3399907  76.2094069  50.2779388  16.3518167
  76.9861650  50.4063129  15.8073914  75.8179092  49.4685173  16.0234880
  33.9236331  72.2015524   7.4859297  33.4756160  71.8419361   6.7203021
  33.3599782  71.9698143   8.2240504  68.0821180  24.0483308  29.1890979
  68.0633307  24.1635180  30.1391554  67.9819107  23.1051612  29.0601563
  38.8582397  40.8858490   8.1708360  39.0575409  41.2801600   7.3217022
  38.2367468  40.1861000   7.9700154  66.0305119  44.6524906   7.6805592
  66.6502190  45.3162003   7.9833543  66.2319040  43.8788509   8.2070094
  26.7947435  61.5188789  19.8146737  27.5956845  61.7866802  19.3641090
  26.1381078  62.1569300  19.5354819  54.0427701  57.1292547  61.1461906
  53.4033840  57.6125077  61.6695301  54.3152826  56.4051096  61.7097358
  31.0369277  46.1593533   7.8646833  30.6236672  46.5745258   8.6217022
  31.9674063  46.3637829   7.9576731  20.3046322  53.6533260   8.3272773
  21.0368013  53.1662464   7.9492372  19.8458731  54.0207720   7.5717938
  87.7936649  36.0918736  27.2790694  88.3564472  36.7804408  26.9249749
  86.9399166  36.5114284  27.3854733  69.7649605  77.5848260  29.2140627
  69.5160801  76.9525042  28.5399270  70.6069786  77.9310688  28.9185166
  61.3819981  23.6580229  25.4899049  60.5908346  23.2102680  25.7895803
  61.7245197  23.0983829  24.7929716  25.4709019  79.7454266  68.2119195
  25.9812607  79.8918633  69.0083657  24.5930256  80.0592188  68.4289090
  64.4997311  50.0891638   5.6778079  65.1925278  50.4859829   6.2058204
  64.9627733  49.5160484   5.0667775  10.5534193  57.0721817  23.0853820
  11.0907480  57.6210356  23.6565781   9.7581121  57.5845575  22.9398274
  65.7008505  48.6872292   0.7267549  65.9736204  49.0713120  -0.1064973
  66.1271286  47.8304148   0.7464935  73.7061834  53.1747246   8.9269179
  74.5168352  53.5327768   9.2886907  73.2229424  52.8576040   9.6898997
  53.1411219  38.4251237   2.0718734  53.6938238  38.0955243   1.3632707
  52.3878384  38.8136959   1.6271199  71.1752748  32.7772522  19.5258248
  71.9698381  33.2901692  19.6735346  70.4665041  33.4199405  19.5546281
   2.2092683  16.2368919  51.3216345   3.0068214  15.8696796  51.7028086
   1.4986522  15.8436824  51.8282358  40.9658146  66.9966650  50.3197241
  40.6867647  67.8779221  50.5682087  41.5552950  66.7248249  51.0231733
  13.7890513  27.7672197  70.3974312  12.9347880  27.3669864  70.5595304
  14.4188721  27.0703794  70.5817254   9.7492599  56.3743639   8.6396199
   8.8400805  56.0803652   8.6960751   9.6975219  57.2338724   8.2215250
  33.2162125  11.6044618  66.6646175  32.5358135  11.0224916  66.3260971
  33.4603960  11.2225295  67.5076683  25.4757578  24.2359925  68.1923638
  25.7145674  23.9147998  67.3228599  24.5448334  24.4474174  68.1222550
  71.3459349  40.2778959  14.7005379  71.6306305  40.2425671  15.6137371
  72.0844221  40.6698179  14.2344213  71.0072041  67.0783138  32.1324968
  71.5857840  67.5912952  31.5682960  70.5066538  67.7323818  32.6202250
  53.2261038  48.3271265  22.2772741  53.6833525  47.4893761  22.3502707
  53.4372854  48.7868595  23.0898499  39.6797681  39.0619779   5.2270603
  39.9174452  38.4452868   5.9194720  39.3483567  38.5103798   4.5184416
  64.0376902  52.7056789  13.2298732  64.8816442  52.5116110  13.6376882
  63.6846828  53.4319401  13.7438393  58.3387089  70.3935623  23.7498021
  57.8129673  71.0191011  23.2512760  57.9237032  69.5468998  23.5849714
  50.6476402  48.8127947   5.4357350  50.5394363  49.1273212   4.5381847
  51.5843344  48.9042521   5.6102937  65.4545927  14.8324800  15.2860832
  64.5906734  14.4697070  15.0904500  65.8477974  14.2024159  15.8899379
  40.4176807  12.2890079  16.5879548  40.7730103  12.8110027  15.8685851
  40.6928968  11.3932776  16.3926268  37.2785211  50.1233196  32.2067070
  36.8741083  49.9039459  31.3673282  38.2168913  50.1526499  32.0200658
  71.8118525  15.2535522  14.8925650  71.1288786  15.8420646  14.5709646
  71.8378258  14.5435846  14.2510796  73.7282801  59.2463350   5.7517326
  73.7757301  59.0988255   6.6963071  73.9021015  60.1817036   5.6463593
  36.1098313  81.8284702  43.1770277  36.6755772  82.4272060  42.6894951
  36.2445974  82.0653820  44.0946054  47.4678707  30.1013899  17.6758683
  46.9554329  29.8366475  16.9119632  47.7412939  30.9979558  17.4818552
  28.8625860  38.2449937  24.2629766  28.8488770  37.4882507  24.8489666
  29.7912884  38.3928871  24.0844512  40.8891613  22.6182986  57.8025405
  40.5233986  23.4781314  58.0102436  40.6603367  22.4762059  56.8840198
  32.4481279  23.9026691  65.4333208  32.0483429  24.2834617  64.6513991
  33.2472784  23.4836866  65.1138852  56.2360096  69.7523260   7.4440986
  56.9620800  69.2358971   7.0942950  55.8072186  69.1691589   8.0704254
  24.2565090  23.8068534  55.0498227  24.2510969  24.3552734  55.8343224
  23.7021763  24.2756892  54.4260125  34.7950983  35.6865859   6.6159666
  34.0836263  35.8851576   7.2247416  34.3626976  35.5805922   5.7686019
  68.9362955  81.4134216  27.0529366  69.0390778  81.2215710  27.9850626
  69.6940517  81.0007763  26.6384935  39.0494251  54.2480803  23.9837575
  39.3785930  54.7729635  23.2541132  38.1047845  54.1996765  23.8369870
  68.8792276  11.6668653  13.7350452  68.9305210  12.1016479  14.5862591
  68.7686825  10.7397509  13.9459229  74.7075462   9.1641432   8.6810791
  75.4477501   8.5894191   8.8760740  74.6889639   9.7859478   9.4085717
  55.9378099  43.7948370  13.2929993  55.1347780  44.1766453  13.6473954
  56.0691214  44.2450762  12.4585700  49.6414089  28.2082891  24.4973397
  48.7500000  28.4742522  24.7229147  49.9941635  28.9480305  24.0027905
  37.9989481  43.7849379  10.0321472  37.3815489  43.7207890   9.3034935
  38.8266039  44.0379190   9.6232259  24.0508713  74.3648319  61.1460738
  24.7102417  74.7879938  60.5961768  23.9565815  73.4875921  60.7748715
  41.2225866  31.8239522  27.1732235  42.0243025  32.3258591  27.0263433
  41.3799334  31.3557911  27.9931617  86.0158730   9.0153247  19.9145460
  86.4553547   8.8816464  19.0747750  86.7209244   8.9856005  20.5612659
  54.1173697  36.9297218  13.3970046  54.6608877  37.0504427  12.6183867
  54.6606731  36.4109969  13.9902818  70.8613873  23.5257006   6.1489600
  69.9371910  23.6723852   5.9475189  70.9525633  23.7931466   7.0635051
  78.7683487  63.0168390  14.6403003  77.9453135  62.7433777  14.2352521
  79.4048548  62.3610067  14.3557346  34.1033449   0.7896230  44.4767952
  33.2537927   0.3492257  44.4998503  34.7269525   0.0959775  44.2618370
  32.4667764  70.4604912  50.4106331  31.5418863  70.6769371  50.2924824
  32.6517105  69.8177338  49.7258711  24.7600031  37.6299214  15.9441292
  24.4640994  38.3625436  16.4844429  24.4751024  36.8503189  16.4208734
  55.2752638  41.3148928  13.9587510  55.9350204  41.9602013  13.7047255
  55.1701021  40.7622719  13.1842959  71.3877869  74.7386646  18.9862907
  71.0333014  75.3413773  19.6399844  72.0427513  74.2277050  19.4618607
  60.1603460  39.4299245  10.5250275  60.1366234  40.3867674  10.5359232
  59.4904327  39.1809678   9.8882592  30.5941701  46.0912752   4.9896422
  30.3894615  45.8939314   5.9036344  31.5094280  46.3711405   5.0042272
  33.9010167  25.3622055  23.5504913  33.2236362  25.8098674  24.0574288
  34.3075275  24.7597671  24.1734266  68.5009241  25.7897162   2.1354571
  68.1525469  25.0911069   2.6893580  67.7275801  26.2732887   1.8450619
  69.1845036  17.2818208  19.5546031  68.5927677  17.6345587  18.8900328
  69.6730185  18.0427790  19.8685002  31.9543076   6.2907249  18.1038439
  31.1193776   5.9679872  18.4429061  32.3118448   6.8228704  18.8146329
  76.5706587  28.1781101  30.3993869  77.3296738  27.7287340  30.0276542
  76.6183090  29.0646768  30.0416684  59.8737907  34.3324828   9.2579854
  58.9279127  34.4407678   9.1588569  60.0135422  33.3870530   9.2044783
  28.1952977  64.0687466  21.6349721  29.1093063  64.2758989  21.4402699
  27.7281785  64.8926210  21.4961839  18.3291115  64.1658453  40.9903781
  17.4075379  64.1094403  40.7378928  18.5391535  63.2945160  41.3263814
  56.2995625  -0.0221881  25.0745845  55.8175516   0.7970653  24.9617863
  57.2199583   0.2405652  25.0824094  40.9699041  13.6904288  53.7829141
  40.2156002  14.1147996  54.1917734  41.2499172  14.3030931  53.1028656
  41.0278757   1.4420553  10.3607090  40.2998931   1.3101431   9.7533520
  40.6579931   1.2519069  11.2228306  38.7555790  62.1334839   0.0461152
  39.6906877  62.1534586   0.2496012  38.3502078  61.7434978   0.8205942
  75.3919172  33.2742262   9.7696674  74.7617722  33.2754493   9.0491462
  75.8938313  34.0804839   9.6502644  80.0914890   2.3436977  46.6158311
  80.8524449   1.8011905  46.8228809  79.5294411   2.2723819  47.3873536
  28.9503462  22.2492744  63.5142027  28.7828905  23.1718351  63.3216731
  29.8246128  22.2407724  63.9038323  64.0941000  68.6546898  11.2594271
  63.6032629  68.1310987  11.8927979  63.8085890  69.5541430  11.4197564
  65.4719877  25.3806543  13.8214648  65.7167530  26.2128949  13.4168696
  65.3447866  24.7840047  13.0838609  39.5781779  17.7157640  28.2779336
  40.4282761  17.3770893  27.9971099  39.7850132  18.3222902  28.9889741
   1.2765524  58.2732821   4.9105901   0.8547899  57.4142122   4.8920912
   1.6992971  58.3510208   4.0553272  72.1722078  67.1186161   9.5969415
  72.6895571  67.6249027   8.9706361  71.4446831  67.6958847   9.8286778
  79.7366381  32.6208401  53.9718437  79.6234512  33.5408854  53.7332296
  80.6212425  32.4041009  53.6773252  54.8939991  79.3102789  31.2671137
  54.9044800  78.4289503  30.8937693  55.8180285  79.5364904  31.3731170
  69.3864506   0.4682347  63.5519981  69.9707907   0.6543061  64.2869473
  69.8330753  -0.2202132  63.0592537  75.3102827  60.5247831  35.0496602
  75.2163839  60.6633902  34.1072154  74.6132088  61.0520601  35.4399180
  77.4575043  63.7646866  31.1262441  78.1795120  63.9015675  30.5128932
  77.7636671  63.0660439  31.7045116  59.3676186  60.5059147  30.5758858
  58.5006189  60.8319330  30.3345156  59.2797995  59.5530033  30.5540609
  80.7190245   2.7204129  10.6855381  81.1146229   3.4160325  10.1603281
  80.7328623   1.9520757  10.1148415  73.5642529  70.2284527  10.7698059
  74.4294834  69.8594093  10.9470260  73.4312773  70.0877571   9.8323870
  39.5357670  71.6428379  47.3028795  39.8152413  71.5745048  46.3899414
  40.3149285  71.9444851  47.7699487  65.6585312  48.0567741  12.3667657
  66.2094355  48.7957239  12.1085107  66.2326527  47.2940636  12.2968400
  68.5308647  40.8820391  11.8155658  68.3342934  40.9207869  10.8795691
  69.4843674  40.8090401  11.8572319  53.0891848  79.5544815   7.9930496
  53.6847401  80.2694225   8.2175499  52.9589605  79.0837860   8.8162863
  36.8388636  18.5356713  60.1315216  36.2673599  19.3031074  60.1572077
  37.4848015  18.7405874  59.4554977  83.9151543   2.0435235  23.4667945
  83.3296125   1.5007970  22.9387617  84.5562666   1.4281651  23.8225222
   7.1540281  40.0678062  17.4021792   8.1084272  40.1275015  17.3598230
   6.9826814  39.1712284  17.6903141  59.0495348  48.7832594  14.1033959
  58.3203697  48.6462831  14.7081995  59.6884918  49.2860460  14.6085405
  32.8963883  18.3006383  52.0352392  32.9914744  19.1734506  51.6539423
  33.2539923  17.7095653  51.3726775  52.3680210  29.3683553   7.4736655
  51.8335056  28.6089635   7.7057159  53.1776524  28.9941978   7.1261889
  43.3158588  52.5729752  26.4451885  44.0867233  52.0762014  26.7194533
  43.3971357  52.6351643  25.4934740  50.2772856  73.0825663  37.7251792
  50.6026411  72.2594738  38.0897307  49.4597530  72.8443241  37.2880149
  60.4290247  40.2803802   6.2453669  61.2138033  39.7346544   6.2957716
  60.4481268  40.8020544   7.0476913  12.9153576   4.2232511  12.8027773
  12.7761259   4.4699666  11.8884587  13.8670578   4.2042157  12.9034603
  51.7577614  69.7142009  41.7488114  51.7233528  69.8391251  40.8004205
  52.5859131  70.1147727  42.0132629  17.2163953  23.7415215  23.1503677
  16.8626489  24.0847012  23.9709330  18.0533209  24.1934106  23.0427814
  61.6471386  81.4132500  23.3748007  60.7643318  81.4385700  23.0056906
  61.8910408  80.4880047  23.3491039  80.6765842  80.8364201  48.1809807
  79.9762011  80.4212761  47.6776457  80.5678463  81.7728901  48.0153751
  43.3376503  53.0752420  23.8803220  44.1653824  53.2845449  23.4475541
  42.9693604  52.3610210  23.3602452  11.2247297  39.2041373  10.5072534
  11.2402269  39.2729783  11.4618480  11.4297601  40.0872183  10.2000737
  79.8463106  76.2879038  34.3867302  79.0759420  76.3908529  34.9454522
  80.5284691  75.9663391  34.9762106  17.6567480  34.8569250  32.6407695
  17.6277086  34.0426493  33.1431055  18.5903379  35.0347042  32.5265288
  72.1275425  19.9981594  30.1244903  72.1503401  20.8353162  29.6609354
  72.4329996  19.3593407  29.4804120  68.6777878  69.6912193   6.4348733
  69.2539883  70.3163099   6.8747437  69.0016222  68.8331461   6.7088675
   0.0728264  -0.0738719  30.9173012  -0.3650675   0.5715844  30.3624439
   0.8404674  -0.3422931  30.4124212  28.8629038  27.5188686  71.9364871
  29.5514042  27.2510148  72.5451375  29.2608244  27.4297763  71.0704876
  32.4240896  55.1942682  31.4194798  32.4811098  54.4824505  32.0568919
  31.9872782  55.9035730  31.8909788  40.9769518   4.7513009  65.8268098
  41.5702469   5.4377795  65.5218862  40.8926518   4.1584827  65.0800232
  70.5906534  43.8253689  49.1735458  71.0149336  44.6313953  49.4677305
  70.0019598  44.1064739  48.4730816  30.8096170  41.6755247  21.6087937
  31.2609768  40.8601761  21.8272161  31.4589381  42.1867847  21.1258578
  66.5411472  70.6290436  34.6866012  67.3841476  70.4086256  35.0828242
  66.6774321  70.5025196  33.7476397  82.1861839  48.6857224  39.1167068
  81.9361687  48.2138205  39.9110866  82.9916382  48.2572603  38.8270736
  69.3818903  63.6245203   0.2126811  69.7685719  63.1350327   0.9387061
  69.4832277  63.0487537  -0.5452483  78.5236502  71.8895292  39.2382574
  77.6777887  72.1157646  38.8515234  79.1397619  71.9293165  38.5067821
  51.9012260  65.3359556  23.5262060  52.4268484  65.8718872  24.1201138
  50.9972239  65.5918550  23.7093306  68.2593679  34.4733858  42.1530294
  69.0289593  34.2136621  42.6594877  67.8456116  33.6466074  41.9050884
  16.4040872  77.5448799   5.4392183  16.6388723  77.7371359   4.5313936
  15.5452368  77.9511356   5.5556738  26.2069025  16.2476727  28.5001779
  25.7474413  16.7054746  27.7962279  25.5290880  15.7244107  28.9279652
   1.2726995  36.0510945  21.5615916   1.0878011  36.4821482  20.7271862
   0.5365774  36.2920976  22.1239758  53.3008242  31.5412283  18.4314418
  52.9189014  31.8845677  19.2392063  54.0999508  32.0534086  18.3077526
  79.9236155  66.9997311   7.2223145  80.6934166  67.1912861   7.7579892
  79.2136049  67.4868155   7.6404798  82.2836113  15.9336996  19.7229910
  81.9116116  16.5296686  19.0728617  81.5949440  15.2869260  19.8767877
  72.7313709  29.2717171  23.7449574  72.2720051  29.9156451  23.2059097
  72.4433947  28.4248948  23.4040833  74.3546438  44.0260696  24.9487925
  73.9973783  43.8373852  25.8165455  75.0920916  43.4227610  24.8570275
  11.9795122  15.4872701   8.6712873  11.9680204  14.8063466   9.3439341
  12.2798099  16.2719438   9.1299075  64.0643740  44.2820835  55.8329153
  64.0342855  45.0927305  56.3410282  64.7605085  43.7683916  56.2424850
  77.0311928  60.3396416  13.1793320  77.6743603  60.5356073  12.4980366
  77.0451593  59.3855047  13.2545769  58.8902330  57.8811646  33.1817913
  59.1626072  57.9788923  32.2693801  59.6113968  57.4087954  33.5977483
  20.2430269  29.0250254  26.7784595  20.7111666  29.0615535  27.6125741
  20.6264231  29.7306252  26.2575269  17.4217589  10.6008292  71.7044630
  17.5007803   9.7562648  71.2609550  18.3227379  10.9134484  71.7865987
  75.1787615  74.6014833  20.7994986  75.8862257  74.0639925  21.1556315
  74.3880796  74.0807629  20.9405637  67.8347874  73.3899450  15.9998560
  67.0970964  72.8144646  16.2019992  68.5384083  73.0881882  16.5743971
  50.1881695  42.6487350   1.6756596  50.1603270  42.8396606   2.6132119
  49.2822266  42.7498341   1.3836376  40.3174803  73.2360363  20.3395629
  40.5788824  73.5709000  19.4817936  40.4999468  72.2974014  20.2960110
  82.6310652  40.1466557  11.5556169  83.2312506  40.3141877  10.8290195
  83.0452125  40.5659005  12.3099017  41.4771223  80.7504940  17.3825955
  40.9539366  80.5296612  16.6120493  42.1367264  80.0584984  17.4305916
  61.6595745  50.6948042  18.4983778  60.8848000  50.2089787  18.2156587
  61.4408445  51.6118574  18.3328438  60.0229168  44.8142052  12.5944829
  60.2525520  45.7414150  12.5330412  59.0971994  44.7802353  12.3533905
  69.9268723  58.2998562  12.7223718  70.8536148  58.0603123  12.7245057
  69.8936367  59.1325378  13.1932878  41.2356091  29.1153097   7.9567230
  41.0787344  28.3393478   7.4186635  41.8801975  28.8310909   8.6047620
  22.8064568  18.2159282  67.2043715  23.3101971  18.5287286  66.4529501
  21.8998892  18.2054568  66.8973659  83.7829781  62.4723959  50.2200460
  83.7579727  62.4889994  49.2633152  84.2327690  63.2819605  50.4619694
  68.7776899  57.1609116  27.0014477  68.3888388  56.9592047  27.8525305
  68.1522083  57.7553797  26.5871882  39.7756743  83.1264400  38.5922074
  40.0501776  82.9775810  37.6873755  39.0386152  82.5292969  38.7202215
  75.2523136  29.3909621  21.5630722  74.5288754  28.8913012  21.9415045
  75.7043266  28.7660027  20.9962034  79.7255104   2.4040887  13.1129944
  80.0950687   2.6832196  12.2752905  78.8820475   2.8537175  13.1643891
  77.6758051  56.7552280  24.2620754  77.3082972  57.6374626  24.3152237
  77.5121975  56.4815807  23.3595347  24.7020561  27.4998809  61.1760775
  23.7659199  27.5070239  61.3756375  24.7449476  27.3337556  60.2343790
  85.2151966  53.7371540  46.7997169  85.1887131  53.2551908  45.9731293
  86.0952473  53.5787487  47.1412468  57.8160095  57.2921228  24.2885351
  57.0037031  57.5367308  23.8451886  58.0441666  58.0606079  24.8116088
  29.5410848  61.3847733  33.0758524  28.6529040  61.6690063  32.8600383
  29.5338392  60.4398108  32.9234385  60.5475950  73.1557846  22.4319983
  60.1673317  73.6843967  21.7304277  59.8295736  72.5948620  22.7253246
  75.3214550  82.0656013  17.4004316  75.9530783  82.6037407  17.8776014
  75.8404779  81.3423634  17.0486057  71.9771051  57.3861313  41.6905832
  72.9204416  57.2544575  41.7855167  71.8379927  57.4493790  40.7456589
  50.6913233  72.9194641   7.4394614  49.9004745  73.0061054   6.9072151
  51.4076710  73.1277180   6.8397057  80.4322529  27.5261855  20.3638768
  79.9778748  26.7503500  20.0354671  80.6572342  27.3071623  21.2681103
  54.3599977  19.4651410  26.5252256  53.5041036  19.3701264  26.9431496
  54.2046823  19.2411611  25.6076527  38.7295808   1.3489434   8.3803391
  38.4394159   1.1137769   7.4990141  38.1667127   0.8380887   8.9620984
  65.8198643  74.0059185  23.4787393  65.2839375  74.5443439  24.0610695
  66.5286779  74.5861149  23.2009196  47.7377176  67.8183699   9.9106050
  47.6929665  66.9042158  10.1908720  47.0954800  68.2687759  10.4591465
   0.8935186  73.6081886  19.0519321   0.2158853  73.3577442  19.6798873
   1.6674349  73.1158829  19.3256402  65.7361126  70.9151554   4.0291864
  66.5941238  70.7424784   4.4167736  65.4110289  70.0521183   3.7728274
  37.0933723  46.6508293  33.2375240  37.1003413  46.8631697  34.1708493
  36.4464259  47.2474146  32.8609872  87.1736717  74.3890095  27.6251554
  86.5812969  74.3831491  28.3770156  87.3155212  73.4638262  27.4247861
  39.0301085  47.2286272  18.0779099  39.2007899  46.8361807  18.9341140
  39.8841596  47.5474072  17.7860093  38.5192728  22.6059389  24.6248293
  39.4405437  22.3773932  24.5013022  38.1386018  22.5482273  23.7484789
  37.9554142  69.5558290  48.3178226  38.5750832  70.2345661  48.0503146
  37.8234066  69.0281514  47.5301926  47.3884477   1.3749310  47.4345350
  47.2772016   2.3180959  47.3149538  47.2313299   1.2316510  48.3678150
  87.2108173  75.1936150   0.9200419  87.8439617  74.9404812   0.2482595
  86.3677025  74.8948622   0.5792689  64.1405344  37.2039747  18.8960409
  64.9484921  37.7165866  18.8702691  64.0624094  36.9257498  19.8085761
  73.1559992  51.6410875   6.4717543  72.4343204  52.1068001   6.0492355
  73.3114672  52.1253872   7.2826284  73.1902378   5.1001641  35.5273056
  74.0295856   4.6518990  35.4234123  72.6814001   4.8365304  34.7606182
  50.4545164  30.0897717  15.8180225  50.0876760  29.2099118  15.7314193
  50.2239418  30.5271459  14.9984074  37.9870415  75.5258751  12.5607145
  38.2854033  74.6228313  12.6690066  37.4606705  75.5099869  11.7613935
  61.7515707  62.6258755  24.5389128  60.7961082  62.6018190  24.5913744
  61.9613123  63.5513115  24.4131875  55.4670477  52.0706606  15.3397691
  55.8729935  52.7377367  14.7861934  54.5890951  52.4083328  15.5170023
   3.7098660  76.3721303  69.8221424   4.4109501  76.0145406  70.3669738
   2.9280581  75.8895020  70.0906120  68.2734919  47.7019024   6.6021305
  68.9146852  48.4087896   6.6757178  68.3650208  47.2096348   7.4179274
  52.6131715   0.2394387  12.2569227  53.1113996   0.4591844  13.0441415
  52.9483881   0.8354852  11.5871549  26.8896832  65.6429891  62.7327780
  26.4105381  66.2830452  63.2590650  27.6405205  66.1281947  62.3906551
  88.3214760  62.7181387  27.3735595  87.8455257  61.9612694  27.0317340
  87.6380539  63.3503342  27.5960398  11.2321588  35.1934052   0.9096982
  10.9583685  34.2763901   0.9285049  11.5040228  35.3806686   1.8081716
  79.0731192  65.3933620  11.9139218  78.8679981  65.3892040  12.8488767
  79.1313171  66.3211107  11.6856074  43.4941799   4.4199372  59.2155187
  44.0227205   5.0971366  59.6377484  44.0896017   3.6766721  59.1192989
  13.2352533   2.2808454  24.4488096  12.5267877   2.0697782  25.0568843
  12.8182544   2.2845551  23.5872245  46.6142017  25.3485538  50.1459495
  45.9125216  25.9872485  50.2722184  46.7845947  25.0035239  51.0223929
  24.8770036   3.9126012  11.8428588  24.3679800   3.3231923  12.3993826
  25.7455053   3.9310834  12.2448492  73.9359491  27.2486779  14.6788287
  74.4903534  27.1649548  13.9030325  74.5423859  27.4781987  15.3829491
  42.7562132  34.9589631  20.8676815  42.4301805  34.0717694  21.0187316
  42.0832338  35.5282304  21.2408710  60.1516025  76.1168532  44.4264213
  59.2745750  76.0066847  44.7937314  60.3320854  77.0528034  44.5139186
  31.1910326  38.0643560  63.7477325  30.2844174  37.7606298  63.7927447
  31.1304552  38.9452316  63.3781181  49.5093727  72.1301079  21.7201328
  50.1407862  71.9323444  22.4118209  48.7744474  71.5411615  21.8911791
   5.1316473  67.0903635  40.5509424   5.4908582  67.6019859  39.8260689
   5.9007665  66.7654610  41.0190439  45.4314222  17.1558759  36.9238210
  44.6844854  16.5851304  37.1042609  45.3804006  17.3270318  35.9834313
  57.8134060  54.9653816  21.9136596  58.5583353  55.2268219  22.4549174
  57.3032665  55.7679319  21.8045425  62.8703260  29.5855975  20.5661678
  62.3799801  28.9145446  21.0410142  62.9799652  29.2246246  19.6864462
  73.3970308  46.4994001   3.5944858  73.2493162  47.4171925   3.8226685
  73.1926680  46.4488649   2.6607227  78.1590033  51.4678192  22.9498339
  78.6846161  52.2090435  23.2507515  77.2529650  51.7554045  23.0621529
  36.3981152  49.6100092  14.9343419  37.0861316  49.1548729  14.4488311
  35.9551334  48.9189053  15.4266608  27.8997493  65.3455782  29.1989756
  27.7092505  64.4125128  29.1023636  27.6276445  65.5543089  30.0926328
  30.9475071  40.4827167  67.6703725  30.5823643  39.8764468  68.3148376
  30.4287369  40.3331138  66.8799744  13.2270548  77.1071959  18.1213105
  13.8606855  77.8227997  18.0698562  13.2661649  76.6902971  17.2605562
  28.7457871  72.9592419   8.1618476  29.0450764  73.8637447   8.0694610
  29.4983602  72.4940777   8.5272062  87.0941448  54.6623516  29.1878700
  86.8342781  55.2422905  29.9036741  87.4402809  55.2505350  28.5167050
  73.0127192  72.8044415  21.5206647  73.0626392  71.8515348  21.5962219
  72.0939732  73.0105543  21.6928577  41.1251957  29.7852517  68.7338228
  40.9087593  29.7166349  67.8039418  41.3635475  30.7040693  68.8570933
  35.2175379  39.0069222   2.9563263  35.3020906  38.5105324   3.7703779
  36.1192822  39.1562414   2.6720864  59.3315220  58.4384775  56.7113256
  59.6874332  59.1419744  57.2541428  60.0925636  57.9059172  56.4801836
  66.3782692  51.3318014   3.5519764  67.1985435  51.8161249   3.6458290
  66.5718603  50.4625559   3.9029390  70.2725632  18.0422736  68.0942790
  69.8701412  18.4690620  67.3378823  71.0485108  17.6082374  67.7396513
  66.2141449   9.4154216  67.7443863  66.1649925   8.4997512  67.4698586
  66.7599423   9.4007827  68.5305960  74.0372610  55.2561474   6.7783177
  73.8612938  55.1727581   5.8411342  73.4986258  54.5770884   7.1845019
  80.7148933  44.2156410  24.3214488  81.5807915  43.8160563  24.4038773
  80.7919693  44.8009920  23.5680223  81.0483360  43.2158947  32.7150273
  81.5617275  43.7048054  32.0718861  80.4744434  42.6584101  32.1895862
  81.4877319  58.8237953  36.7065740  81.8697453  59.2543077  37.4713945
  80.6514072  58.4784794  37.0189214  79.2389433  82.5320391  61.4718990
  79.4002478  83.4070448  61.1189358  79.1044562  81.9831709  60.6993131
   6.8363878  58.8718271  34.6349192   6.9031927  58.2752991  35.3805208
   7.4679014  59.5653772  34.8257327  31.0345173  53.5679436  26.7006779
  31.6963840  52.9371357  26.9839573  30.4317975  53.6316967  27.4415517
  63.8352823  79.7199154  19.6480954  63.6432266  80.4843712  20.1911926
  64.0021610  79.0163517  20.2752972  37.0223069  33.2066202  11.1012924
  37.1257234  32.2621393  11.2174582  37.7082396  33.5915542  11.6467774
  74.2803288  57.5005674   8.0887628  74.2042637  56.6594934   7.6381624
  73.9548302  57.3291540   8.9724493  37.9284117  67.0431852  37.8251219
  38.0318281  66.8110132  36.9022822  37.9296991  68.0003548  37.8328824
   5.2263567  80.5340195  36.5064096   5.9762213  79.9414539  36.5593839
   5.6067201  81.4090729  36.5828085  72.5188780  30.2145362  38.1898761
  72.0965147  29.3877840  37.9567981  73.2020569  29.9671483  38.8130116
  69.9628115  54.7856474  40.3653812  70.8756018  54.7077227  40.0879288
  70.0099468  54.9005413  41.3144922  74.0442085  67.5600863   6.2692934
  74.8695993  67.6338243   5.7902062  74.0881109  66.7021179   6.6914189
  58.4220059  33.7707473  67.3965139  58.9730866  33.1487180  67.8715138
  58.0508072  34.3309594  68.0781321  87.1218385  10.2311704  33.2919717
  86.9269361  10.5878350  34.1585922  86.2633314  10.0801656  32.8964972
  79.5682430  63.7231827  19.6912944  79.5956755  64.2625904  20.4815578
  78.8930845  64.1290808  19.1475701  86.3347094  77.5962500  69.5290942
  85.3954594  77.4444751  69.6340081  86.6273253  77.8918771  70.3911923
  74.2827368  66.9590330  24.1283083  74.3473005  66.6928720  25.0454879
  74.3054342  67.9156113  24.1543388  52.8111649  61.1042309  25.7611775
  51.9270229  60.9350729  26.0866284  53.2246733  60.2414608  25.7316685
  22.3511972  15.4976270  32.8774548  21.5474786  15.1521775  33.2659650
  22.8896513  15.7515141  33.6270118  82.9440308  63.8077688  25.1049900
  82.6296139  63.4916449  25.9520102  83.7386131  63.3002281  24.9398494
  42.6689053  17.0919180  13.1356359  43.3103800  17.6267934  12.6680350
  42.8072739  16.2055385  12.8018439  55.7411098  53.7749672   2.4236214
  56.1576319  54.2020893   1.6750847  55.7193470  54.4493246   3.1025875
  54.4104195  74.1712856  29.0404749  54.5812941  74.0295887  28.1093693
  54.4321823  73.2945967  29.4241095  82.2267723  17.3393250   8.7564856
  81.8073368  16.9635510   7.9824656  81.5689373  17.2606397   9.4473499
  60.6163931  52.1580935  21.3364577  60.2431583  52.7770138  21.9640470
  61.2076139  52.6871920  20.8009720  57.6183731  27.2841979  46.0552494
  57.3169644  27.3113252  46.9633500  56.9124729  26.8441535  45.5816404
  63.5133934  78.5295439   5.1396048  62.5785065  78.3252859   5.1172501
  63.8667107  78.1213093   4.3491989  63.1436092  37.2691680  61.1538641
  63.9366181  36.7651893  61.3365535  63.4142716  37.9125072  60.4988138
  70.5391407  62.9965973   4.6755522  71.0185432  63.6649275   5.1651806
  69.6172190  63.2151270   4.8116958  23.5703690  53.1537009  68.5499073
  24.5024187  53.2097865  68.7605627  23.2854683  52.3282386  68.9419095
  42.9258330   2.8449155  70.5368943  42.3852999   2.9555751  69.7547112
  42.3880274   2.3168660  71.1269460  68.6306524  53.5478306  13.4430122
  69.5518923  53.3589888  13.6215818  68.6511374  54.1963768  12.7393079
  45.7475042  59.0560055  36.9715714  45.2037621  59.6031046  37.5383615
  45.1833153  58.8476944  36.2269044  76.6832066  77.9744053  40.2704811
  76.4662981  77.1915674  39.7641706  77.4145460  77.7051687  40.8262587
  78.7901974  10.3700006  20.2954626  79.2847729   9.7651345  19.7425032
  77.8757954  10.1166213  20.1693821   9.9779691  11.0002896  15.7243335
   9.2526188  10.8616826  15.1153290   9.8246994  10.3687093  16.4270806
   8.9954492  81.8930531  30.0624728   9.7448751  81.7464256  30.6396222
   8.7327215  81.0158920  29.7835588  54.5338964  55.0723600  25.8217335
  54.4704437  55.1230478  24.8679852  55.4743338  55.0797224  25.9999347
  12.9286756   0.1036260  46.4246702  12.3158540   0.7492635  46.0727739
  13.7529554   0.5813596  46.5172100  76.9876289  59.3596888  24.4267511
  77.7244997  59.7397375  23.9484000  76.4532518  60.1121521  24.6806693
  16.6123237  18.7641141  24.8395348  16.8777074  19.5327374  25.3445363
  16.8651952  18.9698407  23.9395523  11.9359102   7.1635053  42.9807186
  11.8749656   6.7884347  42.1021748  12.2947683   8.0400655  42.8425646
  44.2521181  -0.1823047  19.5322847  45.1876154  -0.3479579  19.6490717
  44.2068567   0.7168195  19.2070723   1.2207880  13.6403176  32.1744943
   0.7691326  13.5471436  33.0132794   2.0548381  14.0543267  32.3962688
  83.2014387   6.6341016  21.6756797  83.1081026   7.0165822  20.8031964
  82.4845665   6.0029218  21.7384362  35.8901998  54.5148134  43.0736399
  36.0010454  54.6917725  44.0077877  35.4227468  53.6801195  43.0418062
  20.2240457  11.8852231  16.4739585  20.8985176  11.5407369  17.0593202
  20.0288572  12.7561757  16.8197703  58.9846087  56.4756823  39.6945214
  58.3355618  56.9576502  40.2070475  58.4888983  55.7650185  39.2877531
   5.8590242  79.3317223  47.1424913   6.7949220  79.5089102  47.2370768
   5.7918951  78.3772993  47.1708155  13.4056207  66.0914564  19.4583130
  14.1005251  65.7338238  18.9056492  12.6334211  66.1058903  18.8928640
  80.0891144  18.0086614  68.4774132  79.6360333  17.1933318  68.6923422
  80.5143005  18.2689763  69.2945341  11.2976112   8.3322808  26.5789485
  12.0274391   8.7280652  27.0553303  10.9558382   7.6658341  27.1749902
  27.9834778  40.4285194  70.5817398  28.7376148  41.0162402  70.6274627
  27.2500784  40.9976627  70.3484191  66.2327692  67.7596521  14.7120440
  66.2534162  67.7323008  15.6686294  67.0513555  68.1910753  14.4670475
   2.3874113  79.2885923  53.0450821   2.6733705  79.4031668  53.9513540
   2.7072927  78.4200764  52.8009796  55.5305433  59.7418642  34.2652822
  56.2092304  59.0933037  34.0782404  55.4710054  59.7575712  35.2205014
   6.4265718  15.3692243  16.6125166   7.1019830  15.5331132  17.2706902
   5.7652368  16.0417935  16.7753649  38.7994596  49.1273165  29.5577550
  38.1613848  48.4896421  29.2376494  39.2037317  48.7025404  30.3143001
   8.5606310  66.8613672   7.7277792   8.8749620  66.3501215   6.9820923
   9.1576978  67.6080322   7.7750021   1.9692442  72.3184681  36.6859913
   1.9492838  71.5642023  36.0969925   2.8155824  72.2544336  37.1285439
  51.3322067  79.3175268  12.9456162  51.0177422  80.1770782  13.2258248
  50.7232666  78.6973190  13.3465719  73.2654810  67.7133322  49.5286369
  72.3661041  67.4005985  49.6263790  73.6588001  67.5850677  50.3918171
  58.2583189  79.1295862   9.5407355  58.1336975  78.5884190   8.7610942
  59.1545343  78.9434671   9.8207283  86.1420250  69.3115807  66.9638205
  86.4861584  70.0375795  66.4435005  85.1998138  69.4743252  67.0083475
  22.4443330  31.5670106  49.5109320  22.5254717  30.6356236  49.3055582
  21.5834322  31.8128297  49.1723347  44.7764618  17.9016210  66.9823320
  44.2283661  18.6228658  66.6730968  44.2943604  17.1120406  66.7366241
  79.0297031  71.3707542  19.6744680  79.7375059  71.9665051  19.9200904
  79.0030432  71.4117336  18.7185168  79.6694994  49.8064804  35.8471537
  78.8295507  50.2329922  35.6774306  79.8872757  50.0552845  36.7454290
  77.7983904  58.4195852  21.5399361  78.4793425  58.5803461  22.1931529
  77.4619293  59.2896891  21.3255811  29.4214174  70.2797651  49.3532848
  29.3242380  69.8242426  50.1895189  29.1539690  69.6359777  48.6973524
  28.7405988  33.0476093  41.2100935  29.5872423  32.6944470  41.4833975
  28.5894605  33.7885809  41.7969084   2.5592348  70.1280928  24.6443081
   3.4033987  70.3145027  24.2333674   2.7713606  69.5458651  25.3738546
  49.8621607  81.6057587  19.6426439  50.3486919  80.7864380  19.7333348
  50.2454758  82.1860027  20.3003836  76.1336756  50.2573299  32.7725577
  76.1017704  51.2037611  32.6329732  76.8948555  49.9666691  32.2702122
  73.3489132  79.7570515  50.4089260  73.8830996  80.4197407  49.9710655
  73.4470940  78.9740229  49.8672056  35.4491541  77.2393703  25.5218792
  35.6941339  77.1085310  26.4379048  36.2306234  76.9924498  25.0273442
  13.1228945  64.8986626  12.6470494  13.1979677  64.5033169  13.5155523
  12.2197553  64.7246456  12.3819292   5.3477682  74.6016983  71.0400476
   4.6807064  74.2785553  71.6457204   6.0784973  73.9916972  71.1408655
  60.1148891  79.5797825  43.9284086  60.9117126  79.0509987  43.9695168
  60.4086685  80.4307556  43.6031818  48.9661081  24.6762033   1.3672789
  49.5687158  25.0149341   0.7051952  49.0654905  23.7254759   1.3176020
  41.8528557  51.4270687  22.4271631  40.9048080  51.5582037  22.4118352
  42.1824694  51.9788027  21.7178130   8.8209333  29.9281117   8.2000053
   8.2204189  30.6527993   8.0255497   8.6957493  29.7315022   9.1283953
   1.2512419  81.4945984  41.3981819   1.4881536  82.4049568  41.5752363
   1.9298860  80.9809685  41.8362045  56.3951874  72.0379829  49.2105246
  55.9227753  72.8221321  48.9309454  57.3079824  72.3187160  49.2755604
  46.4744473  63.3433533  57.2271061  47.0377207  62.6973820  57.6533318
  45.5842066  63.0484390  57.4187422  59.5426750  74.0673208  65.5731869
  59.4356680  73.8445759  64.6484327  59.9389744  74.9385929  65.5653811
  34.0180101  26.7720983  31.1288619  34.6126451  26.9503877  30.4002595
  34.5868864  26.7301652  31.8975329  52.1642447  72.4810839   5.0275475
  51.7473412  71.6218805   4.9627963  53.0219650  72.3026657   5.4131866
  59.2854588  26.8214099  55.8997981  58.8846629  27.5291054  55.3950600
  58.6456196  26.1103312  55.8650843  74.5960236  30.2898932   7.1097434
  74.0392256  29.6179509   6.7164242  74.2451334  30.4049277   7.9928476
   6.1007561  31.3499502  61.3732259   5.5261387  30.6959132  60.9753708
   6.3041701  30.9952859  62.2387115  54.2181365  52.6415197  67.4695761
  53.2697027  52.5927095  67.5892494  54.4160550  51.9484619  66.8397109
  60.2738571  26.3343954  13.9306843  60.4103041  25.9804893  14.8095274
  59.5614004  26.9651651  14.0344405  35.7705528  77.0754298  69.5164299
  36.2247355  76.6190907  68.8081217  36.4292795  77.1643373  70.2052069
  62.1745491  32.1635032   7.6662910  62.4316978  32.5765395   8.4906137
  61.6325283  32.8197885   7.2284180  28.3084185  79.5997807  54.0067434
  28.7363417  80.4545098  53.9562225  28.8703091  79.0844509  54.5854855
  83.6547575  72.1380630  15.1236928  83.3954749  72.0596674  14.2056203
  84.5517788  72.4705699  15.0916827  18.7542786  30.8741872  63.4869830
  19.3811716  30.7757835  64.2036114  18.6119427  31.8184588  63.4212427
  67.5405662  42.8425762  64.7493367  67.0791404  43.3438664  64.0770082
  67.8263156  43.4995903  65.3840892  10.0759615  61.4106719  61.0365836
  10.5015625  62.1608834  60.6215231  10.1517834  61.5814499  61.9753687
  14.0137114  32.1310131  55.6256608  14.7358002  32.2140137  55.0028197
  14.1729035  32.8205530  56.2701957  32.7072460  76.8079200  38.9706111
  33.4146387  77.3428479  39.3307281  32.0762903  77.4424741  38.6308074
  57.4305677  16.5673053  12.8766954  57.5988102  17.3607457  12.3683846
  57.9556561  16.6750693  13.6697268  68.5248511  19.2248921  66.2008731
  69.1470568  19.3364815  65.4820965  68.2451479  20.1147155  66.4158533
  15.9087217  23.7297463  38.9691591  15.1641381  23.1382656  39.0786076
  16.6709280  23.2018900  39.2071557  81.7647212  30.6093363  70.8315576
  81.0872881  30.0196974  70.5004343  82.4953597  30.5005733  70.2228152
  87.7051299  54.3220405  36.6197245  88.0624144  53.5570423  37.0706789
  87.6217740  54.9861638  37.3039929   5.2153778  29.6663475  15.6560946
   6.0709739  29.5323682  16.0638154   5.2785897  30.5281448  15.2443397
  68.7866116  28.3422327   9.7376013  68.5734558  28.0999470  10.6387639
  67.9489613  28.6039972   9.3554395  70.7549715  42.4523211  17.2993958
  71.6348743  42.2021246  17.0176053  70.2392578  41.6503906  17.2146547
  60.4330270  62.4538593  68.0646340  60.8342617  63.1655077  67.5658385
  61.1739223  61.9492320  68.4002770  55.8278434  13.5163669  71.3878895
  55.9184473  14.2328243  72.0161507  55.7874625  13.9492659  70.5351297
  51.4218187  16.5120327   5.7969624  50.8210945  17.2570813   5.8131903
  51.7757225  16.4703178   6.6853571  12.3718514  66.9355778  56.2630431
  11.5150656  66.5715150  56.4857761  12.7583708  67.1715979  57.1063284
  26.9979443  46.6034190  60.2849237  26.8666043  46.8253217  61.2067382
  26.9271054  47.4397759  59.8247938  28.0677652  14.8775411  31.3788986
  28.9827251  15.1070702  31.2164330  27.9421210  14.0503907  30.9138536
  34.1474462   8.1981051  12.8143072  34.1578150   7.6995289  13.6313415
  34.9278235   7.9041129  12.3444009  32.9920990   3.8888885  49.3142931
  33.0157597   3.2276250  48.6226289  33.7814695   4.4115592  49.1730563
  87.1217577  33.2970480  56.7617206  87.1296923  32.4979679  56.2348060
  87.7623646  33.8690428  56.3390235  44.4570286  63.2714441   5.0482291
  45.2731449  62.8276423   5.2789432  43.9133293  62.5861791   4.6595958
  60.4642582  37.5166225   5.0454128  60.5140066  37.4286556   5.9972632
  59.6576452  38.0086899   4.8921868  77.8914261   2.4335200   8.8832527
  77.3827744   2.3444560   9.6892142  78.6829567   1.9190520   9.0414870
   9.5102085  41.9368518  67.2351087   9.4831862  40.9865925  67.1232651
   9.7872700  42.0634310  68.1425480   9.9427015  13.0509759  70.4376794
   9.2193086  13.1695605  71.0532051  10.2138788  13.9409019  70.2124639
  73.2306814   9.4289988  35.0614405  73.6508894   8.8372046  35.6854916
  73.4333992   9.0557712  34.2036295  44.2979002   2.1634705  18.3388126
  45.2044725   2.3462684  18.5856807  43.8730049   3.0211920  18.3353508
  62.4228317  83.2033588   2.8043255  62.5443203  83.6192911   3.6578327
  62.8220684  82.3386951   2.9002604  67.1748478  71.4649275  11.0957742
  67.4471981  72.0694938  11.7861056  67.5830013  70.6319871  11.3321054
  43.9784557  79.6477744  23.1418204  43.8386423  79.7446030  22.1998501
  43.2108957  79.1657293  23.4495807  54.6321742  55.1185135  65.7385586
  54.3749707  54.7789387  66.5957437  55.1144378  55.9219007  65.9340702
  22.7984268  68.7334362  16.3845336  23.6296732  68.5166433  15.9623313
  22.7972920  69.6893313  16.4344823  29.7518761  79.8823968  12.8455019
  30.7070381  79.8208967  12.8562653  29.4531757  78.9730635  12.8566420
  28.8185191  25.4384136   4.3576378  29.3052506  24.9257612   3.7122586
  28.0215240  25.7054448   3.8996810  50.9776831  26.2403083  15.8124959
  50.5974293  26.5926528  15.0078273  50.2307892  25.8866358  16.2954986
  23.4145243  69.6794239   9.1440487  23.7000734  68.9214232   8.6340213
  23.5876019  70.4296997   8.5753995  32.7705254  33.6677067  70.1951182
  33.4714665  33.4129999  69.5950791  31.9665779  33.3905707  69.7556993
  11.1835787  15.1089215  14.7312951  11.9238779  14.8518574  15.2809417
  10.5495283  14.3995857  14.8364210  34.3207628  81.8813382   6.7412180
  34.3186361  82.1446078   5.8209378  33.8483412  82.5814190   7.1917051
  77.5789070  23.0208731   9.8683047  77.8723335  23.9226651   9.9983180
  77.8618288  22.8026152   8.9802998  42.3650694  18.7276793  20.1831579
  42.5909042  19.2831433  19.4370413  41.4079762  18.7198293  20.1948905
  57.2137308  27.8203297  26.0784554  57.0316982  28.6285520  25.5990052
  57.3081970  28.0983877  26.9894934  72.1827159  77.2067836  11.2012148
  71.9425783  77.8618821  10.5459201  72.8601978  76.6804758  10.7766557
  76.9037335  59.3186490  69.7247885  77.4797385  59.6379046  70.4194306
  76.7689888  60.0778178  69.1575677  36.0521483  25.5551434  11.6117406
  35.5509567  25.2071190  12.3492491  36.4246678  26.3734269  11.9401777
  40.6063795  25.9994721  14.3805993  39.8827147  26.2697506  14.9458337
  40.7154369  26.7261267  13.7671566   9.1766037  67.0890025  66.2267516
   8.5526480  66.7532734  66.8703298   9.9292864  66.5014557  66.2937604
   4.4706333   1.9437332   8.8006938   4.2595038   2.8387564   8.5350066
   5.2418250   2.0355926   9.3602085  17.4142385  19.4014466   9.3742073
  16.6055453  18.8939881   9.4430161  17.3869503  19.9981356  10.1221704
  65.8086054  77.5847463  65.1675687  64.9264710  77.4776177  64.8117654
  65.7617395  78.3878283  65.6863109   5.1795258  78.2696418  61.0635404
   5.1711239  78.2709388  60.1063780   5.8160223  78.9448861  61.2983875
  35.9806418  19.0661681  14.4515240  36.9246197  19.0534866  14.2934883
  35.8807564  18.7095749  15.3341877  68.6167717   2.4911727   0.2678531
  69.0055466   3.1923449   0.7907732  68.2557106   1.8832301   0.9130437
  55.3608131   1.9660115   9.9686611  56.1028767   1.6195755  10.4641962
  55.6864929   2.7820098   9.5887780  22.8596687  29.4969416  13.7086368
  22.9972720  28.5776186  13.4802926  22.8893828  29.9588728  12.8708017
  11.7131025  12.1155549  56.0771708  12.0888979  11.8268634  56.9088356
  12.4202520  12.0011951  55.4422764  24.1635449  79.7537804   9.1973484
  23.6640579  79.0655580   9.6367729  23.6421997  80.5464205   9.3244374
  80.9214592  59.8350239   8.7540942  81.2944984  60.1181221   7.9192674
  81.4625263  59.0908766   9.0181398  46.0557318  13.8241255  39.7097230
  46.8883228  14.2862964  39.6126533  46.1729145  13.2806182  40.4888916
  11.6811432  81.7969946  67.6408781  11.7498173  81.7370323  68.5937269
  12.3293032  82.4570803  67.3950936  82.3745346   6.1372209  31.6017675
  81.5976238   5.6525213  31.8805313  82.8315449   5.5381662  31.0114217
  64.6541452  15.2661920  30.4370570  63.9375877  15.2714753  29.8024297
  64.3656778  14.6595454  31.1189651  69.2209356  80.9733252  60.0757460
  69.2840593  80.7806019  59.1402749  70.0385420  80.6393365  60.4447989
  87.9006481  18.9900148  34.0533066  88.5657597  19.5147741  34.4988132
  87.2782898  18.7570500  34.7422457  58.3023159  52.2501640  69.1884072
  58.0571907  51.9126860  68.3268656  57.5547616  52.7836291  69.4582404
  53.0188036  26.1374116  10.8655405  52.6867723  27.0269775  10.9866095
  52.4579000  25.5948877  11.4198744  74.6660988  32.9059343  70.4196478
  74.1738026  32.2333400  70.8902764  74.6555464  32.6162050  69.5074100
  73.2883398  74.0784387  71.8144570  74.0257447  73.5304860  72.0831872
  73.6551182  74.9604682  71.7533792  58.3469868  24.3155575  14.6060658
  59.1720057  24.3804646  15.0870717  58.5192060  24.7571588  13.7744641
  53.8680267  18.9942360  23.7289453  54.4318438  18.2829142  23.4250283
  53.6298752  19.4682026  22.9321575  75.1931231  40.8716988  45.8142654
  75.4222577  40.2066062  45.1651255  74.5171587  40.4589139  46.3517730
  85.7103539  24.1711378  15.6114805  85.2979183  24.6227717  16.3477910
  85.5393505  24.7359872  14.8578656  83.4891694  38.6074973  54.5382230
  83.8456767  37.9895706  55.1764242  84.2298357  38.8188971  53.9699332
  86.5533257  14.0590751  18.0104232  86.5327740  14.8566115  17.4815142
  85.6453705  13.7562656  18.0225635  28.5864575  54.8308638  36.3842940
  29.3692762  55.0863960  36.8722773  28.8824017  54.7601750  35.4767418
  80.8516638  53.8950197  61.4134113  80.7956116  53.7236778  62.3534821
  79.9973195  53.6325161  61.0707514  38.9813948  82.6423740   0.0142514
  38.5731769  81.8211651   0.2884855  39.7300720  82.7455521   0.6016777
  87.3949664  66.3772635  71.3605790  87.8004830  66.7633967  72.1369080
  87.7318327  66.8970207  70.6307815  31.8344082  52.4152605  69.6123258
  32.1297421  53.2818941  69.3331174  31.2283005  52.1361665  68.9260520
   9.2449249  64.6363906  68.8986851   8.7043108  64.0559034  69.4344122
   8.6266340  65.0533442  68.2986022  76.4915364  74.9666266  55.0626878
  76.4631503  74.1566448  55.5719594  76.8868153  74.7116617  54.2290346
  45.3454304  34.2308664  25.7583785  44.8824978  34.9259591  25.2906442
  45.0842381  33.4260011  25.3109431   2.4625990  13.9747584  41.6056108
   3.0718920  14.7124755  41.5779734   1.9250795  14.1369784  42.3808432
  53.3242655  33.9890790  10.5861783  53.4966135  34.8764443  10.2713585
  52.9310894  33.5413146   9.8370779  73.4347622  44.3272505  34.6883814
  73.8107674  44.5200707  35.5472605  72.9281752  43.5263313  34.8230354
  80.1476383  30.5183458  13.0358875  80.5658245  29.7473192  12.6526487
  80.8387280  31.1803222  13.0563986   5.4886164  65.9625558  60.0404422
   5.0272240  66.0912804  59.2117206   4.8841061  65.4461102  60.5734329
  84.6657174  71.7669372  65.7975129  83.9275544  71.5705017  66.3743715
  84.2659037  72.1636681  65.0235705  38.4122491  15.1908398   0.9981080
  37.7826524  15.8759809   1.2226558  38.4385204  15.1939559   0.0412737
  51.2414217  15.1763439  17.4051785  51.1672211  15.5216801  16.5155327
  51.9962978  15.6325686  17.7770090  75.0477402  66.9580917  60.3689424
  74.0983670  67.0760111  60.3370134  75.1799242  66.2482361  60.9973232
  11.6653408  66.2840919  39.7168795  10.8475699  66.7328839  39.5022528
  11.4785589  65.3583316  39.5609609  16.6707003  39.7557354  38.9805794
  16.5302336  40.6872463  39.1502452  16.0555649  39.3106890  39.5634794
   6.3486338  13.2327640   6.7353779   6.5418422  12.3658669   6.3784593
   6.7682409  13.2365346   7.5956959  55.1097631  52.5194550   9.8326439
  54.7919464  53.4044838  10.0113845  55.3890228  52.5455236   8.9174569
  50.2337265  19.9137306  58.3103275  49.3338203  19.8548543  58.6311674
  50.1553106  20.3308201  57.4523544  30.6874878   0.6625367  68.0346937
  30.0002272   0.0390865  68.2696642  30.4454500   0.9675170  67.1602587
  49.5414488  34.2726861  67.8615485  49.7039406  34.6911595  68.7069527
  48.8308589  34.7836695  67.4740074  51.6877777  25.6283332  69.8450091
  52.4913437  26.0944940  70.0756843  51.6727287  25.6360580  68.8879586
  34.7651148  26.2182617  34.4301367  35.6968617  26.0161400  34.3451238
  34.3208933  25.4036093  34.1951036  34.1499186  46.3627434  13.5856616
  33.3701849  46.8987465  13.4409285  34.6159863  46.8046618  14.2953944
  56.4582474  68.5563269  58.3051205  56.5706093  68.6406234  57.3582792
  56.0869438  69.3953517  58.5778904  57.3878114  63.2385735  54.0616052
  57.9117076  63.0879859  53.2747845  56.5914504  63.6624197  53.7416117
  48.0978853   9.3738176  71.2595148  48.5681374  10.0715114  71.7159326
  48.5443766   8.5700895  71.5257885  72.9357903  57.8940586  52.8048353
  72.7990382  58.4997098  52.0763318  72.5713150  57.0639233  52.4978105
  72.3801844  83.2325176  55.3377537  72.9943602  83.3139233  54.6080999
  72.7867548  82.5933174  55.9228663  51.3536310  14.4930410  30.7759619
  50.9231567  14.3820322  29.9282598  50.7205868  14.9793100  31.3041973
  15.8058262  31.9717097   1.6003869  15.2328002  31.2096977   1.6853009
  15.2171314  32.7231503   1.6711494  39.0754533  53.0420303  11.6152549
  38.8768053  52.3966885  10.9367931  38.7902856  53.8764763  11.2429535
  73.8973358   3.4677550  14.5432842  74.3177131   4.3276897  14.5484734
  72.9775253   3.6519489  14.3528819  72.0509291  21.9801927  28.1926441
  71.6883945  22.8617048  28.1046915  72.9867458  22.0880413  28.0228043
  48.6333799   4.9136961  37.0592880  48.0138826   4.3523988  36.5930271
  49.4936371   4.5586032  36.8354726  52.4469025  41.8955615  13.9921081
  53.3949406  41.7873910  13.9162266  52.0832951  41.0978988  13.6077189
  42.9009516   5.8766319  38.3428685  42.0449144   5.4894305  38.1598250
  43.3334334   5.9158422  37.4898402  43.7328703   4.4636108  54.3779234
  43.0706055   4.4061233  55.0666432  43.2349236   4.6487809  53.5816841
  38.9002442   6.2113315   6.2643683  39.7759771   5.8355272   6.3543284
  38.5366416   5.7879287   5.4867083  29.2079282  28.0977607  13.9736366
  29.7584343  27.3746777  14.2741776  28.3919787  27.9973960  14.4639277
  73.0181932  30.8290625  28.2658100  73.2036161  29.9178195  28.4927154
  72.2510958  30.7824731  27.6951766  35.3439403  43.8345432  25.3755784
  35.8298445  44.2286825  24.6511555  34.7996879  43.1642866  24.9623299
  45.0038481  52.9798174   9.9731910  45.5326271  53.7165976   9.6669549
  44.6571445  52.5849390   9.1731286  65.8105278  33.1995225  22.3108625
  65.3547525  32.7059460  21.6290379  65.6884193  32.6795149  23.1051660
  71.6954272  47.9942505  65.4936360  72.2759287  47.5398843  66.1042122
  72.0094149  48.8984875  65.4925327   1.1539568  54.2719499  50.8782355
   0.2179207  54.1539947  51.0399477   1.3922180  55.0388841  51.3990776
   2.2053940   4.5408345  71.0378374   2.8058941   4.0883638  70.4454691
   1.8148167   3.8420869  71.5626513  45.1568890  22.9850268  12.6973927
  44.3130589  22.5432038  12.6026392  45.0127745  23.6308336  13.3890533
  44.1068459   7.0691252  21.3127947  43.3865881   7.5214535  21.7519569
  43.9924860   7.2798890  20.3861165  13.6947083  13.8566566   0.3953864
  13.2161951  13.3863568   1.0780830  13.5380054  14.7813499   0.5867429
  69.8848009   9.6075082   4.2832404  70.3092289   9.5416093   5.1386642
  69.7501087  10.5463839   4.1543883  77.3413985  76.8917135  59.0400068
  77.8660958  76.4182429  58.3944480  77.5946181  76.5103583  59.8806505
  48.4038305  19.7595263  12.9342330  49.1876221  19.2315710  12.7820265
  48.0311155  19.4074214  13.7425268  36.6845798  17.6152217  36.9425678
  37.4378514  17.0279253  36.8801665  36.1917329  17.4590528  36.1369967
  79.8517990  64.9512529  16.3374114  80.8074760  64.9994612  16.3616407
  79.6645880  64.1630650  15.8275640  59.7936201  46.6100502   6.5171874
  59.8321104  46.8617821   5.5944848  60.5912399  46.9765425   6.8989152
  19.8081613   7.5830132  10.7343626  20.7537484   7.7302659  10.7547152
  19.4288087   8.4294343  10.9707832  26.3917899  11.7833900  40.1058674
  25.6854677  12.3018730  39.7204876  26.6412115  11.1683333  39.4161367
  41.3778067   7.8178817   9.5086354  41.9478464   7.3621553  10.1279902
  41.7980957   7.6907301   8.6580926  70.9584045  43.0555725  12.6202869
  70.7938766  43.6081600  13.3843613  71.6074800  42.4192047  12.9202294
  82.8645706  25.2459311  15.1256943  83.6877537  25.1673245  14.6435940
  82.6512718  26.1781740  15.0850189  33.8205075  23.4902382  34.2271614
  33.7303138  22.8287816  33.5411811  34.4409108  23.1083441  34.8480392
  64.0771818  20.8940768  31.9086909  64.0313339  19.9642372  32.1312451
  64.0870333  20.9110928  30.9516907  71.6638994  16.9181502  25.1538396
  72.5167465  16.4941633  25.0583553  71.7827988  17.5354862  25.8756375
  48.8611269  40.0409555  16.2744641  49.2450333  40.8695078  15.9874976
  49.4367409  39.7412419  16.9780791  60.3989570  23.4226863  69.5405177
  59.7771041  24.0954808  69.8177835  59.8570864  22.7531497  69.1229929
  15.8343806  51.7342214  57.3227434  15.3717913  51.3399516  58.0621998
  16.2942709  52.4840597  57.7002041  49.7687132  67.7030852   3.1904417
  49.3003924  66.8744638   3.0889860  50.3882534  67.7189293   2.4609536
   8.9375557  67.9165677  57.9647951   8.2736077  68.2437138  57.3578529
   8.4746660  67.8204707  58.7970976  12.2292341  78.1166558  64.7294734
  13.0056395  78.0037765  65.2778242  11.6927971  77.3452262  64.9121223
  13.1559736  68.9636817  18.5383248  14.0320952  68.7816003  18.8781691
  12.7901871  69.6032408  19.1493845  75.0944090  13.2743406  12.9443407
  75.0974941  14.1491747  13.3327854  74.3305349  12.8442836  13.3287549
  72.9587030  12.5946295  21.4888024  72.6700640  12.2354174  22.3277807
  73.2147264  13.4949446  21.6890955  67.7409983  32.5851035  15.0925696
  67.7789879  33.5128379  14.8599827  68.4245682  32.4757218  15.7536292
  40.1271231  81.6913864  13.5191143  40.1997406  81.0418074  14.2184031
  40.5866511  81.2974268  12.7775896  69.9512815  19.7857535   6.3660467
  70.5769157  20.2655745   5.8232909  70.4927492  19.1983628   6.8933183
  16.7488563  29.1681194  56.1924934  16.0722876  29.1089272  55.5179691
  16.7767942  28.2937932  56.5810823  74.4025128  78.9290289  31.9550983
  73.6337607  78.9589695  31.3855736  74.8726456  79.7410325  31.7657463
  19.5575012  55.3041248  69.6646201  19.6331181  54.5926468  69.0287636
  18.9137663  54.9903254  70.2997346   6.4292928  45.8351803   3.1040379
   6.3651583  46.5018988   2.4202225   6.4065954  46.3295078   3.9234018
  46.1053991  33.2522511  21.4653301  46.5032434  33.9182210  20.9045792
  45.5284882  33.7444425  22.0494103  52.8386021  30.7792902   2.0105550
  53.6581612  30.3634071   2.2781330  52.9039049  30.8463383   1.0579419
  50.6578398  13.8185656   4.8033521  51.3501120  13.2616496   5.1594871
  50.8219433  14.6798325   5.1874340  34.1619706  50.0371552  35.4688120
  34.9696279  50.0749397  35.9811544  33.5531878  50.6068277  35.9390140
  36.3135178  54.4571355  23.9766908  35.7201655  53.7217334  23.8238883
  35.7473881  55.1588944  24.2980337  27.3100788  78.5190731   4.9552086
  27.8829605  79.2242598   4.6539617  26.4585049  78.9384291   5.0784761
  53.2602215  18.9193630  15.0041294  54.0990543  19.3580222  15.1461470
  52.7675676  19.0781319  15.8093107  50.5853748  13.0959225  19.2177963
  50.9829283  13.8722754  18.8235140  49.9831724  12.7694440  18.5492146
  51.1102200  37.0521545   8.6079264  51.4049006  36.4995313   7.8840458
  51.5051365  36.6584849   9.3859357  37.7394772  35.9652734  23.5969162
  36.8610573  36.3319373  23.4960604  38.3188200  36.7272377  23.5943294
   0.5297777  29.0676713  24.6976137   0.3619215  29.9935746  24.8729897
   0.4708502  28.6469150  25.5553555  72.5912476  56.0465860  23.6697340
  73.5483170  56.0331154  23.6779356  72.3662138  56.6427326  22.9554510
   6.3308062  32.3829893  42.4067203   5.7283034  32.8785561  41.8520729
   5.7659449  31.9499145  43.0467264  48.9977646  15.8090746   7.7025777
  49.8825550  15.5899012   7.9947132  48.4414625  15.1391983   8.1001008
  66.9079781  23.0485702   9.8914427  67.6427269  22.6124787  10.3229535
  66.9393444  23.9484572  10.2161753   6.5877077  20.4660416   0.3197819
   5.6402895  20.5412531   0.4336846   6.7385980  19.5313179   0.1792236
  24.2450268  59.4148043   5.0600231  23.4707243  59.2851737   4.5124054
  24.6906120  60.1671341   4.6705538  79.8202848  34.0142322   0.2468373
  80.5212116  33.4724069   0.6092750  79.0172958  33.6433148   0.6127079
  70.1768017  13.7978745  10.2233052  69.8754311  14.5175409   9.6687913
  69.4208574  13.2145584  10.2905500  31.6748840  79.4399941  15.6069803
  32.3336918  80.0098830  16.0037565  30.9808476  79.3828052  16.2636936
  30.5300260   8.3510953  16.0427904  30.2278781   7.5391424  15.6357634
  30.4032040   9.0186226  15.3685832  43.2502174  31.4364505  18.4425914
  42.6591063  31.5499926  19.1868520  44.1182137  31.3510942  18.8369632
  44.2249870  35.2699566  13.6300135  43.7543917  35.4490542  14.4440746
  44.9010944  35.9463739  13.5904205  72.8363793  29.3044965  64.4015596
  72.3747818  28.7370447  65.0189386  72.3136799  29.2624752  63.6007802
  73.8840914  32.5103593  25.5862927  73.8461256  32.6299524  24.6373510
  73.5538054  31.6234064  25.7293224  28.7139750   1.5427166  32.0872712
  28.8211083   1.1922999  31.2029839  28.8380075   0.7867235  32.6611376
  63.2544041   3.8372228   6.8448561  62.6258230   3.8079128   6.1235654
  62.9221630   4.5227864   7.4243820  70.7348967  19.2019272  21.1479115
  71.3859844  19.7076917  21.6342449  69.9854755  19.7917962  21.0663724
  26.0206093  69.5538883  63.2087998  25.8894791  70.5020622  63.2064865
  26.9537033  69.4406943  63.0278156  23.1154139  13.9428092  55.0139789
  23.2533104  14.8051120  55.4059605  22.2784073  13.6477710  55.3725986
   7.9934277  82.5516180  59.3382959   8.6999954  82.5658135  58.6927001
   8.3802809  82.9354195  60.1252357  53.5636074  73.4671554  16.5519845
  53.0982525  72.7261355  16.9400072  52.8718598  74.0784421  16.2989128
  77.6117802  33.2938242  23.4606338  77.1339083  32.4667692  23.3985686
  77.1803761  33.7668896  24.1722012  19.9875677  21.9343758   0.6259385
  19.5836365  21.7917800   1.4819397  19.3358183  22.4335480   0.1337174
  63.6155510   7.4779797  46.6540146  63.5504293   8.2597774  46.1055756
  63.1946802   7.7269298  47.4768925  31.0102333  75.0867657  45.6587903
  30.5093064  75.1525954  44.8457877  30.3583969  74.8678903  46.3246910
  46.4371824  36.7029929   2.8147534  46.8221092  37.0854330   3.6032987
  45.9069014  35.9739280   3.1364626  86.6606038  60.7371120  58.8119737
  86.9606965  61.4882116  59.3238584  87.0459740  59.9787776  59.2508952
  11.3130713  54.7425556  14.5650995  10.4934335  54.3809843  14.2279196
  11.1209095  55.6673002  14.7205126  85.8634663  55.3641891  40.9494543
  86.0665226  56.1232996  40.4028749  85.5199718  54.7133398  40.3373718
  22.3462231  19.5655013  45.5411045  21.4169151  19.4982721  45.7604019
  22.3592407  19.7089292  44.5947997  82.0443249  53.3540249   9.6245319
  82.4870300  52.5936222  10.0014102  82.0588303  53.1961060   8.6805594
   2.1953596  73.9349512  58.9224247   2.7865853  73.7852721  59.6601788
   2.5154795  73.3492903  58.2363073  87.3162262  73.1941942  56.4607040
  86.7495482  73.8709311  56.8310217  87.9020445  72.9532699  57.1783392
   1.1703131  18.6570859   2.8363305   1.7293665  18.3890367   2.1070558
   0.7026598  17.8598523   3.0852258   4.8404946  46.1637057  58.4844915
   3.9143147  46.3798396  58.3762829   4.8491492  45.2199308  58.6440067
  61.9674523  17.5934125  70.0760126  62.2158653  16.8200875  69.5695610
  61.9370110  18.3014632  69.4326071  84.4398785  43.1761599  12.0633423
  84.2810440  42.5946379  12.8068721  85.3635120  43.0445099  11.8493402
  47.9612953   3.6973144  62.6071666  47.9609949   3.4768726  61.6756968
  48.6465246   4.3596936  62.6963131   5.3911795  69.1359524  63.0940710
   5.9210934  69.6954326  63.6618791   5.5221619  69.4934229  62.2158394
  13.2183286  62.3746634   8.4060687  13.9484712  62.8934717   8.0685079
  13.6269686  61.7420912   8.9969134  29.2811074  72.4180345  62.1771012
  29.7958149  72.9515580  61.5715782  29.3450894  72.8771118  63.0145888
  35.7605614  81.0888485  26.3707868  35.1364102  80.7626228  25.7225220
  36.3120331  81.7020516  25.8848945  67.9074430  31.0762763  21.3369346
  67.8278303  32.0277858  21.2696886  67.0051527  30.7649112  21.4087367
  79.5411539  46.9720078  15.1016390  79.8129988  46.5521193  14.2855346
  80.2813816  46.8441677  15.6949019  15.3410591  42.9205125  69.4383163
  14.8923172  43.7625409  69.5148199  15.6796087  42.7488252  70.3170316
  61.9598389  13.6247766  27.5449109  61.2509727  13.0960941  27.9112887
  61.9720316  13.3977187  26.6151094  71.9361210  51.6970110  18.0195940
  72.0692539  50.7934332  18.3060539  72.7097178  51.8977118  17.4928141
  63.2667477  17.7649118  44.4987766  64.0242035  17.1935416  44.3721573
  62.6571304  17.5116111  43.8056414  58.2241774  58.0353737  12.5840044
  59.1519260  57.8485250  12.7275229  58.1317997  58.0724478  11.6319942
  65.3540945  12.0344758   2.7384540  65.6839991  11.1363053   2.7645940
  64.5482254  11.9787824   2.2249313  83.6640875  77.6630668  70.1605978
  83.9041417  78.1483130  70.9499909  82.7172224  77.7814464  70.0853467
   9.5740244  34.5292664   8.4643054   8.8577673  35.0100279   8.0494821
   9.9921343  34.0551257   7.7455485  26.6154637  49.4044338  71.5310826
  26.4338936  48.7282399  70.8783757  27.5057759  49.6951763  71.3334608
  50.4011345  55.0473356  16.2491369  50.1951265  55.9439707  16.5134048
  50.4080868  55.0752306  15.2923691  45.2816469  18.4037973  69.9365060
  44.9321348  19.2759372  69.7536239  45.4393894  18.0229856  69.0726010
  20.9513494  38.4525013  11.6666889  21.1491129  38.4192133  10.7307339
  21.3524267  37.6604819  12.0245540  23.8982231   2.4340631  56.8959813
  24.1334707   1.9368459  56.1126141  23.8916380   3.3467008  56.6073946
  57.9129648   7.6489395  10.1277137  57.2404194   8.1927443  10.5378270
  58.7392998   7.9953361  10.4644823  63.8877964  69.2027807  34.6821904
  64.3880939  68.6346245  34.0964174  64.5526028  69.6926928  35.1661873
   2.1900191  78.7480406  69.5755437   2.6808085  78.1463174  70.1352633
   2.6852669  79.5663742  69.6114318  42.9625463  67.3255634  21.7003655
  42.7679539  67.5739717  20.7966733  43.1053257  66.3797951  21.6633439
  63.8051987   9.0200996  13.6097121  63.1951952   9.5396745  13.0861008
  63.3054352   8.2424313  13.8581049  46.0170633   8.4751941  43.8427822
  45.4857857   7.8763057  43.3180801  45.5073387   9.2848731  43.8716666
  15.3142054   1.7179872  46.8221728  15.4784710   2.5163699  47.3240082
  15.5267985   1.9545652  45.9193627  61.1637306  37.1759295  46.6525793
  62.0888567  37.2365594  46.4144564  60.7353497  37.8477478  46.1221266
  70.9998035  25.0748467  14.8885167  70.4415035  25.3825951  15.6025326
  71.7581415  24.6887517  15.3268003   9.1303083  53.0129290  15.9843624
   9.9436971  53.4007597  16.3072038   9.3367883  52.0855141  15.8681405
  36.2765391  31.8203641  69.4129489  35.8575232  31.0824157  68.9701219
  36.4884932  31.4873983  70.2849811  49.0319872  47.4072981  27.4344492
  49.3968344  47.4244833  28.3192205  49.7815084  47.2182131  26.8699241
   7.1278293   6.1275960  63.4821389   6.7862160   6.7458965  62.8361986
   7.6861317   5.5369855  62.9764627  64.7040939  34.5749712  17.5727141
  65.0783777  34.8691416  16.7422891  64.9038315  35.2799988  18.1885648
  18.9912245  43.2619238  57.0358324  18.7508508  42.8442335  57.8628635
  18.9301512  44.2002630  57.2147799  44.9287684  82.0454507  23.6360002
  44.7229416  81.1282104  23.4556174  45.8581001  82.1288597  23.4224176
  84.4279671  47.6377964   2.4924797  83.8927174  46.8465662   2.4316834
  84.0820599  48.2139206   1.8108159   4.9734392   2.5963017  22.3405051
   5.1321449   3.4457871  22.7521229   5.2665891   1.9570252  22.9898262
   2.8874418  34.3426228   4.6204492   2.4003717  33.7066317   5.1443821
   2.3067972  34.5430231   3.8863355  69.9041510  58.7973738   0.8232131
  70.8257771  58.5433149   0.8710067  69.6434164  58.5853243  -0.0730494
  26.5816242  16.2360431  64.6519379  26.4744551  16.9316865  64.0032284
  26.0543091  16.5211393  65.3981881  32.6441795  65.0384441  54.0225315
  33.1623633  64.2453054  54.1590929  32.8238566  65.5775145  54.7928238
  66.7974329  16.5384471  31.4031625  65.9632397  16.4866185  30.9366202
  67.1304941  17.4129713  31.2018919  86.9464819  67.4471812  42.2733967
  86.4686577  68.2753352  42.3189966  86.2797587  66.7773155  42.4250237
  65.7441044  25.2247214  16.6391003  65.8211136  25.1925373  15.6855464
  65.4318094  26.1103654  16.8244135  47.8643639  23.4602309  70.1371339
  47.9748470  22.9770137  70.9559925  48.6897070  23.9316608  70.0239980
  35.5737557  58.3335928  45.8198134  34.9923863  59.0937237  45.7986776
  36.2503304  58.5314385  45.1722519  68.8476562  33.3484197   9.5641464
  68.0884027  32.9108357   9.1790694  68.9514160  32.9371715  10.4222500
  13.2454712  14.1212798  69.5286777  13.2486660  15.0374843  69.2515753
  12.9904968  14.1508342  70.4508196  11.6995031  38.4029533  69.2764680
  10.8456738  38.7658645  69.5120543  12.1814901  39.1437961  68.9089437
  60.1980431   8.4357358  29.5697729  59.6583302   7.9636193  30.2038471
  59.7809918   9.2937947  29.4921057  37.7349264  28.4879781  70.7076060
  38.5854418  28.0488445  70.7113520  37.8796656  29.2946054  71.2022117
  69.3065834  18.4315550  30.1180792  70.0048399  19.0412903  30.3565907
  68.4987736  18.8906956  30.3480172  59.7261524   7.7065575   4.6245149
  59.8523283   7.1276498   5.3762978  60.3127718   8.4447157   4.7895178
  26.9934446  31.3368751  52.8273742  26.7540056  30.5791808  53.3610455
  26.6799671  32.0905925  53.3272437  66.3822269   9.5893425   3.2089958
  66.8349504   8.7622380   3.0441529  66.5173244   9.7545028   4.1421103
  47.9331446  28.3581471   5.0389165  48.6832571  28.4282517   4.4484502
  47.2885227  27.8487444   4.5477936  43.2800913  62.0607805  23.2903147
  42.9507828  61.9937754  24.1865849  42.6925230  61.5060949  22.7771664
  63.7087982  72.7335862  49.6204750  63.0019085  72.7449254  48.9751737
  64.3456762  73.3667425  49.2892138  23.1006319   4.3521835  71.0320901
  22.6049788   4.9641324  70.4879529  23.6024410   4.9113513  71.6251741
  67.7410603   4.5683867  16.4422441  67.5125551   5.3101498  15.8820617
  68.2007122   3.9621910  15.8613133   2.8484461   7.4999642  41.2221384
   2.3299143   8.2895291  41.0674000   2.3494646   7.0099992  41.8757343
  29.7734332  12.0816767   6.9729412  29.5287395  12.9912436   6.8025202
  29.0499067  11.5677738   6.6142696  21.8632443  44.8725654  59.6533875
  22.5662739  44.7784854  59.0106325  22.3152096  44.9412585  60.4943637
  67.6676846  65.3626490   8.2129312  66.8366432  64.9071455   8.0783266
  67.8832722  65.2012062   9.1314578  27.3837549  30.1419355  67.0895071
  27.6104195  30.0568153  68.0155794  28.1402857  30.5774690  66.6968105
  23.2244856  80.6461698  13.2648075  22.9417688  79.9406138  12.6830053
  23.0631621  81.4470529  12.7660167  23.0292954  52.0200662  46.7127482
  23.6278786  51.8463830  45.9862773  22.5704254  51.1910550  46.8484346
  22.6382763   5.2695228  65.9941707  22.0771296   5.9693147  65.6600396
  23.3093483   5.1584674  65.3207050  23.0109085  82.0023302  46.3632504
  22.4062981  82.0180277  45.6213419  22.6632656  82.6565031  46.9694154
  12.1099111  55.3455448  28.9102530  11.8167230  56.2480497  29.0357685
  11.4132997  54.9366426  28.3966780  47.6871352  65.9782891  71.7853846
  47.0416193  66.6481094  71.5598086  47.7544837  65.4362087  70.9993540
  40.8637524  22.9444122  18.5794151  39.9237919  23.0012035  18.4077144
  40.9304905  22.4152994  19.3742847  21.6490173  46.6728354  19.9225950
  21.9321895  46.2384224  19.1180253  21.7404270  47.6070690  19.7352934
  53.8862259  17.5069715  54.0203921  53.9010746  17.9285241  53.1611471
  53.0057270  17.1382571  54.0911035  64.2097855  73.3260012   4.2166156
  64.5563459  73.5919809   5.0683081  64.5229197  72.4289989   4.1001454
   5.2706358  61.9454670  36.9637704   6.1399099  62.3321438  36.8585396
   4.8618719  62.4607611  37.6591921  73.1996822  57.6520395  16.8382633
  72.5572157  57.1141481  17.3010182  72.7022552  58.0652523  16.1325336
  65.6480646  27.2955751  10.0479007  65.2886152  28.1496668   9.8079914
  65.0105286  26.9313335  10.6619918  82.9715919  45.2838135   2.6573133
  82.8254128  44.6091795   1.9941889  82.1491718  45.3219223   3.1455734
  72.2091484  12.8945875   1.7948765  72.9436111  13.1101429   2.3696214
  72.6196671  12.5967968   0.9830716  74.2818117   0.6263713  33.1018639
  74.7577858   0.1629556  33.7910151  73.9599752  -0.0667091  32.5254154
  33.4765591  71.7452697  70.0091760  33.9915909  70.9971790  70.3113942
  32.7826466  71.3583307  69.4753353  40.5466509  23.1843233  15.3696036
  39.8019862  23.7643886  15.2107620  40.2312660  22.3157954  15.1197505
  42.3218901  13.5016443  71.8098387  43.0691702  12.9035665  71.7992476
  41.5924055  12.9679252  72.1248477  33.7888891   8.9646531  61.9681196
  34.0792019   9.5941306  61.3080351  33.6185772   8.1620408  61.4751355
  70.6578350  36.5055323  62.9478693  71.0899973  36.6296887  62.1028519
  70.7778168  37.3390126  63.4030008  86.9542694  35.3973794   2.6481202
  86.4887333  36.1774778   2.9497045  87.1158123  34.8919153   3.4447640
  81.7147446  43.7852383  11.8708611  81.3711739  43.1784201  12.5265801
  82.5464153  43.3976126  11.5982771  36.2296748  47.0140648  19.2420018
  37.0595551  47.1094370  19.7093701  35.5633163  47.0443439  19.9285018
  63.2446146  27.6243591  30.1523399  63.0719519  27.1466041  29.3410635
  62.5177908  28.2429314  30.2253509  47.6682043  44.3954659  17.5957167
  47.4146080  43.5425568  17.9485047  48.3007336  44.7375154  18.2274973
   6.9921173  73.1100802  43.2771294   6.9873728  72.1786742  43.4977905
   6.3031401  73.4890465  43.8229577   3.0275740  80.0349502  62.0216058
   3.0811800  80.5601577  61.2231593   3.6885609  79.3526272  61.9042949
  34.2967796  55.9941626  17.3015833  34.8069167  55.9220982  16.4948630
  34.8463774  55.5848265  17.9698801  35.4263479  23.4011317  60.5209903
  34.5574982  23.0413724  60.3423659  35.2705462  24.0983535  61.1580507
  15.6393182  52.5025749  47.4328423  16.5420282  52.2350597  47.2602654
  15.5365372  52.4022532  48.3792067  43.9537191  52.9541206  16.4519250
  43.0048227  53.0580902  16.3810754  44.3068314  53.8125992  16.2183583
  27.5525686  16.5814710  45.7747889  27.1999952  17.4543178  45.9481764
  28.3818456  16.5589285  46.2523079  57.4289513  13.4290361  18.4092510
  57.6562548  13.8860679  17.5995052  56.5015602  13.6249554  18.5426307
  55.3799152  35.3770328  18.9291978  54.7931337  35.5611849  18.1957078
  55.4617548  36.2139845  19.3864143  45.2518398   6.2028457  60.1181881
  45.1078541   6.1666156  61.0638027  45.7297785   7.0205690  59.9798457
  80.2446120  58.7126188  62.2534726  80.1205389  58.2573883  63.0863015
  80.6132119  59.5617072  62.4972234   5.0312349  43.4061718  59.2972851
   5.9867212  43.4159946  59.2407656   4.8471281  43.1161642  60.1907206
  70.6792355  24.3837333  28.2013583  70.7580423  25.2889085  28.5024905
  69.8973322  24.0517569  28.6425424  71.6373770  63.0159692  68.3530767
  71.6126149  63.5625009  69.1385214  70.7201235  62.9266481  68.0944268
  71.0475628  77.6840619  55.8475201  71.5873043  78.2242278  55.2703444
  71.5513604  77.6234750  56.6591529  55.4572739  74.5096211  48.7319772
  54.5246948  74.6443395  48.5635487  55.6756748  75.1573853  49.4020025
  33.3805115  36.1634542  27.6828329  33.6519987  36.9564725  28.1450550
  33.8288338  35.4532434  28.1419985  71.5224171  54.9490786  19.9408722
  71.0767937  54.4412994  20.6189680  71.6016102  55.8275652  20.3126550
  69.9312155  80.6947426  54.2976717  69.2783873  80.9517459  53.6465220
  70.6447785  81.3221840  54.1820018   5.9922811  37.5879931  12.7314627
   6.1965296  38.5171986  12.8367698   6.8447038  37.1661210  12.6235855
  40.5670418  64.3187455  49.0017144  40.2019085  64.9559597  49.6156089
  39.8074593  63.9805822  48.5274784  58.3022738  44.1722393   6.3920289
  58.0134487  44.1479301   7.3042899  59.0073776  44.8194981   6.3812035
  67.3536808   1.1473800  58.3114724  68.2236130   1.0678340  58.7027852
  66.8113644   0.5332185  58.8063757  77.0029020  21.0507870  13.6940038
  77.6331234  21.0264111  14.4140446  77.4112606  21.6148734  13.0372822
  39.7869141   5.9390975  57.6576583  39.3535215   5.6828119  58.4717337
  40.3167469   6.6993667  57.8974537  65.6539202  13.4786677   5.2390289
  65.7733536  12.6232517   4.8264396  65.4172754  14.0615916   4.5176202
   2.3926844  68.8919858  36.9084803   1.7288412  68.9256195  37.5972597
   2.6544966  67.9719762  36.8728868  -0.3337990  52.7553086  44.6122257
   0.1702656  52.1177320  44.1066114   0.3111281  53.1708519  45.1846091
  75.7602262  43.5220575   8.8883591  76.2575054  42.8406668   8.4359771
  76.0450888  43.4610653   9.8001510  74.5154558  16.4540054  68.4577779
  75.2058218  15.8063937  68.3155672  74.8980604  17.0811273  69.0714277
  15.1022877  52.5607924  50.1753203  15.0113453  52.8469686  51.0842006
  14.2064871  52.5451044  49.8383824  36.2943012   2.9037954  45.2416937
  36.8589718   2.9598952  46.0125582  36.4921219   2.0478250  44.8616759
  69.3430376   4.5223296  27.4450755  69.8093939   4.0623638  28.1430554
  68.7498569   3.8656491  27.0801973  85.1302528  25.2974153  13.2402444
  84.6520519  25.0777769  12.4406707  85.5044460  26.1610293  13.0659497
  87.6779556  28.8796091  17.6212537  88.1038857  29.5855236  17.1349394
  87.5233173  28.1977606  16.9674969   5.7921805  71.6438870  66.9284914
   6.5845026  71.7907695  67.4451025   6.1053051  71.5624813  66.0276256
  53.4162235  30.4374981  16.0094059  53.6319113  30.9661055  16.7777050
  52.4891710  30.2250433  16.1174321   6.0373518  43.6579180  30.4936814
   5.7355806  43.3740187  31.3565636   6.9234201  43.9864588  30.6459665
  37.6845438  75.9337059  24.2565060  38.2586271  76.1815813  23.5317874
  38.0531914  75.1134160  24.5843101  54.8505545  29.4387031  13.4400535
  54.3710709  29.6754599  14.2339528  55.3362608  28.6495495  13.6799634
  22.4465299   6.6754246   8.0266428  23.1534958   7.3091120   7.9047000
  22.1590543   6.8081820   8.9299506  40.1269974  64.3209152  45.7456414
  40.9931912  64.1820244  45.3627006  39.7255005  64.9914316  45.1929705
  42.5522566  59.6563387  21.4714980  41.7091799  59.9747229  21.7941189
  42.3772192  58.7585354  21.1894703  69.0486813  76.6454744   4.4492111
  68.6296272  77.2771502   5.0336885  68.8595629  75.7934189   4.8422313
  62.7995579  47.8713350  40.5283753  61.9553940  47.5538317  40.8490126
  62.6451604  48.0716143  39.6051852  57.0351362  57.8340626  15.8703125
  56.3573742  58.0300283  15.2234209  57.5930214  58.6118555  15.8758271
  67.3477411  28.2468176  45.3785706  68.2761812  28.0292797  45.2954531
  67.1278667  28.6778426  44.5526743  45.6222326  26.9057132  70.8408966
  45.8130295  26.1082698  71.3347767  45.3135473  27.5275089  71.4999236
  59.9269230  22.5744058  57.5872485  59.8438961  23.3699323  58.1130580
  60.6784374  22.7407457  57.0182328  34.0143490  26.4842749  14.7988105
  33.6119938  26.5500426  15.6648445  33.2811403  26.5576482  14.1878664
  76.4282639  44.9031688  60.4526595  76.7234356  45.2916671  61.2761728
  77.2096760  44.4844199  60.0917296  49.1654284   3.7241317  52.2971122
  48.5110075   3.6502649  52.9917435  49.8976071   4.1856624  52.7059392
  61.5878725  31.3111281   5.1249427  62.2991991  31.3852835   4.4887447
  61.3418722  32.2162843   5.3157550  20.5537094  40.0187100  59.1728501
  20.0561680  40.8346358  59.1185347  21.0860504  40.1149092  59.9625270
  51.1513073  29.3896581  52.7347116  50.4530747  28.7353088  52.7117185
  51.0658867  29.8009444  53.5948150   0.0555471  12.5837613  57.9492990
   0.5291037  11.8352557  57.5863628   0.7131151  13.0604316  58.4558825
   1.2395021  55.4920101  33.1989098   1.6079733  56.1608601  33.7760544
   1.5602037  55.7244825  32.3275089  51.1691999  39.9755931   7.7126133
  50.9631872  39.0902615   8.0125761  50.9080744  39.9833083   6.7917526
  62.3706293  22.3079848   7.8854936  62.2361326  21.4207792   8.2186770
  62.7901745  22.7743125   8.6085075  87.7192402  70.9160709   3.7237963
  87.1171474  71.6252661   3.4985146  88.5228634  71.1235952   3.2469642
   1.7817988  70.3917794  65.1794307   2.1799721  70.4044585  66.0497920
   0.9824862  70.9098152  65.2741442  18.1581511  71.2583260  61.4581243
  17.6182856  70.5139689  61.1922113  19.0171732  70.8778552  61.6413049
  10.2926554  54.4395403  52.4672560   9.4542755  54.5413784  52.9177884
  10.4984488  55.3163735  52.1431498  62.1241093  53.6740303  19.7616816
  62.5551844  54.4541597  20.1106858  62.4367237  53.6111736  18.8591564
  86.3846605   0.6845090  15.3896403  87.2701233   0.4952619  15.7000780
  86.0807674   1.3968465  15.9521878  85.0706768  68.9613390  20.7471943
  85.3628540  68.9403725  19.8359179  85.8502102  69.2118979  21.2429523
  39.6957094  20.4208327  70.1864250  38.8159687  20.0506688  70.1138827
  40.2714665  19.6589757  70.2520668  57.3272354  16.7534543  61.7400483
  57.0480950  16.0352899  62.3079805  58.2554943  16.8713618  61.9417123
  74.3938763  21.8173934  64.9659197  74.5354111  21.8697358  65.9111504
  75.1205380  22.3121167  64.5871786  55.4673512   0.0912238  51.1590664
  54.8726017   0.7748128  50.8505027  56.1939366   0.1068164  50.5361168
  65.1395464  55.9533358  37.3988128  64.4767523  56.1732769  38.0534601
  65.4137039  55.0645161  37.6247907  59.4318421  11.0455180  66.1166249
  58.6827500  10.4975463  65.8824645  60.1370270  10.7448102  65.5434684
  20.6078520  11.4352986  23.8880682  20.7938327  11.1975381  24.7964263
  21.2006321  10.8894631  23.3714390  29.1629185  82.2260861  64.8832903
  28.7715878  82.3531966  65.7475434  29.7116913  82.9994206  64.7527633
  73.6298847  55.5118513  44.9988127  73.6450672  54.6735382  44.5370483
  74.5445442  55.6751204  45.2289724  64.2381954  62.3839283  18.3345020
  64.8300457  62.3008251  19.0821910  64.7906303  62.7178192  17.6277006
  39.0983708   9.3998815  48.9480821  38.8830311   9.8819543  49.7464959
  38.9577753  10.0307800  48.2420866  74.5149136  70.6170797   2.5860831
  74.2756701  71.3296890   3.1786928  73.8795948  69.9261141   2.7736121
  83.4616375  27.0753765  30.2253866  83.5401154  27.7340674  29.5353150
  83.0698681  26.3181376  29.7902608  85.0609629  80.5791215  63.8671218
  85.6378739  80.9558920  64.5315371  85.5345957  80.6973581  63.0437605
   9.7481558  64.3093491  41.9518661  10.0366804  63.9410877  42.7869558
   9.9586508  63.6341524  41.3068533  34.4844658  22.9676200  71.3155009
  35.3246815  23.4043838  71.4551568  33.9219410  23.3014060  72.0143439
  82.1367550  60.9958172  17.2209239  81.2657738  60.6010675  17.2633517
  82.2335148  61.4528847  18.0563629   9.0647854  65.5193834  62.1144126
   9.9531807  65.2504019  62.3481629   8.5814060  65.4927925  62.9401646
  79.3546867  29.2463064  18.4739327  79.6205997  30.1192284  18.7629461
  79.7332048  28.6534262  19.1231203  39.1832829  29.0637183  17.7486074
  38.9649677  28.1319141  17.7310181  40.1331139  29.0894032  17.6328945
  51.3516808  75.6695938   6.7192888  51.6251135  76.5426159   6.4376843
  52.1713924  75.1985645   6.8690681  85.5611992  31.0415435  23.0921936
  85.3198624  30.1160574  23.1304216  85.1587677  31.4263654  23.8707757
  77.5629234  31.7688775  10.6921208  76.7565680  32.2517323  10.5108142
  78.0092001  32.2899699  11.3596046  72.0306492  34.4323969  26.7049980
  71.1014795  34.2048621  26.7382145  72.4745131  33.6021543  26.5320468
   9.1991541  21.8863273  42.5040054   9.3737432  21.9527149  43.4428024
   8.3599684  21.4292860  42.4481821   2.0424101  46.6962481  16.6588724
   2.6926348  46.0106182  16.5060472   2.1615621  47.3059416  15.9306467
  82.1189690  67.0333958   9.0484625  82.8787613  67.5601768   8.8005745
  81.8762779  67.3565435   9.9161649  19.6923563  19.5221698   4.4234127
  19.6278307  19.0431702   3.5971996  18.7841150  19.6544433   4.6951380
  17.0858397  64.6861629  28.6095421  17.0872750  65.6346683  28.7382643
  17.8587307  64.5163707  28.0709879  78.2103348  61.2338257   7.0979416
  78.7213373  61.6963720   6.4337444  78.5236740  60.3303814   7.0550209
  69.8287868  33.0333281  35.7125807  68.9454508  32.6667809  35.7525539
  70.4028797  32.2990632  35.9305286  52.3979616  41.4952707  -0.1438450
  52.3668814  40.5628395  -0.3579476  51.7543030  41.6017675   0.5565793
  56.8406994  36.3560773  61.8775920  57.6753552  36.3671256  61.4091162
  56.6321213  37.2797919  62.0171486  21.1266691  37.5413705  67.5145448
  21.1366493  38.3122112  68.0819396  21.5879757  37.8202106  66.7235486
  64.0981150  35.0666189  12.5182366  63.5590553  34.2884231  12.6598859
  63.5265923  35.7990670  12.7487075  11.4387152   8.3414477  50.2869463
  11.5821955   9.1476786  49.7913265  11.1360761   8.6384767  51.1450911
  10.6258380  51.2010765  31.6452384  10.1768970  51.0938263  32.4837971
   9.9940753  50.8951044  30.9944773   0.0111912  61.3278675  12.5792801
   0.1138603  61.4595366  11.6367555   0.8240338  60.9019804  12.8515685
  62.8540390  75.9808515  22.0947846  61.9000643  76.0059236  22.1691902
  63.0176442  75.5470132  21.2573822  53.1541203  27.8517624   4.4459208
  54.1065852  27.8945060   4.5308598  52.9023360  27.0827146   4.9571999
  21.9967423  15.7626625   7.0309456  21.6265188  15.0293823   7.5223358
  21.2418209  16.3076635   6.8088968  15.7555199  83.2021904  36.8646932
  15.5410314  83.4019184  37.7759194  16.5517807  82.6734829  36.9164085
  59.9112180  51.4359093  53.9598751  60.4962495  50.8393383  53.4928942
  60.2529648  51.4556217  54.8537731  31.0517655  28.9808985  25.1911457
  31.2375890  28.0576654  25.3624542  30.8871589  29.0212961  24.2490776
  51.3519566   1.8939778  52.0870876  50.9292572   1.0922334  52.3949289
  50.6481164   2.5423047  52.0644045   7.3280436  82.4854851   9.2279428
   6.6952860  82.8525639   8.6106062   7.0567554  82.8265572  10.0801802
  31.5450597  71.4659739  59.1806030  31.1150122  72.3180914  59.1086245
  32.2602773  71.6102171  59.8001909  39.5682798  16.2584682  12.7959545
  40.4923235  16.3149925  12.5526817  39.3356727  15.3428026  12.6420887
  74.4945155  26.0083576   2.9475268  74.3444644  25.1496979   2.5520237
  73.6217986  26.3138529   3.1950482  19.2856884  29.3305159  21.0964131
  18.3708465  29.6080327  21.0486865  19.5162213  29.4233251  22.0207906
   2.3437853  53.8515425  44.9802399   2.4125177  54.2020178  45.8683157
   3.0394119  53.1961870  44.9268818  19.6604526  81.3864899  26.4974833
  19.6627772  81.2064934  27.4376035  20.5082369  81.7982769  26.3303638
   0.5156596  43.7406488   0.7785376   1.0454066  43.9243170   0.0027378
   0.3737791  44.5978685   1.1801155  37.6218043  13.9417072  60.0697525
  37.7846561  13.9686676  59.1269024  38.4781466  14.1039654  60.4654606
  13.6958754  51.6456318  54.7833061  14.2227280  51.6286182  55.5822849
  14.2111707  51.1510658  54.1460419   1.6840985  51.2837505  60.2290297
   1.5262161  51.7839336  59.4283295   2.4237813  50.7153702  60.0144482
  29.9065471  52.1030474  67.7056313  29.2797613  51.5291166  68.1460524
  29.4730520  52.3487616  66.8883514  65.2882252   8.6778064  18.9158829
  65.2279346   9.4308897  18.3281143  66.2158339   8.6277815  19.1466816
  26.0742672   8.4272668  46.9858122  26.6350173   7.7087972  47.2783613
  26.1922150   8.4517667  46.0362244  19.5668578  35.9340286  70.3907728
  18.6797667  36.1721182  70.1213026  19.7270632  35.0900793  69.9685001
  73.1177221  12.6431461  18.5517891  72.2141491  12.3373314  18.4726151
  73.3204470  12.5527807  19.4828995  15.1479757  61.9822788  30.7582450
  14.3761981  61.7693138  30.2336144  15.8892560  61.7454720  30.2008772
  32.7762782  14.0644547  38.1529236  32.4519064  14.4270703  38.9772606
  32.0203154  13.6150929  37.7750087  48.0293380  22.6181646  12.2357472
  48.1301568  21.6682478  12.1746739  47.1396611  22.7438684  12.5657566
  82.9000065  57.5605059  51.2707376  82.7049771  58.4976053  51.2643766
  83.3911651  57.4235725  52.0808268  12.9946487  35.5305287  52.4219608
  12.8749805  36.3325688  52.9305267  13.6348694  35.7660005  51.7504644
   6.0570550  55.5099583  69.5213747   6.9259292  55.7601023  69.2071819
   5.4658026  55.7517529  68.8085032  75.4540370  25.6466480  18.7207134
  75.6411598  26.3997551  19.2811115  75.8218513  24.8995777  19.1927632
  37.0888036  62.5070785  32.5353153  37.0620453  62.9228519  31.6735466
  37.9020499  62.0022486  32.5325306  85.7416938  52.4953175  55.4730034
  86.5218170  51.9426298  55.4263544  85.3848785  52.3327780  56.3462162
  81.2154463  47.2916412  70.3174305  80.7806060  47.6372194  71.0969973
  80.8889762  47.8351355  69.6003103  49.5118354  22.4222704   9.7703560
  50.3375839  21.9381757   9.7656067  49.2430143  22.4282881  10.6890209
  56.0728257   6.1641023  42.4639082  56.1259740   6.7401216  43.2265472
  55.3331750   5.5861661  42.6513529  37.8813182   2.7778527  47.5463629
  38.7166237   2.3406217  47.3810482  38.0346029   3.2964131  48.3361912
   9.7780323  58.2741880  35.1013350   9.9283910  57.6912832  35.8455443
  10.1996517  57.8339863  34.3633032   5.2729499  62.9135180  69.1687346
   6.1129194  62.4959040  68.9782715   4.8843184  63.0730867  68.3086586
  22.3545384  64.4085884  58.8757610  22.1565533  63.8924599  59.6572018
  22.3451066  65.3162718  59.1794968   8.3848929  31.7290187  50.5594254
   7.4506480  31.5207505  50.5659580   8.7839478  31.0237622  50.0499153
  15.5309367  60.9769154  21.8149209  16.2205791  60.4079103  21.4730763
  15.6054258  60.8987188  22.7660084  45.5645929   4.8460146  30.0622852
  44.6698831   5.0387665  30.3425892  45.9230064   5.6952949  29.8044117
  24.5327115  75.7413387  71.0085821  25.4133463  75.4654884  70.7543707
  24.0460563  75.7776880  70.1851273  72.1785989  60.5679131  62.2936440
  72.0121339  61.0601282  63.0975389  73.1140342  60.3673840  62.3249435
  18.4944093  73.5203695  44.0275669  18.9736331  73.3324766  44.8345804
  17.5722635  73.4583473  44.2766333  59.9592975  45.8540630  70.8982372
  60.3878144  45.0225306  70.6953573  59.0234020  45.6574202  70.8574724
  26.0490997  53.5759016  12.0968445  25.9656484  52.6362367  12.2590168
  25.2774103  53.9602037  12.5128182  83.7179442  11.4444062  56.8315840
  82.9522892  12.0184037  56.8087244  83.3842989  10.5891606  56.5605354
  20.0673890  59.2613745  40.3554058  20.5043316  58.8077402  41.0761881
  20.5014086  58.9334011  39.5678163  85.6417261  30.8203026  11.7952450
  84.7744785  31.2104841  11.6862686  85.9826527  30.7416483  10.9042843
  20.1778674  69.9396992  62.8427029  21.0381365  69.7696209  63.2264280
  19.5854938  69.9847269  63.5932350   3.9788872  61.9581318  46.8998575
   3.1011343  61.7887068  47.2420216   3.8377506  62.5496626  46.1606693
  73.9542614  51.0534425  10.8287438  74.5145856  50.6165357  10.1873596
  74.5501862  51.3085027  11.5330513  51.1028617   8.5689637  68.5305214
  50.5290382   7.8050992  68.5894108  50.5202430   9.3169209  68.6622286
   8.9131015  12.7371213  44.9948502   8.3855288  11.9778630  44.7469950
   9.4202905  12.9429910  44.2096043  69.0698283   7.8001115  63.5751963
  69.9132364   7.5294873  63.2123566  68.6482804   8.2848927  62.8656054
  17.0727861  81.3689899  49.9130201  16.5817440  82.1647930  50.1174831
  17.9840040  81.5953064  50.0992870   9.5502334  57.0599877  14.7017391
  10.2752560  57.6212488  14.9766262   9.0826218  56.8585860  15.5123051
  43.1103597  64.2678495   8.9218720  43.1272350  64.5324083   8.0021198
  42.7955614  63.3640428   8.9053829  71.9818149  30.6122823   8.7369354
  71.4867948  30.2439638   8.0051430  71.9992195  29.9130388   9.3903835
  47.7097235   9.2838522   1.3622578  47.1386514   9.9647136   1.0065325
  47.7180432   8.6027523   0.6897505  47.1614986  12.2255513  59.3557405
  47.9421847  11.6820619  59.4623995  47.3450320  12.7592942  58.5826588
  61.3475285   2.4426504   1.6105612  61.6656427   2.9342600   2.3677643
  60.4820414   2.1301933   1.8742569  10.2667218  12.6421639  67.6527882
   9.9999195  12.6293942  68.5719633  11.1471134  13.0176827  67.6641321
  20.6023817   5.9203240  54.0705156  20.9536873   5.4370877  54.8183775
  21.3594799   6.0680291  53.5037518  66.6004675  14.7576520  63.9553452
  66.4144509  13.8755414  64.2770958  65.7672994  15.0620267  63.5955906
  29.7025245   6.8202970  48.2627439  28.8515928   6.8240640  47.8244162
  29.5674753   7.3440835  49.0524530  44.7435284  75.7231951  41.7553043
  44.5056581  74.8764801  41.3775253  44.2659044  76.3634586  41.2278843
  38.3729308  10.1017281  36.2988973  38.8748198  10.1267335  35.4842091
  38.5318767  10.9541032  36.7043900  27.1085548  68.7031794  36.0241079
  26.9369197  69.6224689  35.8199525  27.8559041  68.7260485  36.6217542
  34.8497629  71.1334944  54.4818544  34.1747808  70.5595207  54.1196585
  34.4680524  71.4702845  55.2924681   6.6745126  72.0699215  53.6576223
   6.5388680  72.9847050  53.4106398   6.0800022  71.5781879  53.0910683
  87.3626780  73.9751053  53.7192011  87.5841303  73.5843658  54.5644951
  86.4057462  73.9712143  53.6968851  76.9864193  73.7483501  66.8513203
  77.3511341  74.5032454  66.3894272  76.3719896  73.3603096  66.2283134
  57.9178212  56.2724825   3.5462626  58.7409874  55.9512468   3.1782396
  58.0464090  56.2300821   4.4938381  19.7313666  20.6036374  55.4665565
  20.1426809  21.4463517  55.2745104  19.9202972  20.4503438  56.3923168
  40.1414268  13.6338231  32.9225779  39.2937546  13.6656568  33.3660531
  40.2628951  14.5171353  32.5743818   9.1404229  77.4813128  26.6621065
   9.7278523  78.0962563  26.2227893   9.5459229  77.3312235  27.5160837
  41.0558217   7.5047967  63.4195471  41.5772860   7.5190827  62.6169872
  40.1671188   7.3067185  63.1242466  33.6835027  63.0963135  31.1218929
  32.7907968  63.0324364  31.4613485  33.6048841  63.6478949  30.3435540
  24.5642328  59.8581028  35.7039428  24.9150515  59.8521376  36.5945148
  25.0156856  59.1378689  35.2638483  27.2263885  72.4808788  60.2267122
  27.4468493  73.1898928  59.6226168  28.0483794  72.2850847  60.6764078
  31.4702473  17.6722093  19.0496357  32.3694430  17.9503341  18.8755043
  31.1376391  17.3898121  18.1976708  48.1957041  40.9983965  11.4200886
  48.2774852  40.4354521  12.1899231  48.5644029  41.8373438  11.6965874
  15.2733529  32.7811456  26.5522194  15.0206137  31.9402981  26.9334459
  14.5189428  33.3500242  26.7054343  23.0081558  67.8135014  66.9557571
  22.2492719  67.2335529  66.8926382  22.6389313  68.6958885  66.9196653
  49.2866116   5.6441400  48.9306259  49.1906040   6.4567468  48.4339428
  48.4269112   5.2268598  48.8756800  53.3902233   1.6440103  50.4480410
  52.7181356   1.5534017  51.1235571  53.5753529   2.5826737  50.4187536
  83.8209218  65.5703926  41.5187979  82.9643455  65.9598398  41.3431931
  83.9108861  65.6089306  42.4709797  40.6473761   7.0158479  49.2414093
  40.1475006   7.8075120  49.0423632  39.9840289   6.3652322  49.4714165
  64.9906710  72.2570848  20.0036693  64.5452169  72.7536964  19.3172455
  64.4279674  72.3527908  20.7720685  19.9801898  82.5920582  31.7943931
  19.1897106  82.3395252  31.3173151  20.6838179  82.1027851  31.3680720
   5.0414079   3.0516812  48.1394720   5.7755654   2.4566361  47.9872608
   4.2669051   2.4902818  48.1047153  68.0599516  25.4233643  43.1125689
  68.3661192  25.5250928  44.0137577  68.7387936  25.8386704  42.5806618
  38.8000298  75.1748610  37.1648812  38.7549782  75.3090668  36.2182093
  37.9447031  74.8128796  37.3964429  18.6375630  67.2150564  59.3710470
  18.1798279  67.1834135  60.2111149  19.2902541  67.9067135  59.4798279
  35.1322292  26.5190312  28.5845399  34.4474726  26.3945291  27.9273939
  35.6133222  27.2907731  28.2858992  20.2667713  32.9771495  41.5399981
  19.9032688  33.1682467  40.6753731  21.1453724  32.6417637  41.3616514
  87.7495004  49.8462725  36.4114380  87.7959038  50.6284952  36.9611740
  87.3305398  50.1452255  35.6043863  23.7609410  55.0300455  40.9082651
  23.7547517  55.3799915  41.7991781  23.1160760  54.3228483  40.9242344
  60.0230196  39.5157743  56.1654520  59.2883256  39.5245409  55.5519485
  60.5819658  38.8014579  55.8595705  70.1392916  51.7175388  44.3357277
  69.2094019  51.7016649  44.1092682  70.2429822  51.0099030  44.9719143
   7.8616196  51.2741518  43.9621544   7.9793590  51.6617966  43.0949211
   8.3109736  50.4305649  43.9104462  18.2521892  28.3290887  10.7277369
  17.9715788  28.7966347   9.9410409  19.1963983  28.2181382  10.6164265
  47.1619034  36.7683434  28.9762306  47.0113659  36.3524652  28.1273389
  47.8637314  36.2532663  29.3741822  37.0545769  45.3960705  16.7207134
  36.4525318  46.1226892  16.5600896  37.6601315  45.7287359  17.3831880
  53.5708063  20.5526921  21.3908553  53.1680863  20.6124780  20.5245543
  54.2977112  21.1747262  21.3605022  20.6253529  21.9337726  63.3189297
  20.2136183  21.2331247  63.8246918  20.1986790  22.7335906  63.6262894
   7.9017615  26.7612910  27.5888753   7.8769714  26.5130711  26.6647506
   8.7356126  27.2200012  27.6913810  80.9722522  67.0586109  41.4484310
  81.0127935  67.6557636  40.7014418  81.5300301  67.4658775  42.1111917
  81.9228593  67.9232216  62.7205896  82.2584060  68.3354759  63.5166311
  81.8035081  68.6484146  62.1073341  70.2077869  65.4585981  41.5236282
  70.3187314  65.2783585  40.5901194  71.0958424  65.6156826  41.8444300
  35.2141643  50.3974724  71.9527197  35.2392340  49.8804665  71.1475420
  36.1237836  50.6571007  72.0990658  10.9007335  39.9250531  33.4442401
  11.8512666  39.8145127  33.4218955  10.6918907  40.0152731  34.3740129
  35.3692603  46.6325617  26.6009235  35.0967455  45.8036900  26.2072992
  34.5679402  47.1547794  26.6384768  60.9939852  24.3231345  66.8688748
  60.7172709  23.8876201  67.6750932  60.2425295  24.8596050  66.6163872
  86.6904849  27.1448612  32.0817494  86.3671766  26.2479401  32.1668196
  87.5960310  27.0461607  31.7876816  74.1364279  40.5518007  54.1506910
  73.5374990  41.1957216  53.7726927  74.4294420  40.9495783  54.9705410
  76.9077793  50.1844645  45.8724213  77.2633103  50.9310579  45.3903198
  75.9809247  50.3936052  45.9883261  24.1323667  58.5727285   7.9954155
  24.1772478  58.8678430   7.0859535  24.4353556  59.3235015   8.5060700
  12.0198762  40.3643084  36.3406920  12.8083944  39.8460770  36.5016508
  11.3246942  39.8908639  36.7976451   9.9864368  47.8724096  71.2568582
   9.1061203  48.2474033  71.2824710  10.1007979  47.4706791  72.1181169
  31.8926432  13.1197545  29.7240472  31.3116852  13.8345906  29.9842978
  31.4859831  12.7546403  28.9382029  86.7420946  49.3647099  15.3003550
  86.5617967  48.4412289  15.4761577  87.6399110  49.3745232  14.9686003
  50.8086136  68.8179779  15.4581439  51.2867811  68.3021784  14.8088837
  49.8922780  68.5716820  15.3320611  10.9705257  70.8622742  51.4243984
  11.3021779  71.1835575  50.5859375  10.1132929  71.2777662  51.5179586
  53.9514950  60.8056021  37.2992635  53.9775065  61.7127275  36.9948268
  53.0956605  60.4827547  37.0172238   1.8838951  55.3131294  17.8596282
   2.3379874  55.4735422  17.0324039   2.4997270  54.7907352  18.3735228
  37.3006725  66.4561605  10.6013453  37.1199632  65.6598902  10.1018167
  36.7926288  67.1365452  10.1595283  80.9451446  41.4541817  59.6163321
  80.6342831  42.3564434  59.5420218  81.0078588  41.2993193  60.5588388
  23.3609819  65.9603905  12.5658806  24.0143954  66.4992975  13.0118187
  22.5649773  66.4919065  12.5757893  77.8280702  58.5691166  44.3471909
  78.7459174  58.3852148  44.1472673  77.8077439  59.5068836  44.5380116
  81.0912433  35.5352831  58.3142138  80.9304282  36.0763741  59.0872526
  81.2569419  34.6601057  58.6646986  73.2847503  44.8676491  10.9425700
  73.7015739  44.6396875  11.7735457  73.7427273  44.3364048  10.2912140
   1.7261568  32.4803281   6.3259828   1.1109734  31.8938255   5.8857596
   1.7577574  32.1611476   7.2278458  17.9623663  51.4510107  43.4934711
  17.7304792  50.6996346  42.9476786  18.8853550  51.3155365  43.7078810
  22.7361798  22.1097517  52.9209137  23.6669326  21.9079399  53.0168390
  22.5797987  22.0759630  51.9771767   7.4506760  70.7723284  29.0789485
   7.1160799  71.2843227  29.8152471   6.8848884  70.0009060  29.0468860
  82.1551982  38.2805014  51.1651754  81.5392038  38.5542154  51.8447828
  83.0110911  38.5578561  51.4919090  76.1238161  49.0735102  21.7083168
  76.5144208  49.9471664  21.6887045  75.2244881  49.2197609  22.0016599
  14.5515490  38.5415840  44.5448303  14.1722822  37.7501106  44.1627836
  13.8432038  38.9188719  45.0664949   5.6967640  59.1309166  60.1922560
   5.2645403  59.9662018  60.3703451   6.6047174  59.2687225  60.4621887
  34.1700848  65.4991316  11.1659725  33.6785465  65.4201578  10.3484257
  34.3642758  64.5960425  11.4168747  80.2603445  22.8255081  58.3764219
  80.5009034  22.9341793  57.4563408  79.4714913  22.2837520  58.3553600
  52.7300446  54.5894669  12.6438912  51.8971722  54.1475199  12.8089340
  52.6510542  55.4273676  13.0998619  24.6175051  43.2793808  70.3701353
  25.2441978  43.8637495  70.7967472  25.0314951  43.0505943  69.5379686
  29.4293475  33.9637971  44.6061516  29.9734354  33.1788611  44.6700144
  29.6551609  34.4755936  45.3828812  80.5371401  28.8205409  36.1913753
  80.5181828  28.7461042  37.1454883  79.7252986  29.2770410  35.9705734
  85.4726192   2.6133439  49.8557043  85.9965082   3.2360455  50.3597021
  84.7486516   2.3829839  50.4379749  11.3053083  42.8302956  32.9707956
  12.2539759  42.8183126  32.8438425  11.0880780  41.9370937  33.2376957
  25.0384331  26.9328880  11.9340026  24.9715567  27.8721261  11.7619860
  24.1569400  26.6754961  12.2040939   7.8202981  49.8807907  58.7632084
   7.2601038  50.3724194  58.1626129   7.5061125  50.1212549  59.6348143
  81.9929710  35.5684566   6.5783179  82.6419798  35.8825254   7.2079051
  81.1539224  35.8640933   6.9316262  47.8989218  -0.1651530  15.0042732
  47.4594711   0.6526848  14.7713383  48.7266062  -0.1374487  14.5242699
  48.1002072  63.7368917  35.3264570  47.8209856  63.2070780  34.5797563
  47.2844771  64.0587521  35.7101536  64.2261508  83.0157566  57.4257517
  65.1392630  83.1141376  57.6955318  63.7521413  82.8501415  58.2406902
  14.2996120  68.9347744  14.0313005  15.0609982  68.6529303  14.5383370
  14.1783118  68.2455873  13.3781981   1.6442950  11.2515398  10.7246121
   2.2285373  11.0126777  10.0050076   0.7798488  11.3186880  10.3190811
  71.4995256  68.4722424  39.8827410  71.0350707  68.1505632  40.6554222
  72.3700383  68.0791998  39.9456644  21.0964537  71.3952684  37.9002619
  21.6819263  72.0921040  37.6038218  20.3147984  71.8539953  38.2081842
  30.9718718  81.9732713  11.3543137  30.7474231  82.6686143  11.9726666
  30.4755274  81.2132548  11.6580399  51.7367552   9.3381692  65.9983729
  51.7571733   8.4037067  65.7919888  51.6392551   9.3711997  66.9500212
  41.8226719  53.5516596  28.8276219  42.2397137  53.1972122  28.0423355
  40.8868074  53.4074402  28.6876512  70.6804505  79.4998360  12.1384788
  71.1630884  78.6765862  12.0639884  71.3364628  80.1374245  12.4202013
  40.7770395  59.7865009  38.1691885  40.9258986  60.2221537  37.3299742
  41.0788298  58.8888597  38.0299258   3.2338998  68.1470966  66.9383240
   3.7185735  68.8928223  67.2921896   2.3174535  68.4220028  66.9663382
  18.0172694  59.0982533  37.7188587  17.4290311  59.6986485  37.2608948
  18.8935196  59.4415379  37.5440025  18.0887580  17.8778160  50.4226112
  17.2786009  17.3984849  50.2490616  17.9964232  18.1857312  51.3242197
  74.8980358  29.2985153  47.9001284  75.5013362  29.9248672  48.3000612
  74.3928960  29.8182654  47.2748852   0.7583098  47.3721600  64.3876028
   1.1740917  48.1932449  64.6506071   1.1667675  46.7081881  64.9430609
  11.0595667  49.1754007  55.0916481  11.7859077  49.6202135  55.5284595
  10.5696130  48.7619972  55.8024740   5.6086129  49.7757292  49.5371246
   5.7053661  49.4486570  50.4314899   5.2137578  50.6415844  49.6401501
  67.0542233   0.1280686  71.8145514  66.2638014   0.5842206  72.1033287
  66.7377346  -0.7109168  71.4796352  62.5034612   8.6839196  57.4030733
  61.9314664   8.9112184  56.6700029  63.1112306   8.0388162  57.0415688
  47.6712464   1.7216774  11.2837036  46.8806706   1.6894766  11.8223866
  48.3909677   1.6405054  11.9095142  41.1017132  81.7299175  62.2511911
  40.7889128  81.9991493  61.3875389  42.0208263  81.5013695  62.1125126
  31.5819287  82.9323578  61.6867208  32.5072813  83.0503654  61.9012499
  31.4452505  81.9858742  61.7282581   6.2548965  37.6330924  45.7587957
   6.6840863  38.4849548  45.6790781   6.9233811  37.0021749  45.4917669
  19.5381581  19.4430348  45.8303404  19.5340943  19.6360776  44.8928165
  18.7988847  18.8480374  45.9555721  14.9605846  63.7176609  22.4672723
  14.1336703  63.5827065  22.9301238  14.9210727  63.1141138  21.7253828
  12.0938015  36.0549212  33.1554985  12.8912568  35.7431912  33.5834265
  11.5495145  36.3815188  33.8719606  16.7374146  79.1258526  66.5058756
  15.7953072  79.2920637  66.5381193  17.1116638  79.9352980  66.1580753
   5.8446908  66.3989305  36.7657113   5.8072716  67.1039057  37.4121213
   5.8168679  66.8472815  35.9204650  24.3513465  55.9714603  38.2294941
  24.1785216  56.7814350  38.7093902  25.3056097  55.9282875  38.1682849
  80.6682280  33.8518023  66.2395239  79.8486313  34.2175508  65.9067774
  80.8820781  33.1474876  65.6276083  15.4780674  62.9366922  27.0703697
  15.7097816  63.5459709  26.3694263  16.0657120  63.1653976  27.7905059
  27.6313210  69.8196363  57.3036766  28.4374785  70.2544403  57.0256758
  27.7361846  69.7015667  58.2477617   7.5138348   8.0374715  30.0513864
   7.6194065   8.5364530  29.2413831   8.3052962   7.5020883  30.1077700
  18.5291219  41.9571972  47.2361755  18.0931294  42.8059530  47.1602964
  18.4353304  41.5614367  46.3696814  62.2509063  58.5654212  69.5737652
  62.3228369  59.3650485  69.0525709  62.2005115  57.8616477  68.9269317
  26.9465616   2.5032899  51.9551086  26.4219095   2.1734807  52.6846266
  27.6269684   1.8415639  51.8310165   8.0942160  52.6750326  47.9051208
   8.7559068  52.0079947  48.0880356   7.7154517  52.8775787  48.7605429
  28.4639478  60.4982185  51.6902733  29.4169259  60.5774355  51.7325258
  28.1799030  60.5339909  52.6036549  21.8711209  65.6253672  46.9595385
  21.0852075  66.0532236  46.6196680  21.8146849  65.7394648  47.9082394
  69.3506160  63.8133430  23.2188916  70.1059309  64.3411636  23.4779930
  68.6094621  64.2185640  23.6691356  65.2764027  30.4525849  22.0206475
  64.7822826  30.0377557  21.3135505  64.9012463  30.0867364  22.8216720
  10.8896995  34.4954300  40.9398842  10.7589269  33.8514376  40.2438927
  10.2010906  34.3033481  41.5763998  85.9970886  71.6710758  33.9307046
  85.6453863  72.2239304  33.2329297  86.5231370  71.0146236  33.4740043
  84.5208541  61.9148588  53.6166382  84.5590136  62.6163149  52.9664516
  85.4260436  61.8105888  53.9098787  27.6677275  58.3633947  39.8933792
  28.3057332  58.9423418  40.3105116  27.2830939  57.8695250  40.6175184
  14.8778617  68.3382368  64.7192574  15.1785231  68.8628483  63.9772224
  14.3293858  67.6594114  64.3260622  19.3261838  69.4875050  69.4056988
  18.7439311  70.2311373  69.2500353  19.1031086  68.8605213  68.7176895
  74.2822777  40.8777662   9.3371494  74.5448743  40.6172033  10.2199753
  75.1039301  41.0969873   8.8977631  37.0273767  35.5167009  68.0436016
  37.8844843  35.9426786  68.0553908  36.4058457  36.2327195  67.9122732
  53.8502435  14.3779417   2.8613623  54.6167956  14.7927948   3.2569941
  53.2870875  15.1088281   2.6066216   6.6511440  53.9764786  15.1487780
   7.5890297  53.7934113  15.2043521   6.3457483  53.9393711  16.0551929
  73.3174446  72.9178858  34.6218204  72.6468375  73.4685850  35.0258589
  73.0943659  72.9128599  33.6909914   4.0051639  44.9751759  33.5230231
   3.8944307  45.3813791  32.6633883   4.5730457  45.5788946  34.0018415
   6.2511533  61.0540056  62.2472477   7.1195930  60.6563282  62.1848392
   6.1996740  61.6369534  61.4897823  41.7885666   0.8146951  27.7778363
  42.1536892   0.6161496  28.6400962  41.0675996   1.4185140  27.9562831
  60.7804110   8.9015384   1.4461907  61.2648140   8.7925955   2.2645529
  60.4424585   9.7962423   1.4851912  11.6489995  53.4624434   1.4220220
  11.1233187  52.8157854   1.8928996  11.4222395  53.3309507   0.5014125
  41.2409687  79.9749470  49.1635227  41.0809565  79.4276333  49.9323368
  42.1339083  80.2988529  49.2817545  22.8160620  80.3380013  20.5907512
  22.4809885  80.8704948  19.8693633  22.9536724  79.4725037  20.2057624
  84.5733819  82.4356934  34.5978713  85.4110680  82.5810473  35.0376272
  84.5745812  83.0562961  33.8691187  67.5267676  65.6752491  58.2812691
  67.1069768  66.1703062  58.9847803  66.8870428  65.6814909  57.5692654
   9.9532133  52.1228313  50.3289318   9.0099710  51.9756365  50.3986454
  10.1697576  52.6552391  51.0943604  69.6211305  52.7406502  21.1977649
  68.7338284  53.0580711  21.3656092  70.1078072  52.9584789  21.9927049
   0.6951451  72.2996759  50.2678251   0.5631617  71.4232111  50.6292439
   0.5886506  72.1877480  49.3231726   7.3576707  71.4256668  22.5632405
   7.4880356  72.2653818  23.0038261   7.6658827  71.5738773  21.6692209
  37.0912313  67.6042509  42.4941921  36.5313339  67.6116037  41.7178583
  37.1336102  68.5205841  42.7676153  16.6341341  53.7654257  33.5641885
  17.3208547  53.9181280  32.9150891  17.0714247  53.8825369  34.4075727
  65.6693748  58.7893248  60.6774807  66.2715176  58.2163668  60.2027416
  65.6736663  59.6066952  60.1793671  17.5494993   8.8518012  49.1797066
  17.9998016   8.0394667  48.9482450  17.1817029   8.6829841  50.0471497
  27.0730543  58.4325838  28.9561176  27.4957895  58.0623817  28.1812143
  26.1404705  58.4382582  28.7405109  15.3981423  48.2732105  39.6795535
  15.8419549  47.4778175  39.9738503  15.7884979  48.4636497  38.8265657
  67.0043233  31.9666600  41.4968204  66.1754015  32.2956061  41.1490917
  67.2479752  31.2562990  40.9033060  83.9695798  22.8159662   0.6004580
  83.2227717  22.3208566   0.2637442  83.5771094  23.5559650   1.0637053
  32.5101447  35.6184864  62.9166603  33.1103396  35.8015728  62.1938324
  32.2318435  36.4821148  63.2214928  21.7372322  81.2097645  62.2795534
  22.6942325  81.2211609  62.2954798  21.5166259  80.7508659  61.4690113
   0.6068330   2.5581202  53.2008648   0.6807503   3.1086227  53.9804268
  -0.0174995   1.8758589  53.4477663   4.6206909  70.2046108  60.5193472
   5.3814811  70.3701305  59.9625397   3.8890821  70.1237679  59.9074268
   4.0152013  42.8798580  39.4079089   3.4956163  43.6499166  39.1771078
   3.3998024  42.3022366  39.8594308  81.1555907  27.6096296  66.5049362
  80.5908522  26.9281530  66.1403942  81.3153246  27.3312759  67.4067307
  56.4396218  61.7279434  44.8202419  56.4003256  62.6695871  44.9875641
  57.0663455  61.6381931  44.1023350  36.8980055  21.5483663  39.9270582
  36.7939030  20.9129331  40.6353092  37.0470845  21.0147473  39.1465116
   2.8192241  62.1265932   7.5536688   2.1053250  61.5284200   7.3328360
   3.6125143  61.6606470   7.2894390  17.2789860  54.0281820  42.3447132
  17.7193201  53.2331181  42.6450634  16.3929927  53.7419510  42.1226358
  53.1429427  13.6970517  36.9464993  53.2647889  13.4136006  37.8526163
  53.3684485  14.6272752  36.9541454   1.4530213  53.7339063  20.9224518
   1.1068804  54.6091982  20.7484539   0.7947977  53.3231111  21.4830120
  67.7701905  80.9716225  24.7550297  68.6115244  80.5731297  24.5323348
  67.8904250  81.3035870  25.6447315  80.6491044  45.5856657  28.9148974
  79.8472640  45.3084183  29.3580890  80.3620467  45.8416224  28.0383611
  11.7816472  73.7361860  26.4198375  12.1131158  74.2128325  27.1808696
  11.9854832  74.3021917  25.6753111  25.7023430  69.3066645  69.8822117
  24.7786522  69.4949579  69.7161722  25.9244680  68.6221790  69.2510414
   3.0582830  56.3846445  21.9348788   3.1842023  55.6043625  21.3949347
   3.3209196  57.1115732  21.3702297  81.5967783  39.5390248  43.0576324
  81.1556509  40.2017021  42.5261259  82.5236866  39.6344042  42.8386021
  80.8310519  71.7155791  67.1275513  81.5398560  72.3463012  67.2541098
  80.2553425  71.8479396  67.8807248  26.0294511  71.3443064   0.0000818
  25.1373701  71.6453432   0.1727064  26.5884902  72.0036577   0.4111298
  78.3415005  69.7873020  58.9449644  77.6302913  69.6876097  59.5777941
  79.0765199  69.3134260  59.3340921   2.0153445  43.0646372  12.7786684
   1.9936581  43.7821007  12.1454215   2.7910960  43.2389498  13.3116376
  50.3707331  65.1237320  11.8383225  50.3503411  64.1669964  11.8600758
  49.8580521  65.3566836  11.0642918   2.3051631  80.3742790  55.8959007
   2.1873453  79.5195723  56.3104153   1.4165467  80.6667137  55.6932306
   2.1599525  37.1145201  49.3315220   1.8960279  37.4194694  50.1996136
   3.1160247  37.0859337  49.3681431  24.4195008  25.9280849  58.8275814
  23.6428070  26.0781550  58.2886362  25.0348020  25.4854894  58.2429934
  80.0573722  56.4972401  49.8810005  80.7204715  56.2139606  50.5105114
  79.9626383  57.4364996  50.0392628  19.5682204  46.1234617  31.6054702
  20.4432964  45.9379578  31.9461489  19.2768002  45.2930880  31.2289190
   3.5734785  54.2282057  71.3614655   3.8908944  54.6070004  72.1812201
   3.0415615  54.9199867  70.9680986   5.8987647  27.0990586  56.5735197
   5.8067447  26.3700843  55.9600353   5.2962178  27.7662373  56.2448215
  18.7155151  67.8481197  21.7786837  18.2682872  67.8180218  22.6244450
  18.5023904  68.7119341  21.4256525  27.3136115  26.0100341  60.7609081
  26.9652390  26.5675449  60.0651693  27.5097466  25.1797414  60.3268862
  35.1065230  16.7672631  34.7071815  34.7512685  17.6214120  34.9530506
  34.3849807  16.1560437  34.8555660  26.6403031  45.0110722  52.8292084
  27.1139455  44.6488237  53.5779905  26.9509649  44.5022249  52.0803499
  29.4520974  47.4587774  62.8199673  29.4715047  47.0449877  63.6828852
  29.2142868  48.3690739  62.9961443  58.9204471   5.6188199  44.6820259
  58.8066380   5.2914330  43.7897873  59.2645328   6.5049741  44.5699310
  42.1308689   3.9031407  41.9760132  41.4683848   4.5584008  41.7569733
  42.5557273   3.7039182  41.1417198   5.0211375   4.6191594  58.4369946
   4.1147464   4.6231553  58.7446785   4.9555366   4.7845170  57.4964714
  83.7179610  68.3759403  45.6625843  83.8892159  69.0697908  46.2993526
  84.5503619  67.9094362  45.5870008  87.4341603  65.5762911  35.5342340
  88.2292349  65.5781698  36.0672283  87.5596653  64.8534489  34.9194312
  85.4796550  75.3108168  43.8651514  85.4206434  76.2602711  43.7588882
  85.2072796  74.9576330  43.0182123  69.2032996  54.3958092   7.1900326
  68.6267367  54.1426325   7.9109418  68.6904028  55.0249815   6.6827738
  20.6782620  60.7869445   9.8541649  20.9431033  61.6993498   9.7375210
  20.3527992  60.7451032  10.7533653   2.1814482  59.2914438  10.7975101
   1.8718153  60.1839876  10.6435013   3.1358254  59.3623543  10.7783437
  80.5789390  50.5134630  62.2200012  79.9880961  50.8100796  61.5277910
  81.1168346  49.8400784  61.8035269  49.4562452  10.5037972  68.9961147
  49.0450888   9.9279496  69.6407700  48.9171784  11.2947461  69.0031958
  72.0411006  47.3128891  34.0807796  71.4557400  48.0428219  33.8788390
  71.7703357  47.0226431  34.9517989  40.0761604  64.8302841  30.4242778
  40.3507519  63.9148426  30.3713465  40.5305099  65.1724911  31.1941457
  15.7512474  69.0560198  24.0973449  16.5308964  68.5007048  24.0969968
  16.0524237  69.8914862  24.4544482  10.0924850  65.6146049  57.4136019
   9.2919666  65.1533461  57.1633148   9.7922039  66.4768744  57.7009249
  67.4327019  53.7825727  51.2147427  67.0483306  54.1455793  52.0126867
  68.2665053  53.4083748  51.4993048   1.7266914  54.9894381  60.6785631
   1.0379579  54.3580437  60.4706717   2.2944918  54.9869061  59.9079609
  31.4995146  43.5964203  19.5650244  30.5615091  43.7870455  19.5714390
  31.5924048  42.8716326  18.9467311  17.2843409  47.4382925  17.3677444
  17.5784695  46.5505600  17.1636546  16.5699482  47.3161030  17.9929984
  67.7291457  11.9314428  10.7514866  67.9581384  11.8493696  11.6772564
  67.4040918  11.0648342  10.5074223   7.6323736  20.7613754  28.8942385
   8.5417759  20.4992890  29.0375185   7.6833969  21.6905046  28.6698556
  54.7242117  78.2723999  42.4384451  54.8781061  77.3566341  42.2062302
  55.5974102  78.6638880  42.4605417  22.8808308  59.1802692  51.1508131
  23.8260889  59.0641880  51.2469673  22.6854205  58.8406277  50.2774906
  10.8566701  54.1796684  62.9136705  11.1764657  54.0600252  63.8079023
  11.3662124  53.5595322  62.3921013  42.9643345  52.9905748  32.7620745
  43.8119793  53.0271959  33.2052326  43.1684780  52.6801538  31.8799210
  20.9317613  43.6909008  51.2145567  19.9833596  43.7805462  51.3079834
  21.2437224  43.5098362  52.1011972  32.4749708  73.3170462  41.4443445
  32.2718191  74.0997505  41.9565296  33.1190896  72.8456163  41.9726372
  77.7706197  47.7836895  18.3264101  78.1020096  48.6415148  18.5920131
  78.5233197  47.3501730  17.9242396  86.3339506  53.3291670  10.5367573
  85.9045873  52.9948755   9.7492798  87.0528613  53.8683172  10.2070339
  75.4320620  47.7840276  11.0388382  74.5183085  47.9368826  10.7981594
  75.8691679  47.5911661  10.2093895   8.0490530  67.6904488  32.9127026
   8.3360702  68.4850693  33.3626199   8.8229209  67.1271610  32.9043150
  69.9041620  49.0719414  33.2081652  69.4067815  48.2783461  33.4057736
  69.3597439  49.7850943  33.5417128  84.9074438  33.2325935  46.1164570
  84.2560014  33.7638140  45.6585693  85.2822718  33.8235760  46.7695093
  15.7901037  16.8198681  22.5927782  16.3017309  16.1925292  23.1035757
  14.8790503  16.5788400  22.7604651   2.4417311  56.0424566  30.8123469
   2.5385946  56.9739532  30.6144381   2.5171757  55.6079865  29.9627733
  70.5759648  74.2314053  32.3035550  70.7466999  74.3271542  33.2405257
  69.6392801  74.4058275  32.2117305   0.5528763  59.0549135  19.0080047
   0.3088330  59.8414469  18.5201120   0.1891897  59.1930866  19.8825741
  42.0475483  63.8603926  38.4117985  42.8586102  63.5673141  38.8271475
  41.9698334  64.7812176  38.6613417  77.8414229  48.5653830  67.5465488
  77.2187701  48.2368517  68.1950855  77.5343695  49.4495726  67.3461533
  18.6481965  62.2520161  20.1377010  17.8508627  61.8272781  19.8213315
  19.0730238  62.5835419  19.3465984  74.7237817  78.6800051   8.6915696
  73.8352957  79.0079212   8.8304800  75.2068701  79.4334984   8.3523023
  68.7675086  43.2046747  46.6088057  69.0241817  42.5435925  47.2517061
  68.7177613  42.7269554  45.7808304  11.9206386  74.5298933   9.5728977
  11.7267959  74.0524935  10.3795918  11.8071525  73.8816642   8.8778027
  14.6722639  57.4790859  47.0098686  15.3180373  57.4370623  47.7151632
  14.6306598  56.5853548  46.6696501  24.4323015  78.3971024  42.2429848
  25.1631308  78.9347696  42.5479984  24.0327048  78.0591869  43.0444622
  70.1381829  29.6453547  56.0834789  71.0367099  29.6906495  56.4103270
  69.8560301  28.7523675  56.2814665  40.0156927  82.0114231  68.7815952
  39.4611502  81.4400387  68.2503366  40.5057144  81.4128780  69.3453836
  50.7977884  10.1148412  49.3234491  50.7518952   9.4696614  48.6178541
  49.9452870  10.5497834  49.3061161  15.2954185  24.7559643  49.3457890
  15.9781837  25.4255986  49.3864346  14.9105895  24.7527790  50.2222204
  81.6429314  82.5063992  42.3973322  82.3559156  81.8677616  42.4029303
  81.1560890  82.3289204  43.2021379  74.2579201  36.1341548  25.8124590
  73.5482588  35.7804990  26.3486862  74.0419868  35.8629155  24.9202514
  10.3294337  44.8037863  22.4312639  10.4417241  44.3234348  21.6109681
  11.1602855  45.2624655  22.5558901  68.6709779   4.0515897  50.5795050
  68.6862486   4.3114659  51.5006304  68.6231416   3.0958268  50.6010532
  12.0229685  27.3631907  46.5701675  12.6964307  27.4193645  47.2480536
  12.1523941  28.1484413  46.0383177  42.3572426  67.7986954   3.0003603
  41.7311578  67.0819925   2.8974684  41.9511097  68.3812140   3.6422022
  20.4900432  66.0811186  30.6221366  21.0098433  66.3503790  31.3794613
  19.5818412  66.1715078  30.9106326  62.0304788  23.5117956  19.0277489
  62.6222692  23.8148399  19.7163590  61.9898586  22.5629564  19.1472920
  26.4166498   8.4171402  26.1389899  26.4267731   9.2987567  25.7663226
  26.5591764   8.5515124  27.0759320  16.0722792  43.8927174  52.3118925
  15.2793574  44.0130997  51.7893839  15.7520556  43.7303734  53.1992102
  23.6636353  64.4057178  65.0237703  23.9275599  64.2727900  64.1133261
  24.4619036  64.2527103  65.5293274  87.1403006  44.6466064  37.3164248
  87.3484039  45.5809116  37.3176074  87.8916669  44.2344093  36.8900752
   5.3781581  52.2485733  21.7523980   4.6611401  51.6213226  21.6592717
   6.0659307  51.7606354  22.2052956  85.8663310  76.1205196  36.1617422
  86.4987132  75.4168558  36.0162163  85.0224397  75.6738949  36.2295961
   7.1003634  57.2180033  36.7887878   7.7855235  57.6425028  37.3051095
   6.5461612  56.7837238  37.4372387   9.0527362  79.5108938  49.3860054
   9.5612937  78.7564325  49.6833134   8.1531996  79.3102837  49.6445036
  35.2001214  58.1471157  48.4609938  35.7762027  58.8162184  48.8306713
  35.2754283  58.2629490  47.5138140   9.9977928  78.8166237  37.1481824
  10.3811598  77.9680252  37.3698711   9.0644318  78.6359882  37.0366478
  25.6877368   1.6011521  54.4232368  25.6947394   0.7368276  54.8344851
  26.2652614   2.1320531  54.9717283  12.2728717  36.0650682  63.3601475
  13.1314588  36.4375973  63.1594419  12.0978010  36.3383174  64.2606592
  82.9142907  80.1133442   7.7947241  82.9687527  81.0303116   8.0638593
  82.2918621  79.7206545   8.4067750  36.5114706  14.3541905  37.1777678
  37.2831821  14.7093675  36.7367053  36.2288677  15.0539300  37.7665997
  51.6183281  48.6132622  48.4561491  51.1508703  48.6413574  47.6213264
  51.8350554  47.6889563  48.5783052   4.0203455  19.3751407  10.9480071
   4.0058795  20.2693868  10.6069088   4.8928612  19.0488780  10.7277787
  36.9845067  22.0047613   1.0236796  36.9458853  21.7148157   0.1122673
  37.2621380  22.9193826   0.9724959   7.0042300  65.8127260  67.5503778
   6.5344793  65.4985857  66.7777967   6.3162702  66.0022354  68.1883669
  18.8775265  33.8432455  44.0607691  18.9031637  33.2460856  44.8084116
  19.4424677  33.4322166  43.4064531  81.5438148  37.7269745  11.6846597
  81.7709515  38.5923219  12.0249760  81.8050256  37.1208405  12.3779130
  74.6781335  81.7853452  38.8968015  74.1721700  82.4462068  38.4240484
  75.4694829  82.2450009  39.1773629   4.3810889  32.9842997  55.8380508
   4.9432734  33.6792088  56.1805153   4.3623957  32.3268032  56.5334511
  28.6323118  74.1341972  64.3024302  29.0507030  73.3309555  64.6122408
  28.0645847  74.4025421  65.0248623  75.0287154  43.8748169  46.0907078
  74.9802056  43.3318663  45.3038931  74.2810825  43.5969543  46.6199255
  43.3196710   2.9085537   4.2859610  44.0927432   2.3804327   4.0867623
  43.6719869   3.7231870   4.6444042  12.2780609  51.9806385  61.3051414
  11.5663970  51.9615841  60.6652927  12.1578956  51.1832428  61.8208456
  15.3816187  66.7533493  30.9938288  15.5151153  65.8945942  31.3950157
  16.1187959  66.8535376  30.3915310   3.7790433  54.4487381  24.3259335
   4.2983580  54.6118498  25.1132941   3.7903062  55.2818489  23.8547397
  13.2866645  55.2199793  21.8130302  12.4969566  54.6911287  21.6993976
  13.4547663  55.2000427  22.7551413  19.1740263  54.4862127  37.5973511
  18.9510727  54.8453665  38.4561467  19.2960060  55.2551460  37.0404887
  79.9391528   4.7366521  32.8229403  80.0180551   4.1905209  33.6050820
  79.4948002   5.5279824  33.1272006  14.7685289  50.9298372  59.6177721
  13.9655721  51.0833549  60.1156950  15.4511821  50.8472681  60.2836561
  46.5582435   8.6094758  10.5198133  45.6395262   8.4542558  10.7391202
  46.9311409   7.7339265  10.4168749  27.3231361  20.5183408  32.9794693
  28.0217459  20.0327298  32.5408864  27.7416941  21.3276574  33.2728076
  37.9571115   8.5228917  43.1962490  38.3537566   9.3446824  42.9071856
  37.1308767   8.4735963  42.7154779  52.0804875   7.8363130  31.6884136
  52.6408642   7.3762891  32.3133850  52.5200956   8.6742780  31.5442133
  72.6348656  10.5540559  28.5464072  72.0059317  11.2532803  28.7246370
  72.1830957   9.7525308  28.8104010  23.3277798  65.2667141  52.8054380
  23.6564946  64.9785614  53.6569977  22.3758602  65.2726698  52.9056835
  73.8194576  67.2624016  69.1672659  73.5559586  66.7606258  68.3958912
  74.7118428  67.5490999  68.9731455   8.3805197   5.8120725  37.7375746
   8.4823101   6.7632482  37.7711916   7.4794000   5.6778523  37.4439740
  81.3212889   6.3832948  71.9240284  82.2728079   6.3848588  71.8199062
  80.9825342   6.4480779  71.0311270  29.2744231  61.5704584  43.8953209
  29.2041039  60.6590414  44.1792297  28.6623406  62.0445585  44.4581890
  65.2648251   5.3483293  35.2222013  64.6458929   5.7506272  34.6128464
  65.9587615   4.9990651  34.6630073  36.3727355  56.6483402  37.9613829
  36.8149543  56.7901373  37.1243811  35.9097052  57.4690199  38.1296849
  33.0533123  61.5173101  40.7327509  33.3697891  62.0727444  40.0203133
  33.8471127  61.2350416  41.1871052  58.2542896  65.9924889  37.3289466
  58.3531618  65.7208300  38.2414460  58.7741899  65.3599977  36.8330717
  78.8387023  21.9963642   5.4988058  79.5518099  22.1280237   6.1236056
  78.6130701  22.8784796   5.2035149  78.9261089  52.3597093   1.0350474
  79.6028839  52.8992887   1.4437683  78.8008223  51.6312643   1.6432484
   4.8905280  74.8269510  44.3358994   4.8014480  75.5558300  43.7218666
   4.8062116  75.2300406  45.1999855  60.9920661  43.7288619  69.5926837
  60.3547112  43.7886001  68.8810365  61.2241119  42.8009368  69.6291241
  12.5044978  49.9580765  52.6588631  12.0975304  49.8495054  53.5184097
  12.4537599  50.8983278  52.4868822  52.1336699  59.5709515  65.7330370
  53.0463696  59.8594093  65.7339525  51.6337967  60.3570938  65.9528923
  17.0900595  69.7395420  41.7408943  16.8060613  68.9401865  41.2974930
  17.9517651  69.5227575  42.0968437   7.4609339  79.4819117  64.5718479
   7.3233253  78.7328529  65.1516819   8.3197153  79.3260241  64.1788816
  50.5004549  76.5094280  41.4588451  50.6486607  75.8800554  40.7530451
  50.1856041  77.2970295  41.0152388  32.6223253  14.9705693  67.0707178
  31.7631838  15.2941987  67.3415804  32.5937834  14.9870488  66.1140823
  42.9374831  20.9859082  12.7846253  43.5529261  20.2528951  12.7720869
  42.1416991  20.6373975  12.3827529   2.8574976  55.9541655  39.8162484
   2.4096437  55.1121140  39.8975563   2.9724568  56.2524080  40.7185030
  48.2703447  82.3245049  39.8898673  49.1506529  82.4808598  40.2316809
  47.9771137  81.5307999  40.3374052   6.8454044  29.8404691  46.8945837
   7.6156919  29.6123597  47.4150229   7.1865623  30.3929135  46.1912680
  46.9831019   5.4993245  68.7534189  46.3453977   4.8056123  68.9217234
  46.4577978   6.2968251  68.6879826  80.2487486   6.2949368  65.2667856
  80.6002920   5.8515069  66.0388088  79.6938675   6.9895837  65.6214762
  12.9719913  72.2124910  36.5535808  12.4869502  72.4093342  37.3549652
  13.6177492  71.5577459  36.8191719  35.7769667   0.1825997  47.7991056
  36.1993825   0.9503743  48.1842232  36.0512315   0.1930711  46.8821001
  25.8183074  59.3836880  51.1010218  26.7116547  59.6439648  51.3255548
  25.8371496  59.2564344  50.1525021  22.7271032  54.4359350  57.3035288
  22.0267296  54.2877102  56.6681290  22.8854036  53.5749626  57.6907015
  86.6021858  64.3613573  13.6538895  87.5003348  64.4073816  13.9816673
  86.2900530  63.4998556  13.9306934  44.8175829   7.5273892  48.5141134
  44.0078717   7.9789445  48.2760143  45.1458519   8.0087563  49.2735577
  47.2847348   7.9139230  18.4933507  46.8155949   7.4070069  19.1560578
  48.1297582   7.4724767  18.4079456  19.7291183  47.9633856  34.1096973
  19.6392238  47.2533464  33.4740949  19.1899002  48.6709023  33.7562847
  30.6145859  65.2535582  15.5975604  31.5125680  64.9222040  15.6056547
  30.0883412  64.5119953  15.2985930  49.8299216  24.7878166  12.7954491
  49.8328541  25.4361816  12.0912846  49.3014006  24.0662714  12.4544628
   8.3694857  17.7327439  42.7814388   8.8725131  17.4848268  43.5571527
   9.0191620  18.0997560  42.1818924  72.2496670  25.8124444  50.2492142
  71.6185873  25.7544133  49.5318508  72.4349707  26.7480466  50.3301001
  82.7020392  73.3144712  68.2164478  83.6507225  73.4409666  68.2012558
  82.3423329  74.2014122  68.2299900  43.7272215  82.5148106  12.0580757
  43.1446981  82.9271889  12.6959181  43.8354349  83.1732273  11.3717818
  20.8962107  66.3594675  33.3386564  20.2509475  66.9625902  33.7075901
  21.5533948  66.2610149  34.0276027  77.9182234  82.3904896  26.6221333
  77.2893599  82.9316330  26.1447287  78.7703267  82.7740574  26.4147115
  55.5913060   0.9659287  66.0530901  56.1410611   1.6014573  66.5114641
  55.4625433   0.2598187  66.6863823  85.8532852  72.5403738  36.4281845
  85.1278985  73.0907345  36.1329722  86.1268501  72.0639277  35.6443524
   4.8451221  57.2549582  50.0500584   4.3098009  57.8847647  50.5327654
   5.0077981  57.6761150  49.2060232  73.1983672  31.6441341   4.8022802
  72.9971300  32.3271414   4.1625651  73.4486018  32.1225210   5.5926998
  37.9195690  73.0478859  33.0760694  38.3125639  72.5254154  32.3769188
  37.1697974  72.5301743  33.3694172  78.2600897  21.3642976  43.6548185
  78.7540453  21.7146108  44.3961143  78.7129801  21.7042729  42.8831100
  19.0222538  50.0035667   1.7307834  18.2671106  49.4367123   1.8878378
  19.7471499  49.5660257   2.1772286  68.0474012  14.0663907  48.7027025
  67.6226943  14.0089223  47.8468084  67.3359816  14.2698762  49.3099165
  57.7671473   5.7338712  56.9510269  57.5883835   5.1943299  57.7212048
  58.0531710   5.1106736  56.2831640   3.0632296  76.5559816  46.6225386
   2.3080207  77.0269394  46.2702751   3.2732481  77.0144892  47.4361038
  72.9023109  30.5127813  69.2081894  72.3585615  30.4102660  69.9892522
  72.3247085  30.9267141  68.5668872  16.9260395  72.6364040  32.9834247
  16.8131518  73.4486103  32.4896479  17.4767876  72.8825092  33.7266231
  83.6736675  35.5555913  63.5780239  83.0541297  36.1925408  63.9339733
  83.4949156  34.7503659  64.0637159  66.2317303  64.3765831  49.6922112
  66.5042427  65.0959206  50.2618790  67.0061019  64.1828489  49.1639614
  54.5879238  14.8102376  49.2634106  54.3998759  14.2245957  48.5300016
  54.5440071  15.6887052  48.8857889  52.9979914  10.1524255  24.7636390
  52.3259704   9.7917363  25.3420162  53.6666506  10.4941079  25.3572536
  74.2905092  66.1853647  26.7121482  74.3677950  67.1269131  26.8662214
  73.7504005  65.8677912  27.4357939  69.0761798   4.4444940  53.2552290
  69.3850534   3.5395810  53.2108593  69.4447058   4.7836396  54.0709496
  57.8094809  21.1618134  56.3472319  58.5564154  21.5571305  56.7967272
  57.0694321  21.7263982  56.5704155  29.6219468  47.1610785  65.7271814
  29.7971630  46.3586807  66.2188005  30.2547765  47.7934885  66.0675001
  76.9416991  68.4831238  56.8827724  76.3510242  67.7670717  57.1164560
  77.3523191  68.7345600  57.7100611  30.2714550   3.1918427  45.7294989
  30.4312802   3.0174348  44.8019886  31.1005074   2.9813096  46.1591244
  30.0351930  69.3940115  65.6626654  29.0859556  69.4312286  65.7801294
  30.1681137  68.7164307  64.9997568  30.6706116  26.2251756  33.1322765
  31.5427061  26.5564534  33.3466005  30.1641308  26.3468930  33.9353299
  11.9341183  59.7278404  49.0410757  12.7024651  59.9620485  49.5616770
  11.6170895  58.9147949  49.4343758  40.9670115  68.8925409  67.6347923
  41.4885473  69.4576931  67.0648479  41.1441946  69.2146492  68.5185814
  19.7567618  59.3111324  47.9903078  18.9290488  59.7897577  48.0355072
  19.5096004  58.4317017  47.7044010  24.2205739  58.8110209  43.6039639
  25.1473832  58.6921263  43.3963060  23.9426017  59.5403099  43.0497980
  65.8746236   6.9453618  48.1845760  65.1055568   7.0374772  47.6221895
  65.9355991   6.0054109  48.3548975  34.5272541  55.0645161  27.0192289
  35.3655171  55.2227736  27.4533987  34.0192270  54.5612335  27.6555037
  39.8354607  10.8378407  30.5834126  40.4518729  11.4429566  30.1709843
  39.2864864  11.3945577  31.1356163  18.2107282  70.3818989  39.1861916
  17.3559523  70.8044386  39.1022301  18.3687937  70.3465414  40.1295900
  23.9152956  35.7566023  47.1929741  23.2830119  35.5068374  47.8668165
  23.5324669  36.5309191  46.7805290  60.7412737  17.5914189   5.6979626
  61.6841596  17.5951001   5.8628386  60.6638019  17.6841733   4.7484219
  13.4727871  83.1430340  60.3675222  13.2166803  82.9622555  59.4631100
  13.2401299  82.3472977  60.8459520  79.1791456  13.4698865  14.9738383
  79.1057842  12.6517961  15.4653502  79.1349953  14.1548917  15.6409550
  40.5840826  70.0086784  20.5287910  41.5288115  70.1538324  20.4773116
  40.3205299  69.8247814  19.6271491  20.0133353   8.5041139  46.2955475
  20.0751131   9.1417977  47.0067215  20.5676597   7.7764604  46.5774822
  50.1327658  80.9585381  43.0041361  50.7165766  80.2019119  42.9502153
  50.4688931  81.5677452  42.3467779  55.7113521   3.5515496  65.1098919
  56.3013666   3.6155889  64.3588877  55.5439108   2.6137826  65.2036428
  36.8408000  18.3450219  22.9255843  36.8494820  18.9407441  22.1764016
  37.5891858  18.6171910  23.4566903  23.0118871  69.4042444  69.5804024
  22.3749471  68.9523077  70.1338339  22.9359269  68.9750099  68.7282133
   8.6713094  79.3189526  29.1709948   8.3470392  78.6994696  29.8246932
   8.5230303  78.8818026  28.3324575   6.3382500  72.4552631  56.4542675
   6.4184856  72.2284603  55.5277920   7.1468478  72.9258871  56.6565418
  60.8265395  26.6892858   8.6279877  61.7210392  26.3955208   8.4553536
  60.9127861  27.6249023   8.8107880  26.9217118   6.8906495  50.2747822
  27.7045005   7.2057721  50.7266331  26.7481571   6.0341737  50.6653833
  35.1896136  13.7664697  46.7736578  35.5442768  13.1462094  47.4106216
  35.0024991  13.2346818  46.0000801  24.6612430  65.3521633  47.7623606
  23.7816310  65.4900217  47.4109221  24.5646453  64.6174908  48.3682966
  26.9815663   0.3205487  38.1469226  27.5445860   0.3896710  37.3759103
  27.4045878   0.8746621  38.8028574  11.2091076  49.5151663  65.0448990
  11.7700469  48.7508392  65.1767302  10.3258467  49.1539669  64.9699593
  22.9110639  11.1488530  33.6644435  23.6707234  11.5133950  34.1186023
  22.4388819  10.6622121  34.3400574  19.1790509  57.2422695  59.1114235
  20.0782275  57.1535254  58.7954473  19.0731657  56.5255404  59.7369719
  11.3931453  43.1556702  36.8816400  11.0405195  42.9665899  37.7512002
  11.8006015  42.3349714  36.6047621  46.9902086  65.5533409   4.9472409
  46.4809847  66.1934948   5.4443634  47.3937273  66.0622454   4.2440891
  84.4523048  39.1099524  43.3984709  84.6959433  38.4560394  42.7432823
  84.1835645  38.5968637  44.1605377  54.0073626  30.2325627  10.8874238
  54.8135178  30.2545068  10.3718042  54.2515676  29.7797009  11.6945887
  39.5808268  69.2138052  18.1333733  39.0090728  69.8362160  17.6839983
  40.0552654  68.7725782  17.4287772  82.8312638  44.8112583  49.5712280
  83.3058822  44.0012074  49.7577238  82.7256796  44.8133898  48.6198711
  27.1375350  20.9593770  52.8431416  26.4411288  20.5625913  52.3198700
  26.6795408  21.3857839  53.5674667  24.2039132  51.8339777  41.1145020
  24.6323228  50.9982872  40.9292507  24.5554924  52.4342918  40.4570532
  46.5740512  32.3527666  11.0116299  47.2056125  33.0444713  10.8143814
  45.8410452  32.8085752  11.4253624  35.3298890   0.8251187  32.2838783
  35.4899859  -0.0453284  32.6484680  35.8587252   0.8517644  31.4864731
  70.9091380  72.7029943  52.5751686  70.8640733  73.0962276  51.7036390
  70.4376891  71.8744421  52.4887609  12.5124824  52.6782846  49.1906404
  12.2927415  53.5127401  49.6049213  11.7637801  52.1126032  49.3795395
  34.1007304  82.2592640  19.1077125  33.7623429  82.2469902  18.2124054
  34.9343038  81.7916965  19.0551400  46.0386389  76.1807059  20.8118446
  46.9311552  75.9059118  20.6017693  45.5661660  76.1148714  19.9819859
  53.8958352   7.4553868  12.5906134  54.6286934   7.7898595  12.0736265
  54.2177170   7.4580285  13.4920657  66.6241329   3.8940808  33.1117725
  67.5601714   3.9201924  33.3102226  66.5372651   3.2008645  32.4574542
  78.9390019  37.8464818  54.9014139  78.7445197  38.4272552  55.6370163
  78.9990351  36.9753051  55.2934361   8.9533877  54.9721384  67.6340055
   9.7806668  55.3822565  67.8862810   9.0957659  54.0367508  67.7789688
  26.8959960   7.8183743  28.7796497  27.0698412   8.2262227  29.6279788
  26.3227933   7.0790479  28.9823103  76.8151215  69.4611645  32.3852348
  76.3441268  68.9116716  33.0116940  76.1545006  70.0717783  32.0581889
  51.5729523  60.2835083  54.4860172  51.4848948  60.1824856  53.5382462
  50.6735849  60.2667284  54.8132610  44.4029903  44.1418648  14.2348421
  43.4619236  43.9782047  14.1729414  44.6942854  44.2115784  13.3257115
  79.7965190  48.9952755  23.1866765  79.2083415  49.7409153  23.0671096
  79.2600176  48.3349323  23.6252475   5.7681137  54.8546886  46.9269943
   6.5354782  55.3926420  47.1219063   6.0628122  54.2571545  46.2397242
  27.3792867  17.5223634  16.1018777  28.0422168  18.1022355  16.4767110
  26.5972274  17.6789758  16.6311109  53.2936430  81.0787868  19.7411120
  53.3676815  80.6345749  20.5857563  52.8341150  80.4532433  19.1809738
  78.0174211  53.5692978  60.5636358  77.1170214  53.2619619  60.4584885
  78.1446281  54.1884899  59.8448467  84.6766853  62.8669024  28.0004096
  84.2575875  62.3183632  28.6635041  85.1272354  63.5465813  28.5016870
  54.5132051  34.5632740   6.8439587  54.3580414  33.6560293   6.5811546
  53.6492507  34.9738737   6.8089636   2.9187715  81.5066719  44.8752928
   3.5140818  80.8844757  44.4573164   3.0291510  81.3506794  45.8132219
  26.9200478  11.2522313  32.4447012  26.3977622  11.6249177  33.1550169
  26.5061008  10.4091737  32.2599101  10.0302291  63.3757973  44.9345636
  10.9802938  63.2592440  44.9294424   9.7875494  63.3240032  45.8590412
  69.6977632  27.4430558  63.8020563  69.6011370  26.5144059  64.0130138
  69.5932358  27.4848649  62.8515005  40.5348015  68.4775257  42.7910757
  40.2305508  68.1900883  41.9302368  41.0943937  67.7640915  43.0978346
  35.8868264   3.5853669  16.3649189  36.7694019   3.2308099  16.4725399
  35.3153907   2.8179547  16.3926351  60.0778389  67.2774744  53.0078268
  59.2970800  66.9367695  52.5712872  59.7370625  67.8314400  53.7101316
  76.4244717   6.2914655  65.5217218  76.3194769   5.5709073  64.9004269
  75.8102720   6.9602582  65.2188873  25.0638015  22.4886413   2.1454819
  25.1059682  22.7600809   1.2285431  24.4012888  21.7979332   2.1605690
  34.5492895  18.8831230   7.2976263  34.0127332  19.3705126   7.9227646
  34.1038806  18.9989086   6.4583214   6.9126439  58.1341362  47.9840040
   7.1285707  58.1963730  47.0535564   7.4806833  58.7791300  48.4053707
  22.1219826  79.7023630  55.2351522  23.0003595  79.7254324  55.6148338
  21.6006327  80.2698231  55.8029747  21.4188051  63.0196428  33.6812663
  21.5745497  62.0755053  33.7053823  22.2941709  63.4068966  33.6823201
  45.9981966  78.3674335  24.6433592  45.3923273  78.9017773  24.1299081
  46.8525839  78.5187864  24.2392063  38.1381582   7.6428506  13.1235480
  38.3487540   7.4621865  14.0396476  38.9597206   7.9576776  12.7465153
  24.1564178  67.6136827  56.0520697  23.7289667  67.4071741  56.8832541
  23.4409666  67.8793049  55.4743099  10.1778269  59.8878193  25.0911808
   9.3795413  60.4159975  25.0918031   9.8897332  59.0180111  25.3680730
  16.7041516  54.1597795  25.0583792  16.8404746  55.1006269  24.9467587
  15.8687568  54.0920019  25.5207133  45.5779362  79.5415211  38.6942577
  45.3319979  79.0668678  37.9002500  46.5164185  79.3789864  38.7894726
  41.1667745   2.4378869  34.6681833  40.5541842   1.9137284  34.1522169
  41.2736791   1.9478223  35.4834390  39.2633843  61.4573717  26.3033128
  39.8525500  62.1333933  25.9684873  39.6522260  61.1921692  27.1368003
  84.1941354  41.6247654  22.4385095  84.9509859  41.7908049  21.8765116
  83.9550066  40.7160759  22.2559404  81.1667476   5.7374664   0.5343207
  81.6610871   6.5220114   0.2969320  80.2498232   6.0071989   0.4820974
  22.5563169  70.3735304  40.1422834  22.2522140  70.8358717  39.3612623
  22.9861426  71.0482407  40.6678772  53.2641499  16.2557980  70.0657558
  52.8992026  15.4289624  70.3810215  54.1914218  16.0682485  69.9200678
  63.4160583  12.5466916  44.0419769  62.9135602  13.0233476  43.3812761
  64.3305700  12.7104756  43.8115931  72.2722023  15.9012601  29.6055245
  72.6397865  15.5239484  30.4047441  71.3278168  15.7709977  29.6915269
  76.1476438  10.3692719  43.2059956  76.8436497  10.9652898  42.9292822
  76.2042683   9.6347615  42.5948334   1.6161054  68.8057280  61.3237190
   1.2994978  67.9437494  61.0535574   1.9802776  69.1881514  60.5253696
  18.9064556  17.4036977  32.2180867  19.1802328  18.1633470  32.7320933
  19.4970136  17.3987576  31.4647961  22.4089050  57.1293211  10.6971157
  22.8574109  57.9383993  10.9430134  21.9863963  57.3337173   9.8628855
  37.7368658  22.0078847  51.0337925  37.7434771  22.3919961  50.1570702
  38.4885096  21.4152524  51.0413074  28.7891722  42.1310616  28.4662676
  29.3226838  41.8516922  27.7222586  29.3595123  42.0164824  29.2264104
  74.0819612  79.2469025  26.1890888  74.4908443  79.7440863  26.8975043
  73.9243892  79.8944139  25.5019689  67.0678656   5.3476331  61.6123343
  67.8435963   5.8860585  61.4555883  66.4827125   5.5525872  60.8830738
  24.8951258   3.5778138  27.1856260  24.1895979   3.7982079  26.5774465
  25.3380122   2.8330514  26.7789149  56.8004792  10.0571725  68.6457539
  57.3412769  10.8238694  68.4561253  56.8737500   9.9407575  69.5930195
  17.6712883  55.5488729  49.9489450  17.3428559  55.3479815  49.0725851
  18.6224759  55.4755020  49.8708963  36.3741803  79.6821260  31.7920756
  37.1584678  80.0444126  32.2042274  36.3343024  80.1091480  30.9363365
  21.9606256  58.9259195  61.9510317  22.1027541  58.8904190  61.0051107
  22.7697492  58.5802460  62.3279476  55.6122010  15.7741258  65.3596544
  55.5138677  15.5990502  64.4237518  55.0503867  16.5319440  65.5218840
  58.4983223  10.8425805  39.1728902  57.6450556  11.0999486  39.5220757
  58.8386648  10.2150342  39.8105264  23.5754442  79.5821905  36.3408279
  23.7759757  79.1171217  35.5285883  24.3563390  80.1076317  36.5150189
  66.8635896  57.2035122  50.5514717  66.9128302  56.2724304  50.3349304
  66.2643054  57.2447300  51.2967157  53.2802486  63.8589621  26.2552905
  53.5177279  62.9571676  26.0394073  53.9898825  64.3874788  25.8901596
  39.9217963  73.9365911  66.4391756  39.5127487  73.0800247  66.3158417
  40.8518791  73.7841606  66.2720060  18.9367914  62.1910763   4.1428572
  18.6614633  61.9673681   5.0318915  18.8315392  63.1410789   4.0914339
  56.3869160   8.9064977   6.3559967  56.8321817   9.5522782   6.9045711
  56.1747067   9.3807218   5.5520624  64.9276924  64.0620470   6.6593325
  64.4311094  64.8711061   6.5365940  64.3656254  63.3783865   6.2947530
  66.3146639  66.7622471  54.4203854  66.4158010  65.9074020  54.8390007
  65.3678083  66.8857908  54.3537664  50.3727293  56.4160728  25.1541114
  50.9478617  56.3993406  24.3891430  49.5460510  56.0495281  24.8402977
  48.1532431  80.9933949   5.6554300  48.9982224  80.9577465   6.1037290
  47.6447058  81.6333961   6.1534476  32.2737708  13.4205529  53.8671398
  31.8163403  13.8733766  54.5756102  31.6563054  12.7509496  53.5728502
  51.9333332  20.3419206  63.1259346  52.3808616  21.0437200  62.6532507
  52.6305359  19.8921391  63.6032581  30.0094438  71.7710114  17.3230302
  30.9149957  71.7761898  17.6331604  30.0557041  72.1434879  16.4424908
   8.6162574   4.7238637  53.1395749   7.9615433   4.9637223  52.4837951
   8.1042177   4.4253160  53.8911847  10.8255756  70.1768208  32.1770692
  11.0662687  69.2564917  32.0708084  10.6197286  70.4744101  31.2908983
  84.2306338  45.1320310  14.8738487  83.5043345  44.7989889  14.3467720
  84.3578397  44.4690462  15.5524548  30.7701220  21.0603044  40.5610752
  30.8706473  20.6034467  39.7259688  29.8246840  21.0841367  40.7087612
  35.1898473   1.3418862  58.5616064  35.0765639   0.3975388  58.4538507
  35.8833616   1.4268109  59.2158651  42.8108549  71.4515781  26.8737411
  43.0402803  72.0322990  26.1482382  41.9338703  71.7312431  27.1362710
  57.1389532  77.2359800  32.7593803  57.1195698  77.5169659  31.8445563
  57.7912617  76.5357971  32.7811074  56.8665617  25.0966165  41.5097141
  57.3217719  25.0505540  40.6689405  56.9958990  24.2321202  41.8997812
  15.5773473  65.7113218  17.8989196  16.1365652  65.5118752  17.1481013
  16.1774385  65.7378197  18.6441839  34.3090048   5.2966115  55.9869671
  34.3229189   6.1946008  55.6558418  35.0766267   4.8835847  55.5914879
   7.1106761   7.5931451  33.3566833   6.6279023   8.3774850  33.6173964
   6.5730732   7.1981046  32.6702762  23.5270285  13.3188436  50.8611584
  23.2754844  14.2067048  51.1154461  23.9537226  12.9588220  51.6386843
  23.0563831  71.1257172  11.6199315  23.1020284  70.7501650  10.7406652
  22.9130363  72.0607805  11.4738476  85.4747789   5.4054830  22.7718568
  85.8294027   5.3646085  21.8837094  84.7566908   6.0357663  22.7142668
  78.4119003  21.4162919  54.7128677  77.5986450  21.9149587  54.6343136
  78.1515901  20.5989263  55.1375771  52.7717703  19.1166207  59.9452734
  52.4533408  18.4505174  60.5544806  51.9900077  19.4020268  59.4723845
  63.3382314   1.8090436  44.5430422  63.5493176   1.7164227  45.4720736
  64.0638011   1.3808248  44.0887165  23.0625653  80.6038952  23.2367158
  23.0085087  80.2440739  22.3513699  23.8704586  81.1172581  23.2377005
  79.1615217  11.1221120  35.5675030  78.3474701  11.3759419  35.1326323
  79.6901863  10.7268140  34.8743320   6.7095127   0.2459523  39.8963428
   7.2927751   0.9554002  40.1660204   6.8576469  -0.4445842  40.5424404
  43.2054370  15.2807042  16.0599875  42.7317648  16.1093900  16.1316872
  42.5979238  14.6960065  15.6069028  31.1385965  61.9363928  65.5924511
  30.2202749  61.7484379  65.3985786  31.5541172  62.0120096  64.7334623
  19.2368972  66.9866896  63.0561113  19.0171552  67.5322199  63.8113213
  19.8722410  66.3552475  63.3935308  63.5122841   1.1018464  35.3306103
  62.8522318   1.2924954  34.6641183  63.0076783   0.9364507  36.1270094
  23.9179523  37.3475452   7.8810318  24.8704727  37.3330065   7.9744490
  23.6226614  36.5460678   8.3130844  39.9064302  61.6158390  46.0884666
  40.8033943  61.4525843  45.7968664  39.8354793  62.5698042  46.1223555
  70.9708803  11.3339040  19.4021785  71.6858929  11.4019105  20.0349188
  70.2912205  10.8401296  19.8609567  57.2534697   4.5149896  26.1473942
  58.0750006   4.9998090  26.0681963  57.2242658   3.9638421  25.3653359
  72.5347107   0.5360219  36.3468790  71.6936129   0.5267522  36.8037200
  72.3967617   1.1223599  35.6029630  68.4996734  15.6273504   4.6449955
  68.5397534  14.7788473   5.0861986  68.6557303  15.4252287   3.7224825
  33.0001640  82.5411510  13.8465273  33.4545231  82.1023560  13.1273258
  32.2826505  83.0132389  13.4239829  84.2943794  78.9828920  52.8150034
  84.5290145  79.8559713  52.5005102  84.6547332  78.3869219  52.1583462
  52.1201038  78.7935877  42.9053211  53.0634737  78.6328745  42.8841019
  51.7965126  78.4294653  42.0813465  20.1201153  70.6884527  71.7416239
  19.8236489  70.0868416  71.0586834  20.0030875  71.5590000  71.3612509
   8.3829623  60.9839392  48.5675526   9.0984166  60.7542515  47.9745960
   8.7883067  61.0068846  49.4343853  84.2965143  17.7739140  62.8067875
  84.7900551  17.0270917  63.1457615  83.4876554  17.3917863  62.4662542
   6.4208825  65.6888719   4.6661289   5.8185155  65.6252237   5.4073008
   6.1076696  65.0306555   4.0457352  59.9171727  22.1462533  44.4785690
  59.8267239  23.0455205  44.7937870  59.2190974  22.0480725  43.8310480
  26.2162878  23.2834146  47.7210331  25.4594123  22.8630540  47.3127747
  25.8653902  23.6921975  48.5122299  27.8067150  18.7601945  11.7246592
  27.7995384  17.8313443  11.9557548  28.6128298  19.0979001  12.1149993
  48.1044054  71.9344044  66.7953062  48.3574963  72.7862692  66.4396381
  47.5185299  71.5637732  66.1352921  35.2176285  47.5445127  16.6947269
  35.5621123  47.3075104  17.5557685  34.2948675  47.7440786  16.8525755
  56.8154764  74.1521692  43.2774305  56.8069792  74.3691826  44.2096663
  56.4426613  73.2716751  43.2330751  75.2796047   9.8491380  49.7824240
  76.1404865  10.2592465  49.8656464  74.9598377  10.1350018  48.9267015
  36.5597367  55.7161951  28.8517570  37.4855351  55.7099915  28.6086679
  36.5391684  55.3279495  29.7264409  73.7531805  80.1402950  62.7203131
  72.8617334  80.0177765  62.3939085  74.1891336  79.3063450  62.5450993
  65.0437754  15.3447816  44.2078161  65.5269473  14.8760316  43.5273361
  65.4934137  16.1863324  44.2842770  66.8174839  68.0701113  10.3664529
  65.9931850  68.5006380  10.5931938  66.5561104  67.2091103  10.0399649
  13.0813015  61.3480186  27.4960327  13.8793182  61.8433905  27.3116255
  13.0097699  61.3557625  28.4505248  49.6896076  49.9235249  43.9310646
  50.4612541  50.3250360  44.3305492  48.9787817  50.5384779  44.1121292
  40.1145840  77.8940582  42.9866314  40.4637432  78.4589672  42.2972870
  39.1822147  78.1077576  43.0220795  46.1703110  78.8980722  49.1981220
  45.8434248  78.7515211  48.3104849  46.9476604  79.4439697  49.0800047
  31.9453788  82.0002270  34.4827127  31.8848062  82.9462719  34.3502021
  32.0985556  81.6450596  33.6071420  81.7780116  68.3193493  49.9117756
  81.8476179  68.5460901  48.9844227  81.6227773  67.3748350  49.9164057
  20.2052045  14.6891522  33.9715314  19.5917606  15.0255287  33.3182549
  19.7287023  13.9814591  34.4055223  50.3921954  53.4917715  50.8852196
  50.2307228  53.2772115  51.8039799  49.8227719  54.2411020  50.7106018
  58.1043282  77.7649966   6.9244623  58.8302890  78.0896345   6.3917118
  58.2353420  76.8173250   6.9558489   0.4600804  17.7754366  28.3450627
   1.4130591  17.8632784  28.3637023   0.1640956  18.2064617  29.1468382
  42.9802106  64.5179847  41.9237137  43.3337317  63.7032762  42.2807932
  42.0337723  64.4418195  42.0449018  72.8686097   3.0981162  58.1276226
  73.7882117   2.9136807  57.9364491  72.8956404   3.7492654  58.8286972
  11.3150268  78.7178497  46.7303364  11.8924456  79.2149238  46.1509101
  11.5510552  79.0090994  47.6110713  17.2996998  23.4147120  26.0688996
  16.4804530  23.8956547  26.1862087  17.8911114  23.7857175  26.7237425
   0.8717640   9.2970902   1.7862254   0.9642030   9.9375319   1.0808736
   0.4479537   9.7809809   2.4950743  43.0008655  73.4060530  66.0439168
  43.0163329  74.3141011  65.7415251  43.6017625  72.9477171  65.4564802
  11.8118672  64.8422627  62.7019576  12.1223896  65.2342204  61.8857614
  12.2728937  65.3232507  63.3892260   2.4178128  10.9623718  19.6529257
   2.2305594  11.0560381  20.5869460   1.7828783  11.5351117  19.2227423
   2.4965911  34.3288827  51.2221384   1.6349378  34.0768504  51.5541983
   2.6716256  35.1771045  51.6297054   2.1399739  17.9304433  49.3487310
   1.9737770  18.7681341  49.7810316   2.1225293  17.2874713  50.0576162
  27.8015113  38.0143301  57.7156870  26.8710141  37.9169838  57.5133733
  28.1378126  38.5871805  57.0265023  64.8963294  80.5510363  37.9963160
  65.4795072  80.2274045  38.6829019  65.4040883  81.2292024  37.5507808
  80.4070070  15.0827599  57.8762102  80.6480828  15.9488213  58.2049227
  79.5460942  14.9126065  58.2584524  10.8716202   6.3415092  64.3669653
  10.3286850   5.6546783  63.9800358  11.5810657   5.8690947  64.8025608
  76.7100552  20.1035357  63.2648706  76.3819900  20.9963155  63.3723545
  77.6414815  20.2121282  63.0728197  85.0944120  30.2178955  39.6582127
  85.8939788  29.6923351  39.6315742  85.3327167  30.9907103  40.1702690
  82.3574868  45.9530210  41.2811327  82.9948750  45.3205824  41.6127729
  82.8382948  46.7797995  41.2424278   6.6608727  14.7131228  61.6304207
   6.8686956  14.0460813  62.2847128   6.7116398  15.5411053  62.1080208
   4.9104542  33.9026403  33.9410734   5.6581843  34.4566584  33.7170267
   4.1572088  34.3490386  33.5543156  16.2534964  14.0309608  12.4944925
  15.6302011  14.7167575  12.2548723  15.7104731  13.3271825  12.8495347
   9.4220805  38.0935979   6.9171864   8.9994138  38.7900519   6.4146543
   8.7401521  37.4312544   7.0290154  54.1509325  82.3082974   2.4126449
  54.6460513  81.6357002   2.8803009  53.3590339  82.4303280   2.9363215
  12.1658473  56.3756768  45.0068251  12.6193266  57.0725374  44.5325105
  12.8583460  55.9249763  45.4900901  56.2554056  79.6227464  16.6505718
  56.9920040  79.5468709  16.0440254  55.8463989  78.7573934  16.6400957
  83.3867619  34.0826082  25.8019829  83.8610172  34.5518351  25.1155877
  82.4694029  34.1266680  25.5322742  79.6651206  25.4213285  33.3222556
  80.1304701  24.9288893  33.9984083  79.9660310  26.3232350  33.4329462
   6.6864645   5.9778410   6.0811555   6.0490751   6.6412437   5.8168381
   6.9924766   5.5981094   5.2575099   9.3034768  28.2922721  62.0784378
   9.3655568  29.0247965  61.4654207   9.2822093  27.5145102  61.5208864
  46.1596420   8.6873412  25.9786892  45.6192663   8.0283761  25.5428100
  46.8498352   8.8875109  25.3463888  21.0170388  46.2907934  63.5168695
  20.4111886  45.6640530  63.1214285  21.6490388  46.4827728  62.8240824
  76.1736944   5.4358888   7.4208653  76.1381069   6.1574340   6.7929024
  77.0987883   5.1922441   7.4535733  63.7413052   0.5257596  58.2649374
  64.3456009   1.1549561  57.8710175  64.1061619   0.3545322  59.1331530
   6.3959444  49.2284298  24.0700412   7.0354718  49.6425772  24.6494532
   5.5539560  49.5924139  24.3435454  82.4028018  36.1666441  41.6672087
  81.9186190  35.3562021  41.8252563  82.1537975  36.7397046  42.3923492
  14.4905543  52.2642803  20.0646377  14.8615730  52.3321152  19.1848779
  13.6426735  51.8394279  19.9348986  35.2269864  33.7979770  37.1366501
  34.6712184  34.2938638  37.7378583  35.6445098  33.1357837  37.6874709
  84.0073952  27.5262475   2.2396758  83.2452226  27.9225850   2.6618606
  84.5114535  27.1490669   2.9607111  30.6867155  34.9826806   5.0346096
  30.8825443  34.3165343   5.6934937  29.7998521  35.2746635   5.2454432
  68.2306627  28.0142903  15.2449393  67.7024964  28.6991572  15.6551015
  67.8729919  27.1965647  15.5908084  77.6653376  46.7093897  25.7750058
  76.8044344  47.1145439  25.8795428  77.5125435  45.7778931  25.9337687
  65.3604463  17.7783465  23.3149052  64.4199541  17.7555370  23.1382990
  65.5642393  18.7089968  23.4075880  20.8766770  35.4941368  31.7340088
  20.3600097  34.7079062  31.9104505  21.7826915  35.1859403  31.7143726
  79.1478649  15.1675606  50.1395035  78.2822707  15.2137566  50.5455160
  79.7598431  15.2184355  50.8737564  78.5816565   4.6697673  14.5247984
  79.2136726   5.1972747  15.0131869  78.5503551   3.8368767  14.9954844
  76.5209571  19.1133654  56.3750267  75.5879703  19.1453803  56.5865517
  76.5496436  18.8337898  55.4600143  14.3633032  16.1848605  12.1747899
  14.0443265  16.6793382  12.9297578  13.9776206  16.6270769  11.4185321
  17.2471094  30.6685400  24.7507882  16.7486525  30.0579715  25.2939081
  17.0332742  31.5323234  25.1034737  71.3897076  77.2731066  44.9314737
  70.5149058  77.3507452  44.5507812  71.2324575  77.0943785  45.8585978
  63.3988736  72.9859152  22.2514248  62.4514780  72.8503576  22.2686863
  63.5595233  73.6408862  22.9307175  81.6938236  16.6644847  62.6276398
  81.5452650  16.9041884  63.5423565  80.8616349  16.8509495  62.1929836
  86.7540674  42.6974344  20.6797957  87.0598528  42.4805260  19.7990692
  87.5442458  42.6764536  21.2196183  13.0279028  29.9486804  41.2034750
  13.1315970  29.0286183  40.9606504  12.3212707  29.9478126  41.8491554
  87.2640043  48.1402922   3.8140154  86.7829463  48.6281252   4.4824713
  86.6136484  47.9586363   3.1355831  57.1860035   6.0448023   4.1386469
  57.8848660   6.5281578   4.5793160  56.3970685   6.5613266   4.3030127
  79.5789370  23.4343553  69.3296242  80.3443727  23.8314867  68.9141417
  79.2196664  22.8505635  68.6615372  75.0208369   7.5944364  24.4132996
  74.5810440   8.4148085  24.6364665  75.2386931   7.2018063  25.2586460
  85.8811708  64.9232912  26.0519552  85.3273442  65.0506353  26.8222117
  85.6875892  64.0316677  25.7625318  28.2780027  26.9675970   6.4931339
  27.9739738  26.2412977   7.0374548  28.4498978  26.5711784   5.6390059
  43.8066981  78.9425239  40.7954979  44.4512246  79.1632608  40.1231146
  43.4004793  78.1345472  40.4818201   2.3505411  79.7036159  64.7913837
   2.4963913  79.9463242  63.8770247   3.1882010  79.8757365  65.2214241
  12.6306164   9.5375812  28.6568022  13.3884084  10.0721133  28.8939905
  12.6705837   8.7883013  29.2511201  75.1392523  49.3179893  13.7932670
  75.0564769  49.2625713  12.8412640  75.7327154  48.6033201  14.0240884
  27.9611931  82.1409431  45.7888746  27.3821078  82.1555465  46.5508986
  28.1535516  83.0626417  45.6165314  51.5389154  80.2464029  52.6823854
  51.6963069  79.3022880  52.6927137  52.3726086  80.6311764  52.9528236
  75.0140432  55.6773520  30.7775855  74.1328207  55.3864145  31.0121822
  75.3048948  55.0503922  30.1153469   8.1048656  29.4830942  31.3907242
   7.6702702  28.9858842  32.0836449   7.5477451  29.3600464  30.6221485
  47.0519791   0.3550578  70.7832094  46.6474984   0.8141614  70.0471042
  47.7347241  -0.1837348  70.3834617  17.9066396  50.3597021  34.9097729
  18.7247670  50.7315111  34.5801425  17.8348470  50.6937647  35.8039093
   5.8381361  38.1026316  38.1932044   5.7355958  38.6955595  37.4487901
   6.7834395  37.9710722  38.2661796  21.5897846  68.0413103  18.7002718
  22.2614527  68.0118561  18.0189300  20.9493423  67.3816729  18.4339237
  82.0742920  14.3216443  32.0955133  81.5916672  13.7302125  31.5180063
  82.5302568  14.9175429  31.5011787  53.3476345  82.6480107  69.4306485
  52.7578490  82.6171402  70.1839304  52.8515499  83.1130413  68.7569461
   3.6574033  66.6820049  32.5506258   3.1080335  67.2963667  33.0374336
   3.8293749  65.9722757  33.1694484  21.0383241  63.8395623  67.7996050
  21.3997375  62.9533533  67.8152789  20.1893764  63.7597350  68.2345156
  26.0768533   7.3248297  16.4287257  26.3731027   8.1648362  16.7792344
  26.5010285   7.2593123  15.5731475   0.7002680  49.6011114  32.8801823
   0.9371592  50.3551340  33.4201527   0.1967762  49.0357685  33.4659410
   5.1255560  48.1169844  47.2946072   5.1876062  48.7472868  48.0123091
   4.1984659  48.1157398  47.0564175  14.2860377  38.4187365  37.1687007
  14.4678283  39.1001034  36.5214586  15.1066256  38.3224392  37.6520157
  81.8851230  60.2460718   6.2765759  81.2758961  60.9429884   6.0328919
  82.2068140  59.9063349   5.4415154  25.5246162  76.9880533  64.1104698
  25.3966069  77.7812195  63.5901546  25.5156708  77.2927904  65.0178242
  21.1659575  15.7912385  42.4341154  20.8092546  15.1218414  43.0179834
  21.7645931  16.2953997  42.9851961  15.4372978  42.2116709  22.1446991
  16.2816501  41.7666149  22.0724082  15.2795637  42.5694656  21.2710094
  29.6802807  54.5509529  29.4017363  29.9663496  54.1252756  30.2099442
  30.0192666  55.4436445  29.4682574  16.0251451  23.4879947  45.2137041
  15.7639980  22.5709009  45.2972126  16.9695663  23.4832406  45.3695154
  35.3265934  69.6783160   5.7245930  35.8310866  70.2013086   5.1015385
  35.9806531  69.3326806   6.3320263  70.4594663  50.0920630  21.2571931
  70.3690878  51.0147810  21.0191655  70.0421813  49.6173000  20.5383706
  21.4013076  21.9034791   9.7643197  21.6569352  21.1182761   9.2802280
  20.9852076  21.5699315  10.5592036   3.2328624  37.3087859  10.9528863
   3.2459611  36.3523078  10.9180880   4.1441849  37.5660443  10.8130980
  70.1783960   6.5032670  41.8671703  70.5611961   5.8797547  42.4843645
  69.4646232   6.0203645  41.4505672  83.2041374  60.6278181  34.9352264
  82.8889874  59.8435783  35.3845382  83.0038717  61.3451385  35.5365372
  74.2362550  38.8011074  25.2950478  73.9599922  37.8860021  25.3449750
  73.9862779  39.1732454  26.1407781  72.1753338  57.6944494  31.7614722
  72.9805163  57.7554131  32.2754717  71.5189925  58.1487751  32.2897124
  76.1539653  49.5779276  49.3279028  76.3283506  49.5015192  50.2659750
  76.5767220  48.8105249  48.9424133  15.5579805  40.9980965  57.4077320
  14.7337711  40.5194712  57.3192406  15.7622612  40.9526205  58.3417749
  73.8770238  37.4077654  36.8412185  74.7815517  37.1969318  36.6096783
  73.4777692  36.5613794  37.0423555  13.2445931  34.5272636  26.8305039
  13.5994112  35.2668786  26.3372421  12.9521263  34.9094248  27.6579356
  24.2386937  21.7787027  29.3161368  23.6120796  21.1911082  29.7384167
  24.4578409  21.3431907  28.4924054  74.8954490  63.4182930  30.0172448
  74.4925609  62.9863310  30.7704544  75.6814817  63.8339376  30.3716803
  21.6178298  14.3170619  45.4754257  22.0295024  15.0196397  44.9722910
  21.3174772  14.7420514  46.2787962  56.8855946  76.5888170  49.6964709
  56.9960182  76.7528300  50.6330268  57.2852914  77.3477606  49.2716424
   4.0724859  30.6239009  48.3373356   4.3499333  29.8213959  47.8954744
   4.5512128  31.3215423  47.8897333  76.0827807  57.8418732  57.4006081
  76.7466214  57.6543665  58.0642223  75.3231791  58.1419706  57.8997850
  69.2055741  29.3637943  36.9082737  70.0282243  29.4193029  37.3944807
  68.9774087  28.4344125  36.9289017  16.3841236  25.4977179  29.6279573
  17.0297205  25.1676536  29.0030622  16.3127387  24.8064542  30.2862072
  67.8943239  80.4840082  63.9627934  68.2615618  81.3327396  63.7157679
  67.8084538  80.5282190  64.9151087  70.9692732  50.2299500   0.7370383
  70.6200329  50.5438566  -0.0970625  71.3906279  49.3977404   0.5222788
   0.2103774  12.7005422  66.6502666   1.0933039  13.0568326  66.7489052
   0.0226478  12.7811885  65.7151270  10.8828676  13.4749031  51.8508863
  10.4880679  12.9041195  51.1916685  11.7791367  13.1514275  51.9419765
  18.3232212  19.2096770  53.1340218  18.7958002  19.9061656  52.6781654
  18.7800682  19.1177666  53.9701271  87.6919289  25.1180649  54.5077515
  87.3218621  24.2588687  54.7104025  88.6073611  24.9397850  54.2922735
   2.2186367  60.8303611  57.2963874   1.6923683  61.6206078  57.4179737
   2.7619116  61.0197453  56.5313916  28.8375187  39.1486573  12.6415157
  28.1464887  39.4019771  13.2535100  29.3339658  39.9536943  12.4942386
   3.4204143  35.8804536  23.3952117   2.9652542  35.1450419  23.8053727
   2.7839467  36.2421799  22.7785325  22.3141670  28.8331079  54.3136263
  21.5087700  28.7821770  54.8283815  22.0615339  29.3041706  53.5195827
  87.0331127  38.4097075  29.5913601  86.4501418  37.6506042  29.5796084
  87.9139323  38.0355978  29.5705843   2.1331716  48.2734919  47.0131874
   1.3807805  48.0442095  47.5586891   1.7762469  48.8619804  46.3479710
  22.1583009   4.2538068   6.7411220  23.0689907   4.0296537   6.5497345
  22.2118902   5.0704545   7.2375554  19.7196388  38.3832288  57.2504950
  19.9403942  39.0736270  57.8756714  20.2715874  37.6438832  57.5053596
  12.3900783  17.9310644  37.8717041  11.7823803  18.6690176  37.8231382
  12.3199761  17.6221097  38.7749577  56.3827303  19.7062576  72.1274805
  56.9116071  18.9434087  71.8938494  56.4606717  20.2915549  71.3740969
  73.9277974  17.1859360  55.1186228  72.9823890  17.3245466  55.0618601
  74.0238252  16.4170718  55.6806374   5.1424646  54.2386627  28.6348176
   5.5650181  54.1908121  29.4923663   5.8329308  54.5394278  28.0440307
  73.4663656  62.6427221  32.1081638  73.8182214  61.8323088  32.4764895
  72.5329986  62.4665546  31.9897413  23.5041404  44.7021675  55.1548100
  23.3284974  44.5224237  56.0784340  24.3659687  44.3172884  54.9955845
   1.5884076  45.2781677  66.5060759   1.6091441  46.0813475  67.0263720
   1.4587118  44.5801687  67.1481085  41.6938375  30.1429601   1.3581808
  42.6221977  29.9177881   1.2975605  41.6868709  31.0504146   1.6626747
  81.9984695  24.7702885  44.6065521  81.1963210  25.2584481  44.4208384
  82.6781604  25.2300262  44.1137075  21.1361909  39.5040774  21.0615492
  21.9291067  39.0202785  20.8303475  20.5957198  38.8681507  21.5302896
  83.5968426  59.9000549  12.5395083  83.8441715  60.8151102  12.4063289
  82.7246854  59.8287868  12.1515727  21.3162160  53.4936810  52.4393654
  21.7631769  52.6750898  52.6546955  22.0234871  54.1094065  52.2473145
  73.5923734  52.7835321  30.4581404  73.0200353  52.0785236  30.7608390
  73.0051842  53.5272217  30.3226161  69.4650534  48.9165640  36.5719485
  68.8486138  48.5922003  35.9154248  69.8276129  49.7142506  36.1866188
  54.2405237   5.8870645   2.0440062  53.6005251   6.5748306   1.8606575
  55.0737540   6.3509794   2.1261223  77.7981678   6.8334776  29.8920512
  78.5095635   7.0453334  30.4964232  78.2329133   6.6891414  29.0515780
   2.0751305  40.8990192  40.9279823   1.1252997  40.8696985  40.8131218
   2.3816577  40.0514984  40.6055307  80.5005786  36.3270187  31.5055823
  80.6745795  35.6857610  32.1946001  80.0553808  37.0458412  31.9542718
  60.1021251   3.1952525  68.1411825  59.6292646   3.8372232  67.6115565
  59.9311891   3.4582950  69.0455164   5.7907218  59.0444422  38.7803483
   5.3607464  58.5660934  38.0714512   5.7387513  59.9628258  38.5155702
  22.3566723  36.3435960  28.5766602  23.1311536  36.7627811  28.9517546
  21.9632244  37.0185208  28.0235720  78.6963943  55.0316191  52.8197575
  78.2803175  55.5460024  53.5115099  79.4682482  55.5413771  52.5735426
   5.9869486  36.4195633  23.3189225   6.3722062  35.8796334  22.6287889
   5.0448024  36.3829207  23.1538486  13.6068487  20.2487183  12.1315694
  13.1740272  21.1021376  12.1076047  14.5023012  20.4261351  11.8436110
  37.8304172  59.6565056   4.5779717  38.2150841  59.0642548   3.9318275
  38.3302164  60.4677439   4.4867501   4.2982787  32.4571419   3.2196200
   3.7823686  33.2489896   3.3714160   4.1334850  32.2359586   2.3030216
  80.4703561  28.1921816  41.5778637  80.3278849  27.6490164  42.3530483
  81.4215306  28.2153487  41.4731646  19.9193692  21.3865662  29.9504375
  20.2768302  22.2712994  29.8749399  20.6457329  20.8628130  30.2885342
  21.9554448  45.5732822  32.5835824  21.9754839  44.7669363  33.0989838
  22.8762317  45.8114243  32.4755383  40.4342842  57.2520924  16.9373143
  40.6316137  56.7090988  17.7004969  39.8887563  56.6952848  16.3818026
  82.5655475  45.5533934  44.6724606  82.6740405  45.0279284  45.4651451
  82.9716364  46.3937855  44.8847437   6.3484561  31.1390376  38.2186532
   6.2976658  30.7277107  37.3558307   5.4459095  31.1390948  38.5374641
  25.9555292  18.9400530  18.2022536  25.6073999  19.8193455  18.0543268
  26.8410373  19.0859175  18.5351646   7.4546987  25.7536483  58.8159704
   6.9660711  26.2749887  58.1790447   6.8344599  25.6044269  59.5296001
  28.7891221   7.1925157  59.1964340  29.1611814   7.6772726  59.9331903
  27.9866314   7.6666218  58.9785671  18.1531274   7.8388637  63.9859390
  18.6602283   8.2666165  63.2959318  17.2513938   8.1191367  63.8292408
  68.5740440  77.1755056  46.1455933  68.8493197  77.8230862  45.4966728
  69.3001955  77.1365217  46.7680208  15.3312564  77.5063848  15.2128291
  15.6732261  77.8018856  14.3690467  16.0390794  76.9824266  15.5879080
  74.3912748  40.3611612   5.6909621  75.3436139  40.2917480   5.7577717
  74.1257027  39.5696855   5.2226996   1.1939504   6.0947973  54.7450733
   1.2495857   5.8917880  55.6788397   1.2453225   7.0497388  54.7040987
  26.0332036  46.3810396  27.8580785  25.6019282  47.1670151  27.5227046
  26.3738465  45.9433746  27.0779204  78.3892503  37.2434163  10.7100189
  78.0234924  37.2850132  11.5936041  79.3363556  37.2906280  10.8403826
  17.4257076  73.7743855  36.6482425  17.9498959  73.2728672  36.0237908
  17.6451170  74.6880531  36.4657688  87.0077065  54.2603779  34.0145111
  87.7812943  54.7073746  33.6710167  87.1588416  54.2112780  34.9584270
   6.0218471  59.7572756  14.2433751   6.5736073  60.1274061  14.9324310
   5.3501552  60.4220867  14.0914106  11.2593758  45.1500940  67.4398565
  10.7392871  44.8640203  68.1907892  10.7055891  45.7921076  66.9955873
  64.3811183   2.0918699  13.7016304  63.6359049   1.5244528  13.5043343
  64.2057447   2.4195238  14.5837410  62.2723249  35.2267551  23.5714340
  61.6296199  35.5014515  22.9174423  63.1051257  35.2174187  23.0996442
  65.2162388  24.4570923  29.1090989  64.9333027  24.0633321  29.9344063
  66.1582401  24.5884013  29.2169023  20.3615117  33.2688355  57.4853230
  19.4253695  33.4671807  57.5082874  20.7669950  33.9672637  57.9991484
  84.8503548  16.9380951  31.8814731  85.5220458  16.4070487  32.3093200
  84.5819339  16.4193356  31.1231399   9.9901420  82.1858978  23.1536722
   9.7293711  81.6663647  23.9141417  10.5683243  82.8599167  23.5109329
   6.7490321  47.1883917  56.4403105   7.1470034  48.0559444  56.5124559
   6.5443480  46.9429970  57.3425961   2.3010194   7.1848530   1.9622493
   1.7765222   7.9204446   1.6459593   3.1505996   7.5707245   2.1756692
  73.7738982   8.1910586  68.1848669  73.8700953   8.6807406  67.3680496
  74.6230927   8.2783169  68.6178637  87.7394901   8.5416790  13.5626705
  87.7548443   8.7117859  14.5045097  88.6620436   8.5170313  13.3086689
  23.3181405  49.5141029  21.9304252  22.5668788  49.9828482  21.5669513
  23.8194895  49.2345619  21.1644363  21.4226723  75.5047560  24.3154478
  20.4657602  75.5253601  24.3267751  21.6634822  75.9940910  23.5288143
  19.5845532  14.5555568  26.7920566  18.9709401  14.0308273  27.3062253
  19.0579009  15.2823067  26.4593363   3.9990196  35.0477433  42.4632215
   4.7247443  35.4857349  42.0185661   4.2954484  34.9520087  43.3683157
  14.5329094  42.6062393  43.9726353  14.2253578  43.0003548  43.1563520
  15.4604995  42.8384399  44.0161180  87.3410269  37.0150924  34.7946048
  87.4456891  36.6598916  33.9119339  87.8522746  36.4277768  35.3513074
  80.3589961  18.5907483  15.0606680  81.0446951  19.1509342  14.6970201
  79.6610048  19.1969430  15.3087950  80.9347001  55.1602793   2.2995397
  81.7181876  55.5999231   2.6298344  80.2134219  55.7396030   2.5452521
  66.2021068  26.7047882  59.8781490  66.1377791  26.4904761  60.8088303
  65.5682281  27.4105787  59.7505236  83.4354359   8.0787104  58.9760399
  82.5517115   8.0729395  59.3437767  83.3196244   8.3925986  58.0792141
   7.5258696  49.3780231  36.1460662   7.1666253  50.2067041  35.8291054
   7.6937038  48.8704348  35.3520775  83.9746881  35.3340983  18.3892989
  84.6014714  35.4607105  19.1015792  84.5161599  35.2675724  17.6027775
   2.5259098  36.3505149  58.5232306   2.4035549  36.2928367  57.5756359
   3.2468006  35.7487321  58.7087202  19.7861576  46.6513062  51.1698484
  18.9497733  47.0582056  51.3959599  19.8413026  45.8844042  51.7399788
  37.6679181  16.8993852  64.3796539  38.1084721  16.1476037  63.9834547
  37.3829835  16.5851495  65.2377319  48.2272339   3.1466779  55.8790541
  47.9841280   2.2359481  56.0454941  47.6121569   3.4397289  55.2067232
  39.1030722  56.2771748   5.9316643  38.6851060  55.8993088   5.1578720
  39.4230693  55.5213617   6.4241846  80.0016001  47.2522879  51.6499710
  80.6351635  47.7192736  52.1947193  80.2291873  47.4984503  50.7533979
  25.2762032  58.4645033  60.3618240  25.1515293  58.6523247  61.2921000
  24.5214891  58.8677359  59.9328232  23.0525732  52.5021315   8.8138062
  22.9957223  52.8947496   9.6849275  23.0448079  53.2480145   8.2139492
   6.8523932  27.7717876  36.8261456   7.7058119  27.7420259  37.2586060
   6.9984961  27.3512888  35.9787560  79.0823851  71.0033145  29.0155458
  78.1400833  71.1698010  29.0396786  79.3942628  71.2659410  29.8815656
   4.5326555  32.9596186  40.3640842   3.7268037  33.3370876  40.7167196
   4.2510912  32.1511459  39.9359226  58.7706950  21.8319702  16.4297700
  58.6419156  21.0889220  17.0192838  58.1215575  22.4765420  16.7115140
  12.0366430  40.0096464  18.9823496  12.2660387  39.1258740  19.2696822
  12.0735300  40.5378819  19.7797441  76.6555992  31.0658121  51.1925888
  75.7596329  30.7372355  51.1183357  76.7822614  31.2061095  52.1309423
   5.9007984  43.7974405  46.0339212   6.3782722  43.2912207  46.6911840
   5.9084249  44.6937132  46.3698816   0.5073435  77.4420050  20.1226497
  -0.3635829  77.0672277  19.9912691   0.6699998  77.3467579  21.0611057
  14.4841206  42.9031420  32.3518729  14.9993551  43.4030390  31.7187309
  15.0189447  42.8987169  33.1457067  82.0854208  59.0035439  14.6922290
  82.3508832  58.0887794  14.7869122  82.7128461  59.3718576  14.0702057
  13.8183534  44.3111897  49.9276829  13.9241600  43.3647966  49.8308420
  13.8997996  44.6536255  49.0375519   8.3066887  24.6619844   5.9100932
   7.6680136  24.1516018   5.4122603   8.1118464  25.5722833   5.6873316
  74.2457047  49.3503952  40.6384754  74.3148497  49.8821640  41.4313650
  75.0132695  48.7791300  40.6655264   8.9267421  59.4766283  68.9035797
   9.6347052  58.9880466  69.3234730   8.5146689  58.8435316  68.3156919
  76.7608097  38.0359530  24.8126411  75.9628800  38.4349918  25.1594949
  76.5861228  37.0950341  24.8322916   0.9405041  13.5784853  39.3807888
   1.6682407  13.5436463  40.0016069   0.1581658  13.4768736  39.9228716
  83.0552682  53.8535547  28.5204220  83.1287327  52.9006767  28.4669089
  82.7084121  54.1153097  27.6675391  29.5428109  37.6223326   0.0527815
  29.8751688  36.8886065   0.5699077  29.4108105  38.3241940   0.6901177
   9.1689479   2.5813314  55.4423761   9.5885372   2.1671757  56.1964703
   8.6965126   1.8696982  55.0103903   7.3155707  38.9626408   5.4724896
   6.3949728  39.1901898   5.6026930   7.3986077  38.8315248   4.5279554
  40.3886108  75.1093344  68.7943421  41.3317387  75.2193360  68.6733372
  40.0778692  74.7672896  67.9560838  59.9039763  79.4718611  55.3648806
  60.4600588  80.2508607  55.3776789  59.4441638  79.4920045  56.2041616
  28.7912941  44.3118048  33.1889820  29.1299486  45.2021170  33.0946851
  28.5847569  44.0382051  32.2952700  18.0343509  23.1682873  41.0370922
  18.5280871  22.6309824  41.6565752  18.4214771  24.0402579  41.1147594
  17.0644014  58.0109369  13.0646427  17.2621112  57.0744668  13.0775650
  17.4172442  58.3187281  12.2297772   7.1826029  34.6680260  31.9510913
   7.0161259  35.1204967  31.1241770   7.8168648  33.9867640  31.7278743
  17.8831792  48.7650299  48.0013800  17.0586526  48.9092112  47.5370550
  17.9596257  49.5143604  48.5920525  51.8368509  26.3153887  50.2303648
  50.9166673  26.2845778  49.9685621  51.8466094  25.9495163  51.1148310
   2.4850284  33.1747198  48.5173941   2.4210781  32.2360420  48.6935425
   2.4690953  33.5825205  49.3832350  71.2073413  65.6878090   5.5112225
  70.9333113  66.0599661   4.6729860  72.0698205  66.0703278   5.6725991
  68.6538377  19.9936640  34.4429970  68.0922583  20.2795172  35.1635170
  69.4816104  20.4518533  34.5882034  26.3620567  61.3622999   0.7602312
  27.0186663  61.9135141   1.1859727  25.5374861  61.6019344   1.1831844
  22.9914331  27.2165537  23.6289811  23.9485192  27.2311211  23.6266088
  22.7477193  27.3415542  22.7118063  78.0186573  53.5680151  25.9705281
  78.3920530  53.2477522  26.7916489  77.1599820  53.1483030  25.9180951
  29.2534781  48.3607721  15.0138009  28.8163543  47.5194883  15.1456964
  29.3860340  48.7030077  15.8978450  48.6697245  59.3197823  32.0762300
  48.6077213  59.4814777  31.1348248  47.7797699  59.0835667  32.3377991
  15.2751601  29.5900226  45.5888414  14.4397521  30.0457859  45.4858541
  15.5586028  29.4042563  44.6936417  10.0850546  24.9736762  15.3825355
  10.5379069  24.8492193  14.5484686   9.1561025  24.8987055  15.1642239
  -0.1980897  14.5063400  48.5427475   0.5702533  14.1611564  48.0880737
  -0.0664631  15.4544222  48.5496378  15.1167727  33.6422706  31.0380936
  15.5334187  32.9169703  31.5034723  15.8361006  34.2390370  30.8315277
  13.8061893  47.3661947  17.3779082  14.2073882  48.2213068  17.2228098
  14.2816103  46.7700768  16.7992461  49.9215844  15.3153229  62.3032665
  49.1543582  15.6812787  61.8631887  49.8257378  14.3681550  62.2036886
  65.5463150  15.3420937  27.7306914  65.2372196  15.2995968  28.6356139
  65.2614835  14.5153999  27.3412275  15.7706451  46.0731077  58.9413881
  15.8188403  46.2021351  57.9941463  14.8489320  45.8774281  59.1098690
  87.0333216  46.7021275  59.8895836  86.7697077  45.9229136  59.4001341
  87.1618068  46.3902092  60.7853699  22.8926826  49.5123005  40.0042582
  22.5952697  49.3576622  39.1076732  22.9123497  50.4655361  40.0890255
   2.7913937   5.3069991  24.1801834   2.5323173   5.0451082  25.0636554
   2.1418260   4.8973817  23.6087751  68.2912317  78.7442970  18.3773172
  68.7843815  78.2628107  17.7130830  68.9077237  78.8528872  19.1014564
  82.3497138  66.4068747  13.2077730  82.0135453  65.5524492  12.9372501
  83.1864005  66.4908028  12.7504504   3.5188845  68.4059286  51.3437319
   2.9678595  67.6244354  51.3870144   4.3847874  68.0754948  51.1044407
  44.0119457  58.0323315  23.6529684  44.6844149  58.6662436  23.4036183
  43.4098530  58.0167484  22.9090095  76.9319025  46.5085936  22.4921703
  76.4271024  46.6902971  23.2848835  76.8414500  47.3014927  21.9636178
   6.7059976  20.5966210  41.7623949   6.4028043  19.7336149  41.4803982
   6.2936336  21.2069130  41.1510611  20.2932644  34.8244524   5.3581148
  20.1512718  35.5385232   5.9795451  21.1996937  34.9338293   5.0706214
  50.7027340  73.0014467  50.7122517  50.5115414  72.3288584  51.3659334
  51.6109276  73.2506037  50.8835220  23.3399463  19.7939801  69.4465113
  23.0424023  19.0316379  68.9499903  24.2276764  19.5675957  69.7238493
  58.2622211  63.5088639  69.9122598  59.1727512  63.7493591  70.0835170
  58.3084648  62.9128412  69.1646982  24.8430824  50.2570152   1.5405858
  25.2724481  49.7320414   0.8651027  23.9388442  50.3427982   1.2385441
  17.4084508  15.6677437  14.4650829  17.1533167  14.9736440  13.8573289
  17.8916430  16.2932122  13.9251339  44.8097754  65.4459763  17.0812881
  45.0499058  65.2523136  16.1751616  45.4791594  65.0064087  17.6056361
  30.7721663  41.2131166   1.8642539  30.0470829  40.5950737   1.9564942
  31.4752269  40.8384323   2.3948658  79.6484187  40.1647139  40.7634544
  79.0612128  40.3435516  41.4979172  79.6579757  39.2102790  40.6913471
  78.9958426  50.0335741  19.2469978  79.9498990  50.0991201  19.2056060
  78.7522772  50.5613422  20.0075030  39.1660142  54.1875696  44.8153400
  38.7351322  53.3377934  44.9072790  39.9097109  54.0177107  44.2371559
  78.5212275  71.2383938  16.8916798  78.8633069  71.6602945  16.1035109
  77.7875951  71.7914772  17.1602130  15.2484071  67.7569056  37.4192500
  14.9271762  68.5525846  36.9950557  14.5408130  67.4977779  38.0095005
   4.3434256  51.2796307  25.1623750   4.2708763  51.0259056  26.0824823
   3.8682932  52.1085501  25.1043224  36.2547248  43.8057706   7.7258956
  36.7798143  43.8844964   6.9294566  36.0506063  44.7089478   7.9684556
  25.9513783  76.5877151  37.9435015  25.9729934  76.3220072  37.0241737
  26.5229082  77.3544550  37.9847121  35.7775331  33.0383801   5.8839279
  35.6243801  33.9802074   5.9596407  35.0056934  32.6373267   6.2834918
  23.4502769  44.1909647  40.1716709  23.2094812  43.7272930  39.3696380
  24.2967987  43.8186121  40.4186296  10.2000117  35.7332110  26.4797068
   9.5521349  36.3370800  26.8427896   9.6906561  34.9686050  26.2110639
  31.2525511  52.9562950  14.7458589  30.3578758  52.9894018  14.4071949
  31.2447929  53.5446739  15.5008280  70.0852910  60.3179407  21.4570737
  69.6718994  60.1781321  22.3090100  70.5776349  61.1322689  21.5605044
  21.4704585  68.4053993  37.7429175  20.9578943  69.2078209  37.8410339
  22.2672939  68.6838770  37.2915459  68.2536474  54.2782021   9.8328918
  68.7681392  53.5271931  10.1287210  68.6080840  55.0196218  10.3237104
   7.3759407  53.8191223  45.1485395   8.1882411  53.7066174  45.6422424
   7.0840615  52.9269886  44.9611044  30.5268312  17.0378876  39.3006015
  30.9593844  16.3425326  39.7961903  31.0610533  17.1383870  38.5127330
  76.2288857  67.1730852  30.4242730  76.5670490  67.8274441  31.0355783
  75.8877945  66.4757872  30.9843326   5.7436466  46.2699509  27.2391129
   5.0252885  45.6660557  27.0506930   5.3863609  47.1359348  27.0425105
   2.9692727  79.5714998  42.5151634   2.9443854  78.8198519  41.9230175
   3.5449207  79.2955589  43.2284069  82.5906089  55.3035164  55.5206537
  83.0923036  54.9329758  56.2467623  81.8949655  55.8076048  55.9427977
  41.0966836  12.6429840   4.6485241  40.9607003  11.7468305   4.9561699
  41.7350815  12.5588079   3.9402922  32.4129152  69.2759418  31.8524027
  32.0448518  68.6228323  32.4475551  32.9130507  68.7651014  31.2158990
  21.0587549  63.3363533  31.0526633  20.8716393  63.2787132  31.9896269
  20.8226132  64.2332697  30.8159971   0.3400683  24.8862791  29.6385622
   0.7358329  24.0534663  29.3816066   0.7333341  25.0863671  30.4879951
  27.5208426  41.8057728  59.8264551  27.8021336  40.9513855  60.1537657
  26.9713664  42.1608734  60.5251789  29.0129256  58.9193201  45.0081587
  29.6830225  58.8356686  44.3297768  29.3707132  58.4441614  45.7581234
   3.5914561  37.0593905  14.2555618   4.3455583  37.1272063  13.6699319
   3.2553810  36.1747289  14.1118407  77.1896711  13.0218720  26.3816643
  76.4614597  13.1813681  25.7812476  77.9718748  13.2255232  25.8689094
   3.2951099  47.3561525  37.6360846   2.4442230  47.6390934  37.3011708
   3.8046628  47.1505070  36.8523145  -0.0432679  67.9979563  24.3784881
  -0.2156826  67.0592499  24.4515777   0.3069237  68.2445192  25.2345276
  74.1340974  27.8570604  52.7113581  73.1880215  27.7615809  52.6015568
  74.2300728  28.4519672  53.4550714  13.2024848  28.3644772  29.6294260
  13.3752799  29.2719817  29.8800468  13.9226532  27.8675389  30.0175524
   3.8074046  41.0321188  50.9874487   4.7224265  40.7594347  51.0553455
   3.4599769  40.9275961  51.8732262  79.7955105  82.0213032   1.9428493
  79.9465713  81.2898731   1.3441595  80.1116708  81.7067814   2.7898145
  84.9106029  23.0541849  37.7818847  83.9843136  23.2739329  37.6822329
  85.3613579  23.6314583  37.1656013  43.9622784  41.0264921  25.3177691
  44.3165731  41.8680048  25.0304413  43.1627607  40.9150362  24.8033905
  77.2625342  41.5097475  21.7721200  76.3557151  41.4117193  22.0624685
  77.3848179  42.4549627  21.6835546  29.0387535  75.1292944  47.7214670
  28.3598876  74.6615744  48.2078934  28.5665607  75.5703783  47.0152760
   3.6504579  41.7055273   6.7487592   3.4897611  41.4919615   7.6678872
   4.2358339  42.4623251   6.7775202   1.8193285  40.7094717  55.2910757
   1.8575546  40.6527615  56.2458277   0.9234805  40.9896278  55.1034546
   4.9320886  53.3522797  53.5313559   4.1498640  53.0163813  53.0937147
   4.8375174  54.3040514  53.4937429  36.9535685  24.3551350  28.8712716
  36.3181186  24.9909043  28.5422850  37.5629926  24.2274499  28.1442690
  25.7285234   1.5788266  46.7653418  26.0703202   1.8917272  47.6029015
  26.2145006   2.0761392  46.1075115  69.5399264  67.3943043  46.7050791
  69.1721788  68.2233000  46.3988686  69.7142366  66.8993711  45.9045267
   1.7989711  45.6430101  49.4419336   1.8377997  46.4059258  50.0187206
   1.4360830  45.9802008  48.6228848   2.4229407  61.1417341  18.3499193
   3.2501489  61.4959621  18.0236030   1.9219601  61.9118690  18.6185145
   7.5492984   9.1822273  11.2449396   8.1514513   9.0027261  11.9670355
   7.7405113  10.0855350  10.9925413  21.1090732  26.7412210  52.5786066
  20.9153533  26.6911030  53.5146570  20.8625484  27.6321959  52.3303699
  21.2722683  45.0504303  23.6017752  21.2094975  44.1297960  23.8561821
  20.4875326  45.2078819  23.0767727  87.6402814  82.0045757  32.9879928
  88.2123867  81.2396431  33.0496073  86.8498778  81.6784763  32.5576973
  22.6397514  50.3823662  72.0774937  22.9938841  50.5541182  71.2049580
  22.0417762  51.1116743  72.2411060  83.1656933  67.2424555  15.8402944
  83.7720150  66.5388680  16.0717475  82.6828489  66.9041443  15.0862134
   6.7489094  27.2479129  69.4419861   6.8085629  28.2029915  69.4196939
   7.3831952  26.9838071  70.1084423  22.0809627  52.8665400   3.1805089
  22.0755315  53.8221788   3.2348633  22.4176502  52.6783752   2.3044562
   1.5757057  44.4810486  39.1201901   1.3019940  44.0570498  38.3068371
   1.5985635  45.4141426  38.9079499  46.2252522  55.1749229  40.6520796
  46.1394358  54.2318916  40.5122137  45.9758377  55.3050327  41.5670109
  34.2464733  66.5645266  22.0903563  33.9923406  66.3644171  21.1894655
  33.9430332  67.4613571  22.2312284  83.1613025  42.2337532  43.9791155
  83.2840824  41.4747524  44.5492697  82.3322025  42.6168680  44.2655611
  80.6326839   9.2148823  52.9558897  81.2320879   9.9563515  53.0405712
  80.2018097   9.3503833  52.1119595  40.4148769  52.3202705  25.4882717
  40.1506662  52.9945612  24.8623681  41.3297224  52.5215340  25.6851959
  13.3143878  45.3180647  27.4487567  13.7048876  44.4527340  27.3265147
  13.7949240  45.6957912  28.1853962  33.6957269  16.1983582   2.0444658
  33.1260367  16.1801812   2.8134617  34.3581345  16.8572328   2.2526376
  71.1133228  21.9925119  67.9056896  71.1132942  22.6792814  68.5724555
  70.5302594  22.3224307  67.2220070  87.6581218  63.4040594  70.3110123
  87.1463725  63.9407396  70.9162521  88.5360649  63.7845373  70.3371668
  17.3405468  61.0649681  51.2905121  17.4936557  60.6216478  52.1249294
  17.1574450  61.9729853  51.5317774  12.2024453  38.3803892   2.1155696
  12.7339125  37.6678848   2.4706888  12.8332937  38.9597058   1.6881885
   6.8748510  43.5677433  24.7199440   7.2482306  43.9050150  23.9056540
   6.3061035  44.2714930  25.0321865  14.2367923  54.6525860  26.6657734
  13.2821548  54.6087980  26.7203951  14.5145583  54.9240017  27.5406504
   5.9660888  56.3784122  59.8126316   5.5783540  56.3559866  58.9377642
   5.9470636  57.3030567  60.0594139  14.7427964  26.6758871  27.7408147
  13.8825619  26.8810916  28.1070399  15.1804948  26.1707163  28.4259820
  77.1753374  29.0409327  56.5287924  76.7320076  28.3281541  56.9888306
  78.1073025  28.8446617  56.6244555  25.0821400  35.6996989  57.7728462
  25.2266860  36.5694690  57.4002361  24.4191599  35.3039289  57.2071123
  87.9706355  22.3101902  13.0593491  87.1298561  22.0736599  13.4509814
  88.4277368  21.4761233  12.9515433   0.0378051  74.0619564  36.3672256
   0.8428309  73.5509968  36.4514065  -0.6650020  73.4210443  36.4745736
   6.1245066  16.4258420  42.8955698   6.9375968  16.9274366  42.8362560
   6.4056635  15.5401969  43.1253862  57.8895776  81.9094424  56.4870970
  57.7909439  82.4962620  57.2368614  58.5993736  81.3180856  56.7375354
  24.1987157  75.6165409  24.1340446  23.5362387  75.3334618  24.7642994
  24.0779138  76.5638447  24.0687943  16.2288427  42.4629545  54.9917793
  16.1928499  41.7880964  55.6696415  17.1630669  42.6358271  54.8752785
  16.0640216  63.3178854  34.4872856  16.1168981  64.2700911  34.5693707
  16.9522703  63.0119753  34.6707678  60.6558173   2.1073720  30.7386422
  59.8676556   2.3726651  30.2646661  61.3669412   2.5768372  30.3026009
  48.7829351  47.9377985  16.2841511  49.2240715  47.1492910  16.6001999
  48.5314512  47.7274036  15.3848612  12.5161278  59.1005421  35.6878352
  12.1929359  58.5236549  34.9957538  13.0612969  59.7409153  35.2307272
   0.0970070  47.4214077  37.4314070  -0.0530457  48.2256269  36.9344664
   0.3213422  47.7223015  38.3119583   1.0575628  53.6658239  39.9161053
   1.1358282  53.6819696  40.8699608   0.3197128  54.2453527  39.7264862
  47.5824516   2.8299710  32.1283937  47.5216251   3.7851140  32.1132851
  48.5210662   2.6505849  32.1836853  24.1075945  70.7710266  49.6273661
  23.2076216  70.4807854  49.7758341  24.5746517  69.9780464  49.3641710
  69.3792203  40.1365328  17.4901569  69.5014456  39.1895914  17.4223757
  68.8063374  40.3572607  16.7557752  29.7795463  33.0750775  48.2913208
  30.2175069  33.5465217  48.9999533  30.1983857  33.3985639  47.4937248
   0.9212347  44.5850325  27.0852780   0.8886952  43.6702585  26.8053508
   0.5966858  44.5716715  27.9856777  74.2384926  38.7405062  28.2404447
  74.7882918  37.9934645  28.4768414  73.5912314  38.7935543  28.9436293
  39.2328000  65.0934505  27.7793550  39.5892119  64.4804525  27.1363616
  39.7134042  64.9020958  28.5847330  30.2803707  70.4243565  55.3920317
  30.7839465  69.6700001  55.6979656  29.8668051  70.1239729  54.5827341
  82.9775885  38.3945560  37.4751616  83.6157927  38.9593840  37.9109335
  83.5071614  37.7285719  37.0366979  38.7770796  71.9962454  22.9588509
  38.9470220  72.4366045  22.1261215  39.0944505  72.6084757  23.6226892
  46.4799929  64.8524284  19.2312419  47.3854923  64.6827602  18.9714122
  46.3394165  64.2885971  19.9918747   1.1702505  28.8524032  32.1721554
   1.3626504  29.4408870  32.9021549   1.3831601  27.9805040  32.5048590
  86.9308081  28.7302017  45.5684662  86.8115583  28.4167886  44.6719265
  87.1298114  29.6615195  45.4721403  13.7365544  34.0018225  20.9353375
  14.6415389  33.8763213  21.2207937  13.8054740  34.5538497  20.1563978
  19.0618348  74.9370813  48.0015230  18.1057918  74.9091625  48.0393934
  19.3223453  75.3468466  48.8264227  -0.0882714  21.7181112  58.3293955
   0.8254606  21.5029956  58.1421737  -0.4183476  22.0926334  57.5126855
  80.1759979  68.3125019  24.9176717  80.9186140  67.7235556  25.0514436
  80.2380762  68.5712004  23.9981866  14.7913790  74.3174839  36.4133096
  14.2918980  73.5244322  36.2188339  15.6756866  74.0033674  36.6018963
  19.3107426  50.8397770  30.8758569  18.4235191  51.0981417  31.1254811
  19.8573685  51.5829372  31.1310840  87.9716932  67.4756861  67.4134731
  88.0365790  67.6891756  68.3443022  87.3058318  68.0749130  67.0761538
  31.7056680  44.2759848  31.9622779  30.8954740  44.7718382  31.8441844
  32.3864865  44.9443960  32.0393515  49.6371460  73.3910179   0.9152501
  50.1115179  74.2078543   1.0701261  50.3174591  72.7178001   0.9018738
  81.0045245  24.4092250   8.5562527  80.1345900  24.8079920   8.5355288
  81.2726882  24.4669747   9.4733047  18.9447796  77.1339941   7.2128558
  18.1595671  77.4022961   6.7356920  19.0833640  76.2231874   6.9531339
  23.5756081   1.2329099  23.1688404  24.5224469   1.2549397  23.3075571
  23.4741395   1.0028455  22.2452545  54.0034273  67.1291637  17.7912307
  53.8875225  66.8949318  16.8703985  53.3216956  67.7793837  17.9606140
  87.6996306  56.0546350  38.7736416  86.8428651  56.4576435  38.6330438
  88.1868623  56.7001820  39.2856026  71.8394104  58.9502048  29.1015625
  72.1488074  58.5373926  29.9078465  71.5942350  59.8370695  29.3653679
  68.5722641  12.8780318  51.9412176  67.6855568  12.7815486  52.2885982
  68.5168950  12.5421001  51.0466139  22.6512051  44.3926191  10.6756318
  23.0653381  43.5442400  10.8336747  23.2634139  45.0301456  11.0430408
  25.6439543  74.4753218  45.7089138  25.8861136  73.9387751  46.4636993
  25.3892994  73.8427305  45.0371885  14.1943073  49.0415335  27.8986239
  13.4285235  48.4745884  27.9901481  13.9253998  49.8723984  28.2905269
  36.3111115  42.0551443  12.8964853  36.6241789  41.1905909  12.6304698
  37.0996761  42.5969553  12.9254603  11.7953801  17.0266867  40.4674435
  11.8215144  16.8228626  41.4023256  11.0251987  17.5858760  40.3656578
  35.0433946  16.5347254  38.7609577  35.2349472  17.1794760  39.4420123
  34.9248075  17.0542800  37.9658270  61.1691587  22.5848672  13.0131555
  61.7348426  21.8300435  12.8504431  60.3260939  22.2038457  13.2587111
  13.2991230  34.7928190  49.1141319  13.7968957  35.0305104  48.3318520
  13.0773127  33.8705564  48.9858341  87.9483403  46.8567133  52.7861214
  88.0154251  46.0764456  53.3364964  87.2736739  46.6388893  52.1429968
   7.4933702  49.8673820   4.8829991   7.6284462  48.9479828   4.6534538
   8.3367413  50.1529408   5.2343041  55.2324438  75.3370047  38.7818336
  55.3795052  75.5903482  37.8705573  54.4811773  74.7448492  38.7475514
  83.0235830  59.6103144  32.5189209  82.1052858  59.3417215  32.4902964
  83.1270608  60.0184870  33.3785248  20.7523823  32.2914195   7.2460067
  21.0923910  31.5946031   6.6846919  20.5681062  33.0139709   6.6458458
  29.0391660  47.1362972  26.0486031  29.8380470  46.6718149  26.2981629
  28.4158897  46.4423656  25.8336163  85.7786414  77.7371740   1.2843950
  86.5580367  77.1868896   1.3616134  85.6394133  77.8242779   0.3413886
  73.3465162  61.5647078  36.5801096  72.6632765  61.7005348  37.2365904
  72.8748182  61.5251398  35.7481432  66.0679868  52.2669506  22.3373485
  66.8464330  52.3406076  22.8894615  66.2524942  52.8314352  21.5866518
   5.2217728  27.9553175  47.5684690   5.7166708  28.6914873  47.2088003
   5.8789438  27.4185061  48.0114031   3.5496664  53.1572962  14.8716378
   4.0139163  53.7288141  15.4832518   4.1178444  53.1179094  14.1023171
  84.8172391  44.6362448  38.7789369  85.4568014  44.5074749  38.0785012
  85.3338450  44.9536943  39.5195961  32.5796795  54.4821167   9.5031202
  31.7805266  54.7913456   9.0765476  32.3507452  53.6167336   9.8421347
  37.8817821  58.0595970  15.1796758  37.6433015  57.5215578  15.9345782
  37.5368643  57.5809765  14.4258940   9.7772461  70.3472853  39.0902185
   8.9538836  70.3011036  39.5761967   9.6561247  69.7451687  38.3560395
   6.5045023  55.3281927  30.8735323   7.3078620  54.8090982  30.9107757
   6.7939085  56.2284040  31.0221791  52.0315981  38.8045931  13.4200072
  52.8551769  38.3179760  13.3860505  51.6449165  38.5625648  14.2615128
  20.4054761  46.7547846  16.1659992  19.5162225  46.4117718  16.0776675
  20.2852607  47.6658010  16.4340091   4.2363262  64.7320080  16.2282300
   4.4553259  65.4639626  16.8048668   3.6299345  65.1045132  15.5881047
  27.0265579   3.7406439  44.8385286  27.1255779   4.5857081  44.4000196
  27.8806305   3.3193094  44.7422409  79.2271283  34.5164561  46.5909529
  79.6607700  34.5910501  45.7408810  79.9428645  34.5245576  47.2264767
  19.9072153  44.5551444  67.1138681  19.0239460  44.8680164  67.3092659
  19.9611694  43.7036754  67.5478355  82.5462738  63.6159039  15.7763469
  82.4554101  62.7903986  16.2522817  83.3971161  63.9580870  16.0505939
   7.9000998  50.4157162  21.3376904   8.2890254  49.8595858  22.0127344
   7.2359192  49.8632240  20.9255648  24.0598488  63.1368923  49.4876194
  24.4366908  62.8741026  50.3273630  23.3233047  62.5394201  49.3581676
  64.1374111  44.3952799  43.7664652  63.7807369  44.0226650  42.9601336
  63.4497929  44.9802399  44.0846395  74.7539523  54.1584873  36.9840479
  74.9567297  53.6258030  37.7530456  75.1527324  55.0086403  37.1696615
   4.9486369  66.7947102  18.5233688   5.3234625  66.8889952  19.3990672
   4.6066484  67.6639557  18.3143556  19.1180396  56.7391062  35.6312823
  19.3322682  57.0823669  34.7638083  18.1652045  56.6480732  35.6242394
  24.0496564  68.1289244  40.6170368  24.7001433  68.6016941  41.1362553
  23.3402824  68.7590122  40.4904938  84.2604449  59.8184109  23.3513832
  83.6462009  59.9467278  22.6285601  83.7275776  59.4497919  24.0559435
   6.8790597  44.0536165  33.2127023   6.9932854  44.6782970  33.9289141
   7.4331778  44.3917942  32.5092673  27.2493267  43.5001516   2.7948534
  26.9921112  43.6902905   3.6970282  27.8019643  42.7215242   2.8623950
  77.6062100  73.7113766  46.9119851  76.9052594  73.1075863  46.6663401
  77.5564711  74.4129614  46.2627236  13.1611812  46.2384892  48.0766678
  12.6526117  45.5839777  47.5979137  12.5047135  46.7663240  48.5312796
  57.4405861  45.8012581  11.5071690  57.3142242  45.7731295  10.5587637
  57.1007204  46.6569853  11.7688060  72.7965394  37.7048063   5.6933916
  72.2931650  36.9133902   5.8844590  72.7370384  38.2256818   6.4942527
  46.8349266  49.9749851  40.6539965  47.1264887  49.2220926  40.1398230
  46.0653973  49.6583939  41.1270952  23.1966996  45.5543423  37.0955229
  22.8928757  46.2721443  37.6511192  23.9614749  45.9093714  36.6424179
  35.1429086  59.8560046   4.4546803  35.0427400  59.3547045   3.6454256
  36.0827695  59.8347675   4.6348007   5.9142137  43.3386230  36.2105703
   5.8021563  43.6760712  37.0992780   6.4197117  44.0148592  35.7595634
   1.2754195  28.1579015  39.3449378   0.8590787  27.5400350  38.7439847
   1.8040841  27.6091954  39.9243093  68.2152598   4.9572942  40.7236528
  67.4969905   5.1942059  40.1369762  68.6626213   4.2387959  40.2765894
  11.5388668  32.9139948  24.9056888  11.7842770  33.4153962  25.6832504
  11.0991955  33.5489202  24.3401861  69.1959801  29.5452523  59.0051413
  69.1913489  29.2461658  58.0958796  68.3324567  29.9381304  59.1324472
  57.1525002  45.0198936   1.5845443  57.9258156  45.5745888   1.4819403
  56.4961481  45.4155493   1.0110569  20.3309131  48.3078957  41.8019104
  20.8868980  47.7871132  41.2223434  20.4526281  47.9157877  42.6665878
   1.4699146  74.9560738   9.4000870   2.0488474  75.6834841   9.6280044
   0.7778560  75.3565741   8.8738847  81.8460331  79.5326266  18.4618771
  81.8231831  79.1100082  19.3204248  81.7333422  80.4642776  18.6504483
  71.2985090  30.9850049   0.4944554  71.3992897  30.1950121  -0.0365678
  72.1004167  31.4833736   0.3369639  33.6464787  69.1803026  62.1379805
  33.6306453  69.8756170  61.4803219  33.3048034  68.4112978  61.6817808
   0.4171568  51.5743160  55.3343296   0.9310333  51.0526180  55.9507656
   0.1739740  50.9579802  54.6435165  31.4927506  49.8928404  34.5576191
  30.9357977  50.4078722  35.1413822  32.3758578  50.0033188  34.9099684
  87.9263894  67.5214815  16.3195896  87.9841167  67.7499008  15.3918374
  87.6689096  68.3361053  16.7512476  38.9786863  30.4380655   9.3761206
  39.6642971  30.1132250   8.7924671  38.1827307  30.4185319   8.8447982
  42.9673958  70.3269053  40.0871897  43.2707262  70.6898594  39.2550325
  42.0153713  70.4216099  40.0569773   6.6952221  81.4137010  69.9725800
   7.0314901  81.9389395  70.6987203   7.2663181  81.6304306  69.2356200
  20.3998160  69.5107508  31.7762232  20.6169677  69.3517923  30.8576345
  19.5195675  69.8860502  31.7527699  41.8991280  49.1825867   2.3551348
  41.8647146  49.8490667   1.6689482  41.7732525  49.6701908   3.1691560
  20.7266521  79.3493986  36.3451552  21.6133523  79.7013664  36.2669802
  20.6825900  79.0073586  37.2380710  27.9587007  33.0517673   8.4380627
  27.4206448  32.2983503   8.1949776  28.2976222  32.8338790   9.3063307
  35.7598591  66.9059610  55.5503702  35.9450006  67.3876524  54.7441864
  36.5663075  66.4231920  55.7314968  21.5041208  35.7299042  14.7778857
  21.6816354  34.7897029  14.8050797  21.4645505  35.9928727  15.6974041
  86.3806625  80.5475597  56.8739228  85.5562325  80.4399447  57.3482279
  86.3525267  79.8785929  56.1898736  86.2423474  45.2268410  66.9665670
  85.8220711  45.7250357  67.6675653  87.1753852  45.2558422  67.1783018
   6.6635311  42.3192644  40.3173208   5.7450581  42.5515127  40.1805687
   6.6360492  41.5838385  40.9293842  33.3520651  17.0237243  30.7680225
  32.8120208  17.5844646  30.2111077  32.7235603  16.5544367  31.3166404
  56.1187986  70.1873016   4.1718173  56.0901168  70.8123493   4.8961979
  56.5342119  69.4090557   4.5432967  22.5838089  72.6343060  52.6296520
  22.0869756  72.8049755  53.4298134  23.4041739  72.2470951  52.9350996
  24.3378854  33.3994794  50.2122641  23.8013077  32.6526260  49.9466896
  25.1848936  33.2468867  49.7933102  10.0265205  37.8603292  53.7444925
  10.0016832  36.9842553  53.3596468  10.4782856  38.3957505  53.0922174
   8.5314989  64.5392847  14.5072389   7.7535522  64.8335695  14.0335011
   8.7203008  65.2485180  15.1217115  48.2825899  49.4321918  46.9304466
  48.4054565  48.6338806  47.4440956  48.9973593  49.4198227  46.2939072
  46.3146400  58.1220245  40.2779627  46.3480949  58.1811190  39.3231750
  46.6503525  57.2477150  40.4757309  43.3339500  57.0697641  44.1080809
  43.2627201  57.8435612  43.5491610  42.9286337  56.3681173  43.5985231
  19.1441023  72.2228289  47.6584053  19.9973023  71.8179274  47.8144121
  19.1827583  73.0532885  48.1328201  62.0247936  75.5005407   3.5910580
  62.5712061  74.8299360   4.0008774  62.3459530  75.5540085   2.6909304
  63.8658064  24.3287370  61.2332630  64.7832196  24.4080922  61.4945841
  63.4311097  25.0686070  61.6573763  39.4090515  16.4307973  21.5961480
  38.7620961  16.1960122  22.2613955  40.0605398  15.7307717  21.6380310
  32.0697117  78.1605387  52.0459509  31.6063499  78.9972639  52.0836878
  32.5978994  78.2149601  51.2495279   8.3967113  66.2650871  17.6095462
   8.3447272  66.9711208  16.9653094   7.6736581  66.4374352  18.2126391
  69.7484415  13.0799481  46.1045599  68.8647979  12.9684445  46.4552402
  69.7309702  13.9373586  45.6793976  60.6235504  56.0909605  26.6975141
  59.9132252  56.6181231  27.0632553  61.2393236  55.9828997  27.4223447
  44.5359707  67.4957991  24.3410420  43.8709068  67.5522947  25.0271392
  44.1000509  67.8293753  23.5568666  22.4684167  53.0047464  15.3541636
  22.5682950  52.2223806  15.8965325  22.2564936  52.6673651  14.4838202
  26.6043973  55.1528025  40.6673622  25.6722569  54.9368572  40.6406832
  26.8768430  55.1518154  39.7497559  46.8078327  60.9046841  10.5315101
  46.6766787  61.6653347  11.0975885  46.1557007  61.0067272   9.8382998
  64.9769633  10.0932595  30.1345301  65.7169216  10.0081822  29.5333171
  65.1717656  10.8796308  30.6443357   7.8946036  64.0954018  33.5280776
   7.5415069  64.2217922  34.4087481   7.1723610  63.7077188  33.0338144
  38.2831281   9.0507791  29.8194504  38.8659917   9.7600648  30.0904155
  37.4064063   9.3619248  30.0447989  69.2468231   4.2738339  33.7197495
  70.2017563   4.2978761  33.6584806  69.0511363   3.4050652  34.0707183
   8.1288948   0.5860517  29.1566825   8.8657131   1.1970612  29.1589904
   7.8553571   0.5441567  28.2403564  85.1965964  76.2818098  38.7654233
  85.2817121  76.3759899  37.8166795  84.8525170  75.3970909  38.8883758
  74.6343868  47.6511952  24.2206359  74.2917507  48.5435960  24.2702222
  74.8840921  47.4401757  25.1202726  28.8774657  33.8747311  21.0986757
  28.2587099  33.4091330  20.5360103  28.7836742  34.7939277  20.8486462
  16.6393483  31.6158819  42.9149389  17.3157501  32.0594001  42.4030781
  16.8499720  31.8273687  43.8244152  28.5833158  13.2719323  11.8153203
  29.4820776  13.0462834  12.0551860  28.2685556  12.5127027  11.3246727
  40.5806785   9.0852830  12.1985042  41.3794356   9.0305516  12.7231228
  40.7635312   8.5488221  11.4271390  69.0491765  30.5821511  43.8508844
  68.4241002  30.1986119  43.2357359  69.7235840  30.9724423  43.2949448
  42.4997854  76.0657692  51.4642382  43.0064917  75.8155251  50.6916714
  42.1167135  76.9126081  51.2354422  64.6721237   8.7900731  24.3763423
  64.3016546   9.6612546  24.2348099  63.9947551   8.3174607  24.8601174
  52.3187607  10.9666345  51.7854738  51.6996854  10.5944154  51.1574459
  52.3596447  11.8958756  51.5594769  18.5340989  58.5244274  26.1914873
  18.1851649  57.9369497  25.5211568  18.8051367  59.3050098  25.7083082
  83.3882540  12.7118871   6.5911448  82.9731195  13.4155175   6.0923409
  84.0630072  12.3688313   6.0052663  26.5457153  60.3429699  31.1445999
  27.1414685  59.9376011  31.7746687  26.4873481  59.7101641  30.4287910
   9.1425866  47.0451450  50.8288336  10.0359011  47.3601580  50.6910419
   9.0569490  46.3000584  50.2340698  10.0871396  55.9702015  41.6746140
  10.1138628  56.7983437  42.1538830  10.8703840  55.9863901  41.1246157
   3.8509867  41.6663313  35.9724522   4.5747465  42.2917080  35.9362769
   3.2143277  41.9999886  35.3403354  73.0048149   2.4036881  46.5635061
  73.5063379   2.3579690  47.3775196  73.4745758   3.0433652  46.0283709
  66.7357254  71.5397978  22.2947025  65.9908962  70.9805536  22.5153995
  66.3633204  72.4189758  22.2269106  87.6450680  55.5507421  48.6976767
  86.8326922  55.1536322  48.3836985  87.9790678  54.9315834  49.3467665
  10.3530097  24.1214871  29.1642380   9.4366157  24.3977165  29.1519713
  10.8185840  24.8153353  28.6972833  35.9342647  56.8844509  31.4983702
  35.4579449  56.0600138  31.4001107  35.2545619  57.5580168  31.4749885
  84.9884906  73.8981056  41.7511892  85.0187263  73.7710905  40.8029366
  84.2360136  73.3808041  42.0382547  46.0234022  43.1080151   4.2448881
  45.4237080  42.3709106   4.1296709  46.2760592  43.0692959   5.1673281
  58.2087183  71.4321995  59.2933989  57.5494671  71.3960648  58.6003542
  57.8424120  72.0341349  59.9412632  28.9236392  80.6286930   0.1341780
  28.7160486  81.0391353  -0.7052700  29.0519134  81.3630317   0.7346161
  82.0588896  78.9913273  43.3482456  82.5043604  79.7713661  43.0176020
  81.9274357  79.1673946  44.2798853  65.7693624  72.2498846   0.1232299
  64.8586988  72.3630953   0.3954557  66.2474632  72.9300976   0.5975356
  30.3325129  57.7526808  52.1687841  30.8558750  57.2934341  52.8256083
  29.4256234  57.5714731  52.4156618   3.2271063  66.9653893  71.5309858
   2.8891760  67.0541286  72.4221420   3.6340430  66.0991621  71.5142918
  12.4781632  83.4322739  36.4562011  12.1857810  82.5537586  36.2133884
  13.1758928  83.2845688  37.0946264  27.2210550  82.9615211  33.9945817
  27.0426941  83.0944061  34.9255800  27.9541349  82.3462963  33.9765882
  50.8572452   9.3622205  26.6898155  50.5997341   9.4024083  27.6108503
  50.0315636   9.2725465  26.2139583  74.5709229  67.5983953  52.3227787
  73.8112926  67.4411678  52.8835583  75.1701403  68.1077242  52.8684473
  87.0923124  56.4007140  66.0156510  86.7049442  55.5725623  66.2991093
  88.0034433  56.1837627  65.8181517  60.5561185  11.8444010   6.0216005
  60.9823523  10.9899994   5.9541186  61.2471156  12.4737592   5.8150538
  59.7820234  71.1609221  49.5385456  59.3740225  71.7836428  50.1401997
  60.3941870  70.6669188  50.0839329   9.5544451  34.3470216  15.6973231
   9.1135794  35.1941967  15.7618523   9.5170319  33.9893651  16.5844035
  44.9891329  73.1011295  35.7061243  44.5039177  73.8670444  36.0129976
  44.3599176  72.6176834  35.1707697  26.2747823  10.2939126  21.8648529
  26.5180354  10.8864018  22.5762010  26.2311291   9.4307992  22.2763848
  68.9433043  10.4329583  20.8142400  68.6953490  11.2880704  20.4627728
  68.8990825  10.5424497  21.7641282  80.5916128  23.1859494  55.6878654
  80.0695858  22.6422693  55.0978379  80.3660164  24.0846921  55.4478721
  40.7798672  57.1248198  34.0589094  40.1516628  56.6831684  33.4874821
  41.2447405  56.4132071  34.4990587   8.9810402  31.7543026   3.4196957
   8.3424027  32.2994562   2.9601534   8.9611800  32.0715757   4.3225678
  27.6100945  66.5716887  34.1969299  28.3173275  66.2829924  34.7737384
  27.1641016  67.2598028  34.6907115  48.1500988  10.5158040  49.9767876
  48.1860428  10.3977391  50.9259987  47.2239726  10.4134461  49.7575998
  41.2422912  12.5535294  26.1428428  41.4640038  11.6602895  26.4058828
  41.0874300  12.4941441  25.2001238  43.9670610  53.3162355  44.2048979
  43.4236574  53.9872789  43.7918139  43.9689255  52.5913143  43.5798264
   7.2629411   7.1308280  54.3088309   7.9541833   6.8067599  53.7314276
   7.7306110   7.5689031  55.0198917  46.1255598  47.0455265  22.5200319
  46.3534784  46.8325901  23.4249878  46.9614697  47.2625160  22.1072245
  50.4860657  21.2829682  15.6257784  49.6499174  21.7416665  15.7075405
  50.2577489  20.4347608  15.2454543  79.7254644  15.6658317  54.9792389
  79.1360817  15.3230668  55.6510834  80.4455505  16.0605479  55.4710774
  14.9870038  73.9681149  57.1928644  15.9139919  73.9009714  57.4218082
  14.6005893  74.4772720  57.9053783  17.2186279  75.2066422  15.5273497
  17.4992621  75.2965021  14.6166348  16.5588939  74.5133972  15.5073869
  28.6477017  60.4661465  49.0313816  29.5149875  60.7743216  48.7685633
  28.5331273  60.8026028  49.9201441  62.8627270  21.7943665  29.5084739
  62.8362840  20.9788987  29.0079403  62.3927825  22.4253747  28.9632964
  34.7433233  82.9239655  49.0303516  33.9791799  82.9144287  49.6067381
  35.1804757  82.0891571  49.1983318  87.3350256   2.7759549   1.5015139
  87.7694815   2.0442960   1.9398734  88.0170887   3.4417912   1.4138576
  41.1329126  60.3694630  14.9441111  41.4275455  59.9250603  15.7390499
  40.1817226  60.2624559  14.9484372  86.1053436   0.1147649   7.5526327
  86.8854444  -0.2260974   7.9902244  86.0855787   1.0426804   7.7867639
  47.4698400  47.8148937  39.1602540  46.6890430  47.2762823  39.2886591
  48.0761719  47.2479534  38.6836267   1.6899480  10.6894013  32.5977540
   1.6607942  11.6183469  32.3687506   0.8445587  10.5184075  33.0128574
  34.9389052  66.5123463  25.2131248  34.1307473  67.0225954  25.1605940
  35.2396154  66.4460135  24.3068099  28.5100277  47.2729440   9.7759541
  28.7480695  46.4862486  10.2665527  29.0448816  47.9667516  10.1616867
  29.8710155  31.9518852   0.7079355  29.1174150  32.5004625   0.4902605
  30.6240392  32.4313903   0.3625938  45.9998846  69.2935228  18.9744496
  45.4300022  68.8488388  18.3469772  45.8999586  68.7938118  19.7847188
  36.3054752  64.5262623  39.6506071  36.4723682  63.7839031  39.0698481
  36.3984466  65.2955770  39.0887022  64.8985427   1.7147538   8.7065399
  65.4371755   1.8339250   9.4887817  64.8214119   2.5926015   8.3328277
  29.6845269  45.5958223  13.5311902  30.3095984  44.8878145  13.6868942
  29.3777037  45.4518843  12.6359963  17.3486614  61.3688326  29.2021155
  17.6632369  60.4648590  29.1920233  18.1003857  61.8872452  28.9150786
  55.2638197  81.7069721   5.5720079  55.9607983  81.9540024   6.1798155
  55.1366949  80.7700825   5.7213652  77.1005157  56.8215466  34.0657568
  77.2942486  57.4657774  34.7466898  77.8066698  56.9271612  33.4282446
   6.1238831  74.1602468  37.5773239   6.8345350  73.8254309  38.1242251
   5.3263104  73.9324808  38.0550599   0.2230328  47.3583078  44.0828896
   0.3029108  48.2873726  44.2989588   1.1254238  47.0401764  44.0561581
  39.5254326  58.2154083   1.5865718  38.6792183  57.8592920   1.3157701
  39.9749327  57.4776411   1.9987427  29.9972630  68.7260962  34.5720768
  30.0327182  68.4011793  35.4717445  30.1228714  67.9466820  34.0308118
  61.0858607  29.8069431  58.2865135  61.7396099  30.5059673  58.2718615
  61.3702516  29.1986991  57.6043205  33.1603122  74.0314913  28.5916901
  32.2661591  74.3575954  28.6935806  33.2860541  73.4411192  29.3345761
  49.7306173   0.8227918   6.4845723  50.2792113   0.1441190   6.8778753
  49.6973198   1.5158269   7.1439826  70.4093187   9.0389630  12.4780738
  69.9979608   9.3622300  13.2796431  71.3076895   9.3665597  12.5209796
  47.4778938  82.4324608  22.7486587  48.0901527  82.2750854  23.4674096
  47.7243519  83.2923698  22.4080205  38.9328313  66.7582703  21.0651875
  38.4306979  66.3046360  21.7421722  38.9816427  66.1319065  20.3430247
  48.2533693  67.5621462  42.0396042  48.3608484  67.0324707  42.8296185
  47.7935410  68.3468199  42.3380613  54.2670696  10.2036664  32.2277212
  54.9219911   9.6896264  32.7000332  54.0757697  10.9398553  32.8088045
  33.7088966  70.3782415  28.0087781  34.4023943  70.1717615  27.3821497
  33.2950830  71.1664104  27.6569605  75.5316201  36.1507797  51.5111208
  76.4582351  36.3903666  51.4964867  75.5005482  35.3456116  52.0278120
  71.1647241   4.2218873  13.7453055  71.0305946   3.3560941  13.3597696
  70.7138079   4.8213288  13.1506777  16.5635598  56.0154581  17.6200330
  15.9042323  55.9736156  18.3126855  17.0244157  55.1784515  17.6771593
  25.0761986  76.5717649  35.3030801  24.3959427  76.7807913  34.6629310
  24.8948169  75.6673145  35.5586290  43.4012318  80.3526402  71.9179440
  42.9200459  79.8110342  71.2923622  43.0774403  81.2403202  71.7649508
  41.1371469  73.7645531  44.4405222  42.0357370  73.4940958  44.6292591
  40.9550619  73.4021902  43.5734749  68.1616967  27.5247762  29.8176432
  68.9265101  28.0780599  29.9762917  67.9382961  27.1722218  30.6790519
  16.3426149  70.6906891  16.6165376  16.2852383  70.6205893  17.5694406
  17.1507049  71.1794567  16.4605594  26.2984324  57.2572422  18.7123513
  25.5885720  57.8879404  18.8329828  26.5390706  57.3410559  17.7896929
  29.6585798  58.0598021  49.4660854  29.1649485  58.8597870  49.2855835
  29.9496198  58.1573725  50.3727293  34.0570450  52.4901056  43.3897924
  33.9254260  52.1397495  44.2707920  33.4184432  53.1993341  43.3162069
  55.6032498  14.5127441  68.9324520  55.1249630  13.8257934  68.4681557
  56.0996754  14.9628259  68.2489209  44.9326086  62.3831797  27.6214194
  45.4623175  62.0448542  28.3433414  45.5403852  62.4389839  26.8840432
  37.8788090  23.8235021  12.6022530  37.2874355  24.4280362  12.1538711
  38.7413096  24.0146995  12.2337878  35.2166819   6.8475148  26.0561705
  35.2919381   7.7169320  25.6628895  34.6572196   6.9785401  26.8217206
  84.6124046   8.8440892  22.6020455  85.1303594   8.7846467  21.7992854
  83.9750069   8.1337258  22.5289774  33.2484865  48.1179619  26.8205810
  32.4116516  47.9648972  27.2593403  33.3613133  49.0681839  26.8447447
  46.6898203  67.1744156  20.7387352  46.3508844  66.4193726  20.2578330
  46.3969660  67.0358467  21.6394377  86.6758820   1.5024850  37.5237083
  87.2245260   1.9553754  36.8833041  85.8813592   2.0336720  37.5766683
  35.8458400  82.0841789  14.9377894  36.2530804  82.4719906  14.1631985
  36.2251186  81.2071323  14.9940670  41.8726015  70.7457542  65.7828140
  40.9374285  70.7967472  65.5851030  42.1421671  71.6564178  65.9022141
  22.3163557  58.1294346   1.5634730  21.8167114  58.1313562   2.3799188
  22.2587705  59.0303707   1.2453103  20.3649831  59.4916153   6.4716119
  20.5669308  60.4204607   6.5842760  19.4296741  59.4248247   6.6638839
  50.6413507  49.9036551  14.8656714  51.4155197  49.3465042  14.9461246
  49.9253511  49.3700314  15.2103794  62.5664800   8.7492654   8.2558411
  63.4518259   9.1098496   8.3045655  62.6950472   7.8010461   8.2317305
  18.5396183  76.6667938  38.8502574  19.1519701  77.3417711  39.1429400
  18.6695921  76.6199350  37.9030824  46.0042381  50.5668783   7.2657323
  46.7265177  50.5364037   7.8931195  45.6772327  49.6678591   7.2331101
  65.6161928  72.1923256  26.1699176  66.4659691  72.5491428  25.9114814
  65.0216627  72.4574280  25.4681420  14.5613265  58.1642389  22.3706627
  15.4974830  58.1638002  22.1710587  14.3709767  57.2622776  22.6284790
  27.7330589  80.3240871  23.6997056  28.5015917  79.7877741  23.5048819
  27.3331904  79.9022818  24.4602442  20.4932165  81.2823200   8.3752871
  20.4592681  80.3300571   8.2842761  19.6880364  81.5072155   8.8414806
  41.1051369  61.4251900  42.3067331  40.9405565  61.7007875  43.2085037
  40.5112314  61.9605255  41.7805004  86.1800250  46.4427662  50.8003473
  86.2376127  46.0213375  49.9428463  85.3544608  46.1267948  51.1675501
  12.9595280  72.3089886  23.4847760  13.5567832  71.5821886  23.6616349
  13.5164118  72.9904413  23.1082964  41.9566488  53.5476732  39.8191714
  41.4250803  52.8042650  39.5345545  41.9888449  54.1250658  39.0564060
   5.7194740  44.8979712  38.8533854   5.3083038  45.6581497  39.2648411
   5.1441801  44.1655731  39.0744305  16.2187862  75.2013016  28.9258528
  16.1064303  76.0593843  29.3348789  17.1577227  75.0265598  28.9898539
  53.2116365  58.1271124  25.7717252  53.5713959  57.5960064  26.4821696
  52.9871130  57.4942350  25.0896025   7.3083002  31.7357732  65.7410966
   7.1573836  32.6732398  65.8619891   8.1805355  31.6820050  65.3505270
  38.4630179  68.2286358  59.2673206  38.8404608  67.5963783  59.8788977
  38.9625883  68.1083107  58.4597445  30.4632378  41.8682337  30.7300115
  30.2397799  42.7422380  31.0500383  30.0343919  41.2716341  31.3435221
  32.6723599  59.1913223  21.0249710  32.4234557  58.4412241  20.4849458
  33.0523562  59.8157740  20.4069948  12.3957455  48.6082363  70.1894855
  11.4791298  48.4705353  70.4284143  12.3836327  49.3860722  69.6317625
  18.7243903  60.3207541  56.5642929  19.5383620  60.0577354  56.1347532
  18.7647104  61.2767839  56.5890312  43.4946012  65.9769249  34.0948701
  44.1237402  66.6358280  33.8011694  43.9738607  65.1497650  34.0463877
  39.3553543  64.1483402  34.9235368  40.2312756  63.7827682  34.7996330
  38.9855409  64.1883183  34.0415668  71.4095085  27.5075147  34.6280360
  71.6292732  27.6538465  33.7079692  72.2223299  27.6883409  35.1001191
   2.0447084  66.4022112  53.0215263   1.7040083  67.1154070  53.5614443
   1.7988893  65.6063271  53.4930944  45.9354019  67.1495914  53.9594889
  46.2209177  66.4118004  54.4983482  44.9858284  67.0468092  53.8964367
  23.5291815  63.4747744  13.9011824  23.3891249  64.3782949  13.6178792
  24.1507268  63.5445786  14.6257794  53.6608839  72.7372932  36.4149928
  53.2424307  72.8383970  37.2699237  54.5867968  72.6013851  36.6160965
  44.7629159   8.7799546  65.3503799  44.4879108   9.4675919  64.7439480
  45.5969124   9.0907571  65.7026434  73.4076309  76.5317249  32.8013945
  73.9078474  77.2487497  32.4116659  72.4933195  76.7551517  32.6271915
  29.3356371  58.8388634  19.2333877  28.8396168  58.7543058  20.0476646
  29.1066504  58.0568457  18.7311435  15.0681198  82.0280266  40.1420403
  14.8141205  82.1154881  41.0607719  14.3652678  82.4604416  39.6570206
  63.0786984  11.6077229  46.8388653  63.2643669  12.4790379  46.4887714
  63.0251496  11.0454938  46.0660410  68.9540904   3.7093160  71.6061163
  68.0457466   3.8985536  71.3708878  69.1410153   2.8706738  71.1842346
   5.1817360  17.3572537   7.7103382   5.3148260  18.2128617   7.3023582
   5.6276359  16.7422482   7.1279538  41.2826436   7.2985646  17.7226496
  42.0908313   7.4895379  18.1986678  40.9156709   6.5360352  18.1699932
  49.6437931  68.1199598  70.0120735  49.7199011  68.3259583  70.9437418
  49.7446299  68.9635897  69.5712233   7.8728163  82.9444885  17.3561680
   7.9072779  83.0551434  16.4060092   8.7322813  83.2339954  17.6623404
  85.8449858  21.6268441  14.6348906  85.7989328  20.9912106  15.3490937
  85.9476536  22.4718949  15.0725913  63.6367559  51.5245628  41.9146967
  64.3131971  52.0944548  41.5488005  64.0825748  51.0384941  42.6083946
  63.0844396   4.4558808  24.8835278  63.5235041   5.2488515  25.1911926
  63.7646287   3.7826821  24.9027753  26.4183760  39.9558783  29.9366331
  26.5468478  40.8883715  30.1103806  25.5109859  39.8904943  29.6389794
  36.1440395   4.2968175  25.6933379  35.7161157   5.1463124  25.8004808
  36.0840117   3.8878152  26.5566683  40.1174641  64.6323586   7.7165812
  40.5240583  64.5127296   6.8583274  40.4722548  63.9217758   8.2508337
   5.8736879  22.6792861  68.0720849   5.4509241  22.4681903  67.2396536
   6.0656530  23.6151601  68.0126767  47.0532560  56.8730021  22.0956254
  47.5513554  56.6233492  21.3172936  46.1654806  56.5597630  21.9225097
  29.8626661  82.2589016  17.1209443  29.9567866  81.3264179  17.3154473
  28.9198494  82.4185562  17.1638536  41.5329313  70.9180737  31.9029927
  41.9094086  70.5875587  31.0873604  40.6622362  71.2296438  31.6559291
  17.3426516  46.6833926  70.9690063  16.6744787  46.7638351  70.2883415
  17.9970915  46.0942126  70.5937682  70.5513304   9.8777863  26.4129829
  71.1682194  10.2416417  27.0480323  69.6986502   9.9427697  26.8430352
  80.9662233   4.7939063  67.8610311  80.3418169   4.2515184  68.3428619
  81.1238227   5.5442382  68.4340910  -0.0209025  61.4678192  31.3159180
   0.2393934  61.2637758  32.2141671   0.7176515  61.1774158  30.7807088
  29.5416451  72.7418041  42.8322029  28.8286614  73.3735704  42.9257727
  30.0744462  73.0863619  42.1155214  37.7321267  59.1027260  31.7227674
  37.4389672  59.6262693  30.9769869  37.1528435  58.3407116  31.7229509
  33.0403948  60.0067234  13.4195530  33.8226104  59.8663521  12.8860140
  32.7129793  60.8629274  13.1439650  46.8301344  73.0842018  48.0276585
  47.7122402  72.7131844  48.0491304  46.9621754  74.0023947  47.7916145
  86.4316426  13.2118846  71.4200617  87.3434029  13.2966901  71.6988663
  86.1940942  12.3130799  71.6480054   2.9124597  40.7521200  24.1164613
   3.2860735  41.5471983  23.7363410   2.4375622  40.3414822  23.3939075
  30.5439234  48.2171059  68.3448839  31.1930466  48.6001730  68.9349079
  30.5595183  47.2815275  68.5465813  12.0814974  24.9274207  56.8561546
  12.5687010  25.7461358  56.9487290  12.1520264  24.5084335  57.7138893
  40.6455326  73.7095833  61.5193748  41.3474321  73.1427193  61.8391132
  41.0759020  74.2958927  60.8970737  82.7454522  52.7588367  36.8425369
  83.4852332  52.1660423  36.7100596  82.0054457  52.1806717  37.0278645
  81.3170752  63.8752365  27.2792935  81.3450119  63.6043978  28.1969523
  80.5686799  63.4039783  26.9131589  72.0706275  68.4356451  25.8866453
  71.3761166  67.9722881  26.3548207  71.8911782  68.2651424  24.9620056
  39.8409932  33.2919023  10.2777147  40.3897744  32.8254220  10.9081602
  39.3203770  32.6060006   9.8597181  28.0303335  56.7946815  26.2363911
  28.1894064  56.3496065  25.4040241  28.8918877  57.1124220  26.5065765
  41.4280224  68.1829786  61.1666584  41.4440393  68.7856770  60.4232025
  42.3505259  68.0336809  61.3738680  87.0983205  48.8578273  66.3442234
  87.7212844  48.6146117  65.6593911  87.0900212  48.1071330  66.9380425
  69.1338709  79.1373110  44.4271326  68.8689020  79.7484446  45.1145506
  69.7859469  79.6181965  43.9174509  28.5817575  82.8594971  28.2261395
  29.3598056  82.5780678  28.7074590  28.9268184  83.2968998  27.4477768
  35.1738715  67.2517967  37.0150471  35.4249167  66.3723993  37.2976494
  35.6533790  67.3867178  36.1976719  59.0705299  64.8851013  20.4609346
  59.9302197  65.2748156  20.6199789  59.2352486  63.9424372  20.4389405
  40.8852179   1.9742728  61.2676935  41.1598141   2.8899194  61.2185399
  41.6492540   1.4789201  60.9725551  34.5125389  48.4396839  41.3611746
  34.3880963  47.5379848  41.6572905  33.6644554  48.6908054  40.9952211
  73.7220495  15.1177403  21.7222095  73.3929317  15.7366559  21.0704041
  73.1893032  15.2831933  22.5000525  22.7510095  52.4481440  37.1227813
  22.1965504  52.9601431  37.7115607  22.8395462  52.9943943  36.3417554
  25.0206423  48.7252760  24.8103118  24.7655058  49.5186090  24.3393993
  25.8416247  48.9577961  25.2440786  45.1567459  65.3503084  62.7574301
  44.2611265  65.0983810  62.5324154  45.0582361  65.9501076  63.4968662
  72.2334614  75.5111551  16.5541410  73.0400100  76.0097885  16.6848052
  72.0324758  75.1502132  17.4175990  31.4717197  77.5136852  55.7205915
  31.3816595  77.6615381  56.6620064  32.2442985  78.0208492  55.4713154
  48.1070566  46.8606091  13.8337815  47.9158735  45.9753036  14.1434824
  48.8122845  46.7445326  13.1970584  24.7369266  36.6752911  38.3537388
  24.1653204  36.0199904  38.7538385  25.3794456  36.1642122  37.8615999
  37.5454879  78.9467812  63.7416172  36.8262386  78.3151913  63.7431383
  38.2265925  78.5328579  63.2115269  83.3764587  46.6067458  68.2797388
  82.7386461  46.9414188  68.9101533  83.4434281  45.6730224  68.4795172
  10.2504737  18.2709886  55.4969756   9.6408493  17.9366399  54.8391001
  10.8614857  18.8167096  55.0019149  50.7847064   2.1495816  19.8872924
  51.6100710   1.6676709  19.8346674  50.8138602   2.5820538  20.7407284
   5.7077873  55.6445742  38.8823581   5.0467658  55.0370121  38.5504699
   5.6668246  55.5468178  39.8336720  44.0432024  78.9225769  34.5173502
  44.3944979  78.2275486  35.0739098  44.8005533  79.2428970  34.0274072
  34.6806305   8.2480905   8.6879587  35.0417232   8.4043023   9.5605642
  35.4290187   8.3423325   8.0986655  63.5058277   5.7774350   3.1307584
  64.1060298   6.0438725   3.8271785  62.7286189   5.4621312   3.5920182
  19.0204270  18.5872604  69.6517624  19.1224749  18.1172801  68.8241525
  18.8760550  19.4977142  69.3939535  66.9398165  64.3280077  13.8585997
  66.2380075  64.8027372  13.4132564  67.6771593  64.9383783  13.8620687
  78.7368219   8.8324067  25.4128909  78.0881422   9.1816041  26.0240412
  78.8245027   9.5107266  24.7432470  16.2021763  50.4071094  61.8013780
  16.9875843  50.3339626  61.2591462  16.3080055  49.7293044  62.4689148
  42.3729008  17.6352879  31.6996336  42.8722303  17.1042439  31.0792351
  43.0073016  17.8738973  32.3755264  23.1956370  37.1235801  69.6122245
  22.7561218  37.5568820  68.8805751  22.5406344  37.1084119  70.3100595
  52.8995388   3.5833833  46.0046387  52.7687328   4.4696423  46.3417673
  52.0348423   3.1764504  46.0588646  63.8215320   4.6188352  15.6830406
  63.9754002   4.9977490  16.5484786  63.4914534   5.3477284  15.1576900
  57.0916717  15.6847093  21.5892577  57.6552503  16.1010453  22.2413874
  56.8753045  14.8328969  21.9685078  74.4739120  24.5762727  11.9330180
  75.3216093  24.1525552  12.0675683  74.6031301  25.4734895  12.2404778
  40.3189707  79.2122364  25.8402753  40.3727007  78.5784769  26.5556002
  41.0790968  79.7802591  25.9659410  60.7785463  76.6782427  18.9008784
  60.6255960  77.5363541  18.5053027  61.0953951  76.1349249  18.1793213
  74.2843931  14.4966123  56.7217731  74.8100107  13.7258336  56.9359207
  73.6451071  14.5553681  57.4317694  82.8886526  30.1638886  54.7024012
  82.3546760  30.7588765  54.1760015  82.5194614  29.2971894  54.5328188
  40.3140593  34.6481633  14.4208479  40.6253195  34.2211342  13.6227286
  39.3606663  34.6494913  14.3355739  80.9870897  44.5958849   4.6908243
  80.7400213  43.7080427   4.9495419  80.2795134  44.8827883   4.1135462
  53.1162303  34.7052667   0.9522925  53.3700722  34.7229478   0.0295339
  52.2130411  35.0221917   0.9583565  76.8299501   2.8268811  38.1540322
  77.4723785   3.3170411  37.6409435  77.3488825   2.3768327  38.8206649
  11.8589938  66.9973993  26.7816567  12.1131313  66.4857817  26.0136104
  11.5664554  66.3449192  27.4179912  38.5616279  80.4163074  32.9751635
  38.2056546  80.7509518  33.7982821  39.2102885  79.7649431  33.2419825
  68.2612126   1.9083592  34.9796772  68.5778659   1.0505769  35.2628160
  67.3235052   1.7817399  34.8350763  64.5516777  78.6220217  24.5063853
  63.6840916  78.7673473  24.8837447  65.1034975  78.3951616  25.2548933
  70.7489031  20.5249783  51.4954042  71.1965244  21.3510892  51.3126326
  71.3743894  20.0244519  52.0192957  19.9456524   3.4779736  33.6264634
  19.5361768   3.8018605  34.4287467  20.0524419   2.5383470  33.7745428
  67.1528976  29.0731046  42.5169849  66.8004887  29.3718907  41.6786718
  67.8581016  28.4710404  42.2794294   4.8823991  62.7269602  30.8501148
   4.7722545  62.8033781  31.7978811   4.0126556  62.4930191  30.5260038
  50.6791258  69.7717476  27.5045395  50.8522892  70.4257774  28.1816602
  49.7949934  69.9728775  27.1977901  60.6489801  50.0533676  15.8091366
  60.3557634  50.8512449  15.3690803  61.5698433  50.2168369  16.0129178
  28.9119424  34.9321458  30.4373741  28.2118978  34.2816064  30.3829241
  28.6830129  35.5861756  29.7770166  80.2640312  16.7870042  10.4509544
  80.3870838  16.7232320  11.3980675  79.4756430  16.2728974  10.2767015
  14.0154535  26.7324210  57.6048569  14.7237475  27.0324184  58.1745521
  13.8649923  27.4628783  57.0048372  55.5910730  81.9830704  43.3440113
  55.7988739  82.4428654  44.1574240  55.3385973  82.6766777  42.7345896
  52.0337200  59.0078974  41.4986753  52.0284319  58.0636072  41.6552687
  52.9399014  59.2065048  41.2628412  64.6895218  74.8423243  12.2863579
  64.1252232  74.4630575  11.6125953  65.4866409  74.3132114  12.2568619
  45.4660719  -0.1266864  56.3425112  46.4105575  -0.0467494  56.2091351
  45.1224571   0.7459828  56.1512184  25.8130722  12.9758355  13.1698477
  25.4429545  13.0914494  12.2947037  26.7518853  13.1223580  13.0541313
   7.5168504  29.8837945  19.0890157   7.6619043  30.3402421  18.2602525
   7.7158346  30.5367181  19.7600770  29.1998853  21.7360780  38.2977962
  28.5955228  21.1237332  37.8782630  30.0349607  21.2689206  38.3231592
  53.1688040   4.7994801  31.5991116  52.4547069   4.8565957  30.9642601
  53.7063377   5.5721471  31.4251137  46.5413242   3.8870332  64.6850348
  47.2267454   3.8375661  64.0187120  45.7639246   4.1772172  64.2078781
  80.2366941  31.9680306  31.5323949  81.1884516  31.8674848  31.5490246
  79.9001139  31.0757539  31.6148257  72.8636806  35.0427052  46.1264515
  73.2126921  34.1834256  46.3632393  72.2737615  35.2681252  46.8457651
  50.3477335  25.6673741  24.2779827  49.9130726  26.5073538  24.1305494
  51.1469126  25.7159114  23.7533927  39.3678546  48.3243561  39.0034270
  39.4117880  48.9259768  39.7466326  40.1663113  47.8008461  39.0715289
  17.6304674  50.9754467  27.6815796  18.5259271  50.8981514  27.3523235
  17.7066231  50.8162355  28.6223674  22.2783947  71.3055944  46.6148233
  21.9720221  72.1861601  46.3980865  21.7994356  71.0744858  47.4106979
  71.6895597   1.4801690  33.9368296  70.9713714   1.1264512  33.4121180
  72.4791878   1.1089990  33.5431814  37.3422599  71.7257357  53.8267660
  36.4477134  71.3966703  53.7388229  37.6492834  71.8285418  52.9259872
  29.3411136  79.8789454  66.6812611  28.7875724  79.4736481  66.0137558
  30.1960826  79.4637489  66.5678215  36.3924026  65.7007551  61.7585230
  36.2941360  66.6432381  61.8937922  35.9935522  65.5386162  60.9036207
  14.6704275  61.0326434  68.3809428  15.4515392  60.9456588  68.9273204
  14.5389301  60.1599361  68.0103825  27.7479162  25.6794068  22.7194905
  27.7267542  24.7728536  23.0259871  28.0805196  26.1770722  23.4664416
  66.3062160   1.6027352  16.5257525  66.2493198   0.9297559  15.8474505
  65.9235924   2.3820493  16.1226416  29.4065752   5.8766934  15.3250539
  29.1238966   5.3114602  16.0439682  28.6476411   5.9222218  14.7435272
  76.3330953   0.1262662  37.6902556  76.4570444  -0.2280238  38.5707927
  76.5981357   1.0432813  37.7615452  33.0887461  54.2598724   5.5528730
  33.9173627  54.6329117   5.8536518  32.9192996  53.5357666   6.1555231
  22.3226094  33.6552954  18.5240960  22.3389697  34.2655492  19.2613590
  23.1931639  33.2573438  18.5232127  75.6602495  14.1595265  37.7765179
  76.1036508  14.8525903  38.2656860  75.0483768  14.6235177  37.2050714
  20.9058745  61.4278747  61.6060154  20.5352099  61.0528995  60.8071188
  21.4531834  60.7302142  61.9665067  27.4771070  77.7385044  41.1560059
  27.9396582  77.5283766  41.9672537  27.1983814  76.8896723  40.8124638
  63.5381699  80.9809685  29.6111774  64.4480705  80.9430790  29.3164372
  63.0526400  80.4820156  28.9542651  46.9985485  63.0333900   6.4637774
  47.6376200  63.1517601   7.1664941  46.8298197  63.9188862   6.1418152
  40.6966114  68.7880421  33.4545636  40.9301710  69.4647694  32.8191686
  40.3981972  69.2740536  34.2233109  43.7467527  58.1332684  35.2232599
  44.2727709  57.6283693  34.6030879  42.9414988  57.6255417  35.3232837
  52.5069189  56.0608959   8.7265247  53.0289268  55.4647636   9.2635244
  53.0902004  56.3106251   8.0098295  24.2245991  73.7194968  63.7587313
  23.9450152  74.1012908  62.9266826  25.1330835  73.4578754  63.6089532
  57.0252149   4.2185971  59.6546602  56.1505072   4.5783421  59.5073414
  56.8835132   3.2770822  59.7531271  71.4336698  45.4702470   1.4541720
  71.1060923  44.6560380   1.8362586  70.9415262  45.5672547   0.6389321
  53.4990406  73.7280178  21.4852834  53.7281704  72.8407478  21.2087226
  52.9485655  73.6032867  22.2583604  24.8001957  54.8653984  31.6107726
  24.0013909  54.9446869  32.1321726  25.2953768  54.1653490  32.0361662
  21.8873954  61.6794825   3.0057800  21.7598152  61.2510920   3.8522065
  21.5226316  62.5565481   3.1238392  86.5607186   2.2430322  13.0895054
  86.9344708   2.9425904  13.6253774  86.4345785   1.5158269  13.6989999
  62.3221731  80.0973606  33.8966250  62.8200245  79.2812395  33.9447641
  62.8664398  80.6789875  33.3658552  65.9225791   7.9321095  40.0587988
  65.8056085   7.7300069  39.1305208  65.5239551   8.7954804  40.1680326
  23.8383818  38.7331724  37.1960354  23.2689190  38.9540529  37.9330254
  24.2628789  37.9161644  37.4578238  14.5127859   9.7561738  21.4612079
  14.2071333   8.8513562  21.5253496  15.0240125   9.7795102  20.6522989
  29.3217213  59.5090343  69.9694536  30.0921518  59.7595741  70.4792542
  29.0454275  60.3183986  69.5395361  42.2191715  81.5626431  30.9766793
  43.0564547  81.2552643  31.3241029  42.1060467  81.0769176  30.1596713
  17.6938438  69.5581198  50.5456924  18.4699309  69.3459415  51.0642481
  17.4497652  68.7309504  50.1304197  79.4549768  11.8838117  44.9940920
  79.4213598  12.8387734  44.9379396  79.6459644  11.5979287  44.1007662
  39.1474806  17.5933930  52.8455162  39.2521392  16.8266484  53.4088755
  39.4264048  18.3300588  53.3893585  87.8006285   5.3357694  11.2064004
  88.6899202   5.1245782  11.4906323  87.8686207   6.2187383  10.8431256
  53.6433220  68.0826855  28.5479712  52.9141617  68.1554508  27.9321313
  54.3084717  67.5837564  28.0737519  38.3958149  47.8679228  13.6055100
  39.1588593  47.4364328  13.9899755  38.7638855  48.4999657  12.9880345
  62.9341357   9.5206639  44.9878883  61.9881790   9.5624062  44.8476887
  63.2987302  10.1277730  44.3438959  62.0547417  56.7742491  36.8344617
  61.9147781  57.1880627  35.9827566  62.4807409  57.4499321  37.3619223
  22.9598904  60.1554680  12.5401974  23.3668375  60.9225750  12.9429066
  22.1551394  60.4909229  12.1451259  17.4431229  60.3376341  48.5895872
  17.0585275  59.4612503  48.5729790  17.3653615  60.6160641  49.5020914
  61.7838757  20.6042382  35.8125973  61.7602270  21.1424348  35.0213814
  61.1463254  21.0119245  36.3987279  17.7866721  61.2721205  41.3229179
  18.2811368  60.8503723  40.6201601  16.8694985  61.1204004  41.0948706
  21.6988707  67.2407818  43.5572433  21.0092330  66.7254066  43.1388950
  21.4009595  68.1471395  43.4797859  40.6595182  77.6302290  28.3966041
  39.8259139  77.4519634  28.8319850  41.1864758  76.8477249  28.5585761
  69.1593967  68.1666518  61.9716577  69.2150591  68.9887382  62.4588053
  68.4006516  67.7180148  62.3448340  65.7451432  31.8018910  48.6840868
  65.6425612  31.2083814  47.9401398  66.6882174  31.8212506  48.8467693
  84.4870567  67.5096846  30.6248069  83.7016010  67.7652359  31.1085296
  84.9174690  68.3378124  30.4122567  26.7444563  66.7527485   3.0003545
  26.6091132  67.6677132   2.7538756  26.3533330  66.2515545   2.2847700
  66.0113423  12.6737306  43.0986023  66.5149920  11.8657014  43.1968498
  66.1086028  12.9057881  42.1750641  28.2974240  23.9930150   0.5037330
  29.0974621  24.5183465   0.5177145  27.6501311  24.5537564   0.0761670
  23.9675426  75.1559114  41.8447208  24.3304825  76.0144615  41.6270113
  23.2171154  75.0575113  41.2587118   0.8573430  42.9778481  15.4286575
   1.1440761  42.3379087  16.0801935   1.4392558  42.8365469  14.6819019
  77.3448086  73.3240891  60.2317047  76.8520546  73.1015062  59.4418430
  78.2612562  73.3030033  59.9561787  40.7507515  81.4075756  27.6516390
  39.8582745  81.0621452  27.6714706  41.2797165  80.7286549  28.0705547
  52.9581373   7.3766801  17.7871335  52.1775310   7.7911946  18.1546438
  52.6314371   6.5814111  17.3663628  88.0344551   0.6645200  10.6210041
  88.0440014   0.5867478  11.5749919  87.6572245  -0.1610759  10.3171587
  58.4370899  82.3080921  41.5318537  57.8112411  83.0274105  41.4474297
  58.4739065  81.9188595  40.6581450  45.5302525  53.3305693  33.5267496
  45.8936548  53.4121513  34.4085193  46.2425566  53.6024952  32.9480338
  47.0151644  10.3714463  12.7517378  47.7739590  10.9486005  12.8374982
  47.2714608   9.7366712  12.0827043  76.5403748  61.0606766  43.0081940
  76.0684395  60.4681015  43.5933161  75.9396124  61.7937279  42.8742170
  43.6781693  73.9645910  61.7006350  43.6628008  73.5193682  62.5478506
  44.1080475  73.3442926  61.1118507  18.4117031  68.4486341  17.8838718
  17.5336039  68.5751963  17.5244904  18.7971783  69.3247700  17.8884959
  76.1126488  10.8415029  63.7264252  75.4641693  11.3806912  64.1791773
  76.7143839  10.5610082  64.4159698  23.1176138  55.8291101  46.3126183
  23.9163136  55.9960079  46.8130732  22.6462865  55.1726866  46.8256426
  13.3536949  17.5403592  53.9919901  13.4113445  18.4765908  53.8012218
  12.9306259  17.1642491  53.2201147  50.7759047  64.4301224  27.2689009
  50.6663752  65.3683281  27.4238300  51.6925573  64.3355322  27.0099902
  27.0891190  79.1550970  30.5947757  27.4838710  79.9980068  30.8181715
  27.4549222  78.9391327  29.7370005  73.2216900  10.8118531  64.1873312
  73.1241053  10.2586648  63.4122944  72.5870769  11.5169904  64.0597391
   7.5122278   2.1539590  18.9446151   7.2884052   1.5613648  19.6622276
   7.3825186   1.6314313  18.1531823  36.5920830  74.3733358  49.4032335
  36.0757494  75.1782227  49.4455099  36.5651512  74.1196823  48.4806490
  56.3907044   4.2217347   8.2799971  56.8150847   5.0357625   8.0089289
  57.1110599   3.6009500   8.3892876  71.6190720  62.4441195  22.1772242
  71.6488218  63.0002546  22.9557252  71.4987516  63.0554867  21.4505959
  67.4961059   5.7506463  30.2904248  67.1508353   6.3319108  30.9680271
  66.8564766   5.0406739  30.2351975  19.3383408  60.2514887  59.4647837
  19.0461409  59.3469143  59.5770073  19.0664458  60.4825735  58.5765791
  31.1650920  41.3322020  61.3538504  31.5699530  40.8453655  60.6360006
  31.7601109  42.0651865  61.5117073  32.6179481  40.0047350  19.2811692
  33.4280086  40.3125143  19.6877480  32.4296546  40.6525135  18.6020803
  17.7737319  77.5083971  19.1283464  17.1328795  78.2193470  19.1377676
  17.5671124  76.9893789  19.9056232  24.0208530  65.0661898  40.7874298
  23.6290383  64.7626066  41.6062975  24.1061878  66.0129929  40.8993053
  83.6486636  60.6886054  64.7331194  83.9127145  61.5767242  64.9734471
  84.0115581  60.1353885  65.4248462   8.8401849  33.4914495  70.5929954
   9.0859968  34.3589212  70.2715817   9.1621620  33.4698249  71.4941586
  58.7034464  60.3496075  16.0228229  58.3842134  60.9298182  16.7139637
  59.2473698  59.7085762  16.4804888  61.9032805  13.1625745  48.7742615
  61.7238205  13.8927743  48.1819534  62.0121758  12.4069688  48.1968164
  31.3697124  63.5232401  23.3351302  31.3154292  63.4315062  22.3838854
  32.2732759  63.2890415  23.5471654  85.9345072   4.4148347  29.4068265
  86.2735956   5.2925870  29.2313504  84.9936073   4.5415112  29.5288324
  40.5411243  81.8027687  53.1315327  41.2647724  81.6487598  52.5241995
  40.9623194  81.9047832  53.9850092  84.3973892   1.8976113   1.5549688
  84.0795582   0.9948060   1.5676163  85.2455871   1.8591401   1.9969100
  76.3869493   0.7005593  47.0516253  77.3126524   0.4590413  47.0203447
  76.3359754   1.5184972  46.5570545   6.4334573  28.9150521  29.6062088
   5.5398073  29.2483804  29.6869421   6.5000190  28.6261365  28.6960816
  67.6694386  14.9160191  54.5465183  67.6435464  13.9647576  54.6497917
  68.5937159  15.1157472  54.3980074  41.8994491   9.6506497  40.8624506
  42.2894149   8.8543889  40.5017185  42.5999277  10.0468442  41.3807058
  48.8026469  17.5475404  51.7752361  48.8387936  17.7868840  50.8491468
  48.0482631  18.0272481  52.1173239  74.1554897  22.9447743  41.4545155
  73.2218521  22.9384992  41.6654825  74.3828647  22.0212552  41.3465738
  59.9226635  15.3888318  13.7952280  60.2886718  16.1975572  13.4371328
  59.4382208  15.0017259  13.0660558  51.0831881  51.8107891   6.9471836
  51.3645029  50.9352016   6.6817856  51.8339062  52.3723555   6.7540693
  54.9996703   1.6785714  46.1029053  54.3192070   2.3436353  46.2072468
  54.8749440   1.3456723  45.2141666   1.1396017   6.5119454  30.6130385
   1.5756645   6.5444085  31.4645219   0.2564373   6.1985204  30.8080292
  71.2607830   6.8613145  53.3237696  70.7527464   6.2058255  53.8017559
  71.7449205   6.3583180  52.6689196  41.9461107  83.0890846  55.9993553
  42.5236797  83.2438469  55.2518988  41.9611931  82.1397972  56.1211824
  25.9739399  69.5238638  41.6494560  26.7371774  68.9470720  41.6176081
  26.2378621  70.2980328  41.1522198  62.4199717  11.5299413   9.4830132
  61.5406697  11.1643979   9.3858898  62.9997437  10.8575723   9.1252196
  45.5691433  76.0035181   1.5483189  46.2933826  75.4288530   1.7962460
  45.7430315  76.2271500   0.6339976  61.4777899  70.0659943  11.8752992
  60.5942106  70.4266357  11.8014324  61.3438559  69.1245413  11.9846356
  85.6622379   5.3852174  35.8899283  85.7611864   5.6846330  34.9861598
  86.3416212   4.7195527  35.9974551  58.2301371  16.7988488  19.1353762
  58.2779043  16.2903115  18.3258450  57.8492468  16.1965653  19.7744477
  85.3299873   5.2439496  25.5966163  84.4220608   5.3971002  25.8582401
  85.3344934   5.3897759  24.6506000  58.2541292   1.8198201   7.5252283
  58.2119029   1.0769460   8.1273806  58.3312266   1.4213654   6.6583252
  81.3346498  23.0260179  20.5637956  82.0660990  22.4739167  20.8402085
  81.4667623  23.1454274  19.6233082  80.6862912  54.8697425  36.4980738
  79.9166951  54.9292613  35.9320227  81.1918030  54.1404678  36.1391203
  72.4750471  80.9754848  44.5916510  71.9072199  81.5634632  45.0897264
  71.9596100  80.7417107  43.8196993  47.3726988  43.9062786  26.1794019
  47.4556828  43.5026884  27.0433807  46.8725824  43.2719946  25.6657887
  45.1322515  33.8657566   2.9005011  44.2941244  33.4900327   2.6310452
  45.1283891  33.7997289   3.8554152  35.8697748  81.7721939  62.3852158
  35.4244137  80.9321690  62.4958134  36.4153314  81.8587971  63.1669426
  55.5323952  33.0906007   1.6704853  54.8777240  33.7874314   1.6250774
  55.4170721  32.6002118   0.8565724  46.8090158  17.9522225  18.0986571
  46.1090534  17.2998044  18.1238866  46.9734924  18.0910966  17.1659756
  83.1362741  55.1626584   5.7099134  83.4764879  55.9335610   6.1639935
  83.5226076  54.4207093   6.1751986   0.8633365  19.1168687  30.6899738
   0.0228347  19.5058915  30.9317350   1.0796632  18.5397717  31.4223623
   6.3929755  39.6121169  69.1344632   5.9364063  39.7234775  69.9683547
   5.9616429  40.2271510  68.5412384  13.3555355  20.6553838  21.3858438
  13.4343996  20.1877210  22.2172952  12.5679817  20.2923486  20.9806204
  48.4686153  16.4074609  20.0641418  47.8013139  15.7318875  20.1847577
  48.0947988  16.9995400  19.4115067  57.1202326  46.0590601   8.6448759
  57.2150040  46.8971491   8.1922680  56.2084007  45.8084917   8.4965098
  70.5647867   8.1342313  49.7648335  70.7419126   7.3659322  50.3075743
  70.6417673   8.8750836  50.3660393  35.4267430  54.7640419   6.5038741
  35.3100944  54.2664814   7.3132300  35.6753492  55.6411362   6.7956477
  85.0321017   8.3208610  65.7265345  85.6509123   8.2074262  66.4479474
  84.6096001   9.1613818  65.9033160  80.2402082  55.6366444  28.0813742
  79.4473752  56.0104322  28.4659910  80.0648812  54.6966648  28.0374002
  35.0473171   4.9754617  22.3706508  35.3633993   4.2760465  22.9426146
  35.8370899   5.4538056  22.1183014  26.0538816  71.3627386  15.4123998
  26.6618037  72.0627880  15.1745093  26.5714359  70.5608749  15.3390372
  -0.0455199  62.6554060  16.5311980  -0.6700481  62.6246500  15.8064556
   0.7771288  62.9311800  16.1269319  37.6970768  73.2690430  28.4518528
  37.4528718  72.3499489  28.3429646  37.0138526  73.7547588  27.9897714
  85.7096325  30.0322052   4.4035204  85.5240355  30.2518745   3.4905441
  85.2010618  29.2379137   4.5669039  75.4717398  71.2901402  35.4257202
  74.9987125  72.0195866  35.0252366  75.3374910  70.5582285  34.8236299
  67.4384826  19.8248670  31.9044209  66.9629162  20.6048009  31.6184616
  67.7797382  20.0557801  32.7683997  63.3637660  21.1672208  17.1749520
  62.4676102  21.5015695  17.1382701  63.8983052  21.9360444  17.3735046
  64.3256157  18.0867764  40.6748533  64.3425291  18.7062451  41.4043808
  64.8910635  17.3681066  40.9577274  19.6088972   2.1728799  37.8788233
  19.2956485   1.4588258  38.4340096  20.2662983   1.7664906  37.3141122
  54.1789293  68.0920124  24.7881866  53.4357595  68.6949062  24.8095632
  54.9428654  68.6479950  24.9415231  22.6665545  73.6315680  37.8242302
  22.5879741  73.8270950  38.7579465  22.1631551  74.3214178  37.3918724
  35.8890503   2.9599473  28.3672309  36.4756428   2.5453088  28.9998579
  35.0166612   2.8600499  28.7482691  36.1796570  70.5627298  23.4746361
  35.9779763  71.4526367  23.7638187  37.1011782  70.5973291  23.2180548
  66.0826753  26.1867143  62.5990455  66.5843604  25.5901529  63.1546174
  65.8986763  26.9395162  63.1608830  74.5704620   6.9927785  49.8998976
  73.7480848   6.8060777  50.3527498  74.4837158   7.9010770  49.6105814
  40.9162807  48.9237165  24.1564012  40.5628633  49.3695164  23.3866048
  40.7846498  49.5437050  24.8737001  73.9561909  20.7674691  43.9679098
  73.5740726  20.2332303  44.6641922  74.3598144  21.5047547  44.4258595
   9.1708285  74.0971996  65.0306128   9.0912754  74.6006538  65.8408229
   8.7419278  74.6394302  64.3686013  70.0758617  24.8186585  12.0042026
  70.3596466  24.9029824  12.9144716  69.6771686  23.9497182  11.9571257
  58.0612421  77.6667786  64.9060726  57.4928427  77.1528625  65.4796934
  58.8474989  77.8260946  65.4282284  29.9608738  19.8806907  69.3618203
  30.3322250  19.0402461  69.6301181  30.1989109  20.4835178  70.0662134
  23.1560697  16.6494367  44.5904160  23.1571378  17.3336598  45.2597952
  24.0681638  16.3637731  44.5384502  20.9947419  66.2462711  56.5884638
  20.9565902  65.6198692  57.3112297  20.0848365  66.3438082  56.3077688
   8.2250204  19.2268369  47.9691362   8.1650867  18.7707707  47.1297026
   7.9884233  18.5648629  48.6187840  33.4120870  80.3294754  36.0417151
  32.7879715  80.9124756  35.6094885  33.7425256  79.7692919  35.3394055
  55.2001303  12.6980493  27.2136712  55.2723258  11.8174264  26.8455529
  54.2679804  12.9071233  27.1535087  15.1864853   1.5042302  22.4200892
  15.1809492   1.2386224  23.3396840  15.4147377   0.7070634  21.9419122
  10.3589995  61.4335681  54.1832630  10.0039394  60.9440280  54.9252335
  10.0850756  62.3373367  54.3394725  31.3725448  29.9472997  15.9392262
  32.0864063  29.3747041  15.6585848  31.5598027  30.1298520  16.8600094
  60.3117125  10.0513074  49.8817492  60.2357834   9.6619985  50.7529020
  59.9265545  10.9226796  49.9744081  45.3032589  81.5476227  46.2721491
  44.7747993  82.1242714  45.7203817  46.1291552  82.0174885  46.3877010
  48.8216496  41.2497187  53.1381655  48.5711479  41.1014748  54.0500355
  48.5857010  42.1620607  52.9702568  64.7307699   5.5546472  68.1767750
  65.6565349   5.7610223  68.0479527  64.6928423   4.5985124  68.1521225
  34.5808244  78.6290073  45.8402538  34.6165657  77.7502060  46.2179613
  35.3066158  79.0968943  46.2532139  39.2552328  76.0929680  21.9828105
  40.1078081  75.6632376  22.0511794  39.4468975  76.9440651  21.5889430
   5.6911935  33.1083390  26.9443440   4.7512283  32.9380700  27.0052695
   5.8912458  33.6288068  27.7223682  69.5877188  13.5358426  41.5096903
  70.5441826  13.5733983  41.5086794  69.3794196  12.7497765  42.0146084
  69.3919771   6.0486028  20.1314831  69.4638794   5.8094022  21.0555220
  69.2051070   5.2231976  19.6842492  60.0947922  12.9720303  38.4768748
  60.6834095  12.5305268  39.0891147  59.2837232  12.4652669  38.5167480
  46.9827921  48.2089092  71.5935917  47.7754480  48.7232639  71.4407490
  47.3032553  47.3317291  71.8035780  42.8039312  66.2801600  18.6109018
  43.5258007  66.1960840  17.9879498  42.5100565  65.3814173  18.7596846
  18.7079611  26.0395333  41.2051201  18.9652052  26.4987275  40.4056263
  18.9005079  26.6585538  41.9093704  56.9473045  11.4617726  12.9348075
  56.2852233  11.5548131  13.6198068  57.6181262  10.9011838  13.3246410
  76.8485611  20.6524178  28.3830214  77.1474522  20.0486943  27.7030158
  77.4978416  20.5672452  29.0811729  85.0948828  10.7143018   4.6885452
  85.5535047  10.0073430   4.2345670  84.1666763  10.5174252   4.5624396
   9.4434013  29.9363229  53.1555700   8.7230816  30.1747415  53.7391186
   9.0404596  29.3716142  52.4960375  71.3289802   9.1182610  41.7060518
  70.9845465   9.1005322  40.8131456  71.0152882   8.3042237  42.0999765
   1.8163242  20.3182694  35.6487346   1.7890682  20.9914109  36.3287091
   2.2625913  19.5788476  36.0614562  76.0682981  11.3194940  38.2737756
  75.6274765  11.9567582  37.7118087  76.9647568  11.6464421  38.3492780
  78.7403362  37.7541825  19.9240875  78.1758087  37.7154061  19.1520500
  78.1702583  38.0776975  20.6216407  23.0160799   2.3785207  47.3838902
  23.9607324   2.4505040  47.2472429  22.6326933   2.9297635  46.7017078
  52.5684309  78.6752272  27.4961734  53.2515955  79.3027735  27.7321911
  52.9992247  78.0666733  26.8959141  72.5842428  68.8071156   3.5513753
  71.9571686  68.2878113   3.0480540  72.6453066  68.3578110   4.3943638
  60.8113861  81.9102383  42.8505087  60.0368309  82.3052025  42.4501324
  61.3085365  82.6526928  43.1937695  39.1582322  75.8467102  39.8794222
  38.5516310  76.5871000  39.8698997  39.1953707  75.5557728  38.9682651
   1.5519037  24.9236009  47.1290541   0.7723751  25.4784581  47.1553993
   1.6457357  24.6860311  46.2065649  24.6238262  41.0569526  66.1387674
  24.9242432  41.9032909  65.8075754  24.8487932  40.4353286  65.4465238
  43.6197557  12.4061868  39.2298579  44.3459882  11.9134137  39.6119499
  43.3299055  11.8712613  38.4908891  42.6631594  77.5853586  15.1339364
  42.2276640  77.4043417  14.3009853  42.3936653  76.8669462  15.7062030
  70.6798189  22.8723237  47.9565096  71.5693729  22.5909326  48.1703806
  70.6573694  23.7986276  48.1966972  51.6657400  82.7224255  50.7654190
  50.9358692  83.3177662  50.9359550  51.6631126  82.1208382  51.5099525
   3.1428995   6.9249722  21.0932612   2.8426304   7.3994824  20.3180814
   4.0715303   6.7610261  20.9289455  11.3323438  59.4389534  12.7080834
  11.2183809  59.2554331  11.7755783  12.1314752  58.9701223  12.9485404
  74.4754236  36.3826749  32.9565525  74.3859690  35.7409379  33.6611104
  74.8032110  37.1704671  33.3903313  69.2159751   9.3710959  36.4899755
  70.0115612   9.1296935  36.9643140  69.2099598  10.3281772  36.5038180
  13.1406689   4.7285077  48.6361361  12.5405490   4.9148250  49.3581963
  12.8483188   5.3019631  47.9276752   7.9371148  45.2138567  28.4767008
   7.1399182  45.5394316  28.0587196   8.2828903  44.5669031  27.8617835
  79.8896107  27.4863172  56.4746141  79.7182819  26.8488288  57.1677828
  80.3001598  28.2247663  56.9244766  69.1499463  23.0207992  19.4306636
  69.0288463  22.2884512  20.0350094  68.6884537  23.7507844  19.8434329
  27.3623371  54.0960264  27.2625232  27.8984261  54.6784449  27.8006935
  27.0076776  54.6622324  26.5770578  37.4626756  47.4235582  28.1033850
  36.5705681  47.2020149  27.8363705  38.0109453  46.7653513  27.6763058
  87.0085082  79.3870664  44.6779156  86.9815955  80.1223528  44.0656567
  86.4454136  78.7232065  44.2798615   5.6877673  19.1589797  22.7817416
   4.8983017  19.6973825  22.8374076   6.2589097  19.4994462  23.4702992
   3.3783898  10.4115677  14.0389335   2.7642044   9.9243820  13.4896994
   3.0062759  11.2919033  14.0915906  60.0824329  59.1194084   6.2262267
  59.6629410  58.2831195   6.0240489  59.9800818  59.6378377   5.4281116
  62.7212671  13.0910802   5.0545150  62.6726487  13.8570976   4.4826013
  63.5076645  13.2347643   5.5809814  73.2719472  37.7672386  54.1027689
  73.9043978  37.1472049  53.7397289  73.7397936  38.6020565  54.1235256
  79.5048377  30.7132506   1.8544766  79.4824341  30.1633477   1.0713188
  80.1952484  31.3524961   1.6786104  59.9879258  27.1422247  68.3320270
  59.3338578  26.6153101  68.7911464  60.8171742  26.6948179  68.5005645
  59.2946053  21.2505698  68.3296442  58.3412170  21.2076592  68.4034348
  59.5296621  20.4805684  67.8118849   5.8867705  58.6242104  24.5955157
   5.9706008  57.8079557  25.0884008   5.8230484  59.3037701  25.2666116
  19.2792189  31.6108108  12.7197015  18.6633694  31.6462421  11.9877815
  19.0642703  32.3775220  13.2509089  72.2989504  33.3068738  56.8835310
  72.5554507  32.3913137  56.7731242  71.8625586  33.3323328  57.7350883
  84.4603041  48.3666563  11.4986718  85.1381248  48.9940262  11.7500615
  84.7408918  47.5404072  11.8921399  49.7099498  34.5820546  24.9899030
  49.0997484  34.7132444  25.7156277  49.4655946  33.7328124  24.6220565
  19.4695878  44.9008656  41.8467188  19.7083688  45.6820726  41.3477850
  19.7193980  44.1699696  41.2813663  27.8499556  42.8301954  24.5799899
  27.0789695  42.8231478  24.0127468  27.5145507  42.5875616  25.4430461
  62.5700764  70.1377454   4.0218168  62.8848670  70.5719688   4.8146531
  63.2051257  69.4393769   3.8629940   7.5229895  10.1841211  25.2756476
   6.6970897   9.7770572  25.0140762   7.7080154  10.8175039  24.5822334
  86.2681957  15.1259279  38.8495684  86.9621272  15.3934205  38.2469583
  86.3051204  14.1694415  38.8479590  16.5818803  79.3624214  69.8474407
  17.4933617  79.3992929  69.5574888  16.6354256  79.3327836  70.8026821
  19.5406485  13.5021496  22.6427794  20.3278828  13.6657596  22.1234274
  19.7289622  12.6905191  23.1139755  44.6728222  72.4914078  64.3422620
  45.3005760  73.1747822  64.1074048  45.2101974  71.7133359  64.4908057
  54.6016471  15.2419616  58.4395532  53.7146054  15.3933192  58.7658636
  54.6660901  15.7904483  57.6577334  35.0263762  24.7000647  38.3560967
  35.0534320  25.6560683  38.3166194  35.2167439  24.4926429  39.2709565
   7.1054995  17.5886571  46.0234308   7.0651126  16.6333759  46.0685635
   6.9198090  17.7932000  45.1069593  87.8759663  49.3958759   1.0415802
  88.6153693  49.8445940   1.4516616  87.1131102  49.6837711   1.5429774
  88.0009248  26.2090898  19.1797006  87.9159074  25.7382989  20.0087738
  87.4087676  26.9560981  19.2666411  15.5823493   1.6108233  44.0408850
  15.5139875   2.4852768  43.6576223  15.8098543   1.0435590  43.3042145
  19.3667214  68.8809065  52.7768819  19.4332145  68.9096932  53.7313358
  19.6716701  69.7415094  52.4894790  15.9526563  42.6833677  34.7024131
  15.6728768  43.3842087  35.2912903  16.9088173  42.7253819  34.7173715
  76.9989887  15.0703096  24.2594433  77.8905252  14.7442031  24.3821192
  76.6371062  14.5220840  23.5632229  33.7846551  81.4651795  41.3259745
  34.4259153  81.3227926  42.0222044  34.0288935  82.3082648  40.9441519
  73.0039290  45.8976078  22.5672126  72.9313651  46.7386770  22.1160269
  73.6649349  46.0449362  23.2436728   4.6059067  77.3329642  29.9429703
   3.9536984  76.7016402  29.6391845   5.4389698  76.9922736  29.6171355
  86.9891736  10.8558190  36.4730144  87.6125725  10.1464379  36.6291690
  86.1864027  10.4129767  36.1979127  39.6421092  78.5604290  61.8863670
  40.2110259  77.7940850  61.9590442  40.1642566  79.2014794  61.4040295
   7.7394754  30.7589746  26.5434074   7.0971322  30.0620008  26.4097857
   7.2161591  31.5250325  26.7790508   4.2736143   2.3444709  28.6873174
   5.1629883   2.5990662  28.4414959   3.7697586   3.1568551  28.6383939
  84.0056953  13.6059761  43.8299322  84.3035564  14.5117080  43.7453032
  84.6269646  13.2053566  44.4380093  79.0060482  14.5601463  44.4313526
  78.0639628  14.7100294  44.3523502  79.3857208  15.0234270  43.6847258
  82.1250573  10.0879824  14.6569788  82.8721359   9.9702364  14.0702581
  81.3643196   9.8506957  14.1266906  84.3134588  49.1309357   8.6963034
  83.6022404  48.4950495   8.6185211  84.5733652  49.0882063   9.6165508
  12.5688827  49.6570587  19.8784685  12.9246187  49.4684887  19.0100646
  11.7577243  49.1505814  19.9201632  18.8975978   5.7277822  19.3124080
  19.3210042   6.2606090  18.6393154  18.5826790   6.3617224  19.9567509
   8.1923842  12.4539804  40.9844017   8.9007103  11.8307602  41.1459637
   8.5869104  13.3114719  41.1434269  51.7621629  72.9064683  62.1215610
  51.1962573  72.4305157  61.5137355  51.5849154  72.5097183  62.9744403
  18.1227815  38.1943250  11.1264181  18.1783485  37.3932862  11.6474569
  18.9087188  38.6877227  11.3611364  83.3412783  69.7390012  67.3525242
  82.4132292  69.9682144  67.4017234  83.4872668  69.1679887  68.1067551
  64.9857471  80.1511928  65.9216261  65.8138261  80.1869574  66.4004135
  64.8054669  81.0614090  65.6865978   0.9666545  69.5771506  27.7297950
   1.1425836  69.9624053  28.5881996   0.2030522  69.0173665  27.8704476
  24.5403361  50.8193493  28.7610698  24.0725708  49.9945498  28.6301756
  24.6565294  51.1714602  27.8786039  45.9342575  13.0802655  12.2258091
  45.6667995  13.6585569  12.9401445  46.0264444  12.2201788  12.6356673
  11.4491415  45.5224991  39.4286180  12.0868194  44.9239969  39.8177052
  11.6837561  46.3823891  39.7775841  10.2411091  24.9533248   2.5664696
   9.9294531  24.1559434   2.9945874   9.7166640  25.6539655   2.9541457
   5.3241736  24.9124932  60.8355522   4.5223582  24.7841430  60.3287458
   5.0318909  24.9259329  61.7469358  25.5764842  42.1940184  23.2376981
  24.9243402  42.0315075  23.9192629  25.2513814  42.9658985  22.7742982
  37.2523260   5.4166186  28.9692616  36.8874121   5.4975140  29.8504686
  36.8877673   4.5978057  28.6332965  17.0602453  19.2045021  18.0745316
  16.2560284  19.6846902  18.2717264  16.7875087  18.2879949  18.0314016
  84.8816872  22.1332502  19.2984867  84.4144410  21.7696714  20.0506330
  85.3027016  22.9233670  19.6371508  20.0015593  34.3320680  35.1400971
  19.4422388  35.0422859  35.4547143  20.8503962  34.4956756  35.5511189
  19.1714108  29.0453482  53.8127851  19.3889689  29.3468738  54.6948195
  18.7291002  28.2073760  53.9484215  26.2879229  27.9238391  21.4854884
  26.1160994  27.4009037  22.2685885  26.2189984  28.8309097  21.7833233
  29.4114399  24.1284680  31.8126416  28.6528897  24.6608162  32.0523095
  30.1624298  24.7056222  31.9509864  27.6483274  32.4109435  31.1316752
  28.1044483  32.5432110  31.9627547  27.5191164  31.4640570  31.0774302
  53.2679639   4.6055652  64.1769294  53.4790037   4.8842574  63.2858495
  54.0716396   4.1951991  64.4962065   5.2686596  54.0465355  61.2369061
   4.6516398  54.4833422  61.8240356   5.7917839  54.7577333  60.8670807
  48.3509068  53.3432881  68.8858948  48.6209636  52.6981203  68.2323973
  48.0742650  52.8205196  69.6384994  20.7557321  37.9713106  33.0119753
  20.6131887  37.1034956  32.6340723  20.8348823  37.8128624  33.9526463
  75.6853590  26.9061137  65.5898402  75.5665288  26.1024905  66.0960976
  76.5088687  26.7737771  65.1202134  79.2000695  48.4019397  71.8207665
  78.3716674  48.0351482  72.1297101  78.9515610  48.9820902  71.1011138
  65.3952520  71.7383746  53.8365642  66.1101739  72.0331029  53.2724242
  64.6019285  71.9213466  53.3331863  62.3039702  19.1754247  67.8209759
  62.2438259  20.0426675  68.2216011  63.2426230  18.9904834  67.7899728
  41.1930847  65.8994484  10.6576359  40.3398085  66.0365391  10.2461112
  41.7271757  65.4964876   9.9730903  39.5061255  37.9976082  11.8679190
  39.4393229  37.2581601  11.2637782  40.3852558  37.9246736  12.2394586
  83.2784104  51.0071468  28.1781697  84.1465423  50.9403610  28.5758090
  82.7459672  50.3722811  28.6574221  34.2770525  79.7542338  62.5707422
  34.3875514  78.8234262  62.7646963  34.0581565  80.1503066  63.4142129
   0.9069537  30.8268952  11.2813270   0.1578954  30.9624672  10.7010138
   0.5585467  30.9744310  12.1605754   1.5309986  37.8884530  16.4110434
   1.2527111  38.8035488  16.4482927   1.1075461  37.5411010  15.6260169
  48.4015308  75.7266870  29.2308354  48.8784377  75.6683150  30.0587153
  48.9186374  75.2026769  28.6190796  85.4430214  37.4314213  26.8212152
  85.4207322  37.7001190  25.9027743  84.6469638  36.9129872  26.9384813
  60.1997140  12.3338735  12.8996074  59.8301485  12.5382698  13.7586033
  59.7456721  12.9230678  12.2971725  36.5858006  27.7123404  15.1015937
  36.0668421  26.9081688  15.1164663  36.5526342  28.0354857  16.0019875
  48.7237892  81.4905083  53.2966900  49.2395673  82.2798890  53.1321192
  49.0792761  80.8412732  52.6897669  64.7093747  77.8915641  48.6492062
  64.0581612  77.9991630  49.3424416  65.5458532  77.8422633  49.1119194
  86.4658795  63.1152394  10.8518469  85.5713997  62.7990773  10.7246530
  86.4944539  63.3909419  11.7680371  45.6269150  62.7615170  64.0166227
  44.9812250  62.2852544  63.4946172  45.6857793  63.6208014  63.5990159
  12.4579298  55.2776003   8.1110895  11.6675258  55.5738592   8.5624439
  12.9166949  56.0844135   7.8769535  29.0485620  22.6928520  51.5091658
  28.4238076  22.0953846  51.9201994  29.4126606  23.1966281  52.2370911
   6.9451082  34.2659664  18.1515884   7.7057713  33.6873555  18.2048011
   6.1962885  33.6929083  18.3162248  23.0893779  26.4516497  17.4631202
  23.2537174  26.0686946  16.6013956  23.8582611  26.9955444  17.6340914
  29.1982722  22.9809284  20.5006528  28.9556313  23.0703092  21.4222646
  28.3765411  22.7736688  20.0556469  78.4419099  24.1281772  22.2978354
  78.0491975  24.9646616  22.5474358  77.9326037  23.8411522  21.5399051
  28.8092501   2.3086930  69.6631099  28.1697638   2.0645190  68.9940290
  29.6323568   1.9267036  69.3584640  70.9379761  68.2811074  51.7176215
  70.6353180  68.2817749  50.8095304  70.7345049  67.4020938  52.0372562
  27.7510881   4.5605156  17.4301374  27.1065712   5.2297598  17.6602268
  28.3866072   4.5840302  18.1455362   4.6639841  53.4977929  58.5086409
   4.9589412  53.6388640  59.4082705   4.7558086  54.3534438  58.0895213
  45.2803898  33.3216262   5.7183683  46.1609745  33.6613011   5.8778220
  45.2608395  32.4818945   6.1773890  37.4353027  25.0370646  19.7517049
  37.6278830  25.9711790  19.6706295  36.4793348  24.9896073  19.7619414
  16.6874194  13.1909454  19.2423153  16.2913024  13.8362300  19.8279190
  17.6261628  13.3730364  19.2851591  36.8849182  12.2103512   3.1180501
  36.6878796  11.7509389   3.9343512  37.2849226  13.0339253   3.3972552
  22.4136901  33.7451243  44.6834421  23.2168031  34.2493081  44.8139906
  21.8434620  34.0120411  45.4044342   9.0361214  27.3728395  19.2984235
   9.7119236  27.6197553  19.9297369   8.5052949  28.1625748  19.1946328
  41.9831262  35.8080007  65.9680859  42.9373727  35.7379056  65.9951631
  41.7132507  35.1551820  65.3221528  15.7167864  16.5634561  26.2131476
  15.6828904  15.8268714  25.6027985  15.7319307  17.3388720  25.6521368
  23.4116840  57.7641010  25.7089353  23.1283092  58.1574202  26.5343022
  22.7847767  58.0873966  25.0618672  33.3834863   4.1444606   6.9372571
  33.8004160   3.9197415   6.1054504  32.7960157   3.4103638   7.1167356
  22.7392888  49.7556877  37.0623398  23.2537746  49.6290207  36.2651610
  22.7118111  50.7050610  37.1813464  47.5948238  20.3807783  19.4264591
  47.1801329  19.8014057  18.7872493  48.5220766  20.3748083  19.1889715
  42.4904203  15.2061570  25.2649570  43.2850027  15.3507340  24.7511816
  42.7458906  14.5616221  25.9249115  17.0268905  48.8694572  14.8835540
  17.2849584  48.2936382  15.6033230  16.4270353  49.4989634  15.2837145
  17.0837605  15.6678379  31.1914825  17.5891781  16.3421774  31.6454101
  17.1748590  15.8842301  30.2635241  11.7049408   0.4202081  35.3224063
  11.4665616  -0.3095797  34.7507286  11.0276532   1.0782347  35.1658368
  54.3736834   7.4762155  62.1104286  54.5384709   7.7060415  63.0248998
  55.1753623   7.0376350  61.8254868   9.2787063  14.8909795  40.4803228
   9.3780291  14.6797597  39.5520186   9.5347387  15.8110082  40.5453491
  79.9327281  13.4835255  30.5885220  79.3978402  13.8053918  31.3141441
  79.3614307  12.8733659  30.1220918  26.2642622  27.9738760  31.0800338
  26.0167789  28.0783081  31.9987726  26.9709516  28.6060572  30.9489989
   4.0479404  49.5964432  13.1345296   4.4640973  50.3897285  13.4717917
   4.7463271  48.9418554  13.1326747  76.7581704  20.9939623  51.7115688
  76.5978077  21.8279433  52.1531487  76.7294493  20.3425145  52.4123001
  27.4826002  41.7743015   6.9711185  26.5749097  42.0772886   6.9940799
  27.9335070  42.4105263   6.4160210  36.7633278   1.9992067  62.8629778
  37.0759327   1.1810352  63.2491164  37.3735363   2.1744825  62.1466283
   1.6402586  52.7678633  25.4189920   0.7349651  53.0729342  25.4790449
   2.0089550  53.2554579  24.6824145   5.1673979  48.8555050  26.9668865
   4.2295313  48.6870193  27.0577216   5.2899057  49.7315121  27.3327160
  29.8767400  17.1966040   9.3241966  30.1419544  16.9166934  10.2002907
  28.9563131  16.9418585   9.2597580  23.5115457  48.8544178  44.2064190
  22.9820108  48.9281321  45.0003910  24.3433166  48.4878492  44.5064449
  59.7695392  21.7016313  37.9677892  58.9982479  21.8511960  37.4210048
  59.4252961  21.6541860  38.8596869  22.7830124   6.6634166  21.7164612
  23.0595350   5.8359689  21.3226390  22.4141693   6.4139426  22.5637817
  43.0831099  48.4558773   5.0536937  43.9715385  48.5478163   4.7094938
  42.7018690  49.3297958   4.9691498  74.3033545  64.1759876  61.4854042
  73.9149229  64.0067152  62.3437164  73.7926476  63.6374192  60.8809606
  81.5328565  27.1165514  23.2819128  81.5014514  26.1656213  23.1771350
  82.3870334  27.3681259  22.9307413  24.7760534  16.2075043  25.6610847
  25.5820203  15.6915557  25.6399965  24.0756536  15.5561888  25.6993151
  25.5561137  37.3250747  41.6294718  25.3720284  38.0888009  41.0826063
  25.5184412  37.6578832  42.5261641  75.5767868  35.6877805  57.4644808
  74.9683128  35.2604963  58.0673234  76.4312647  35.3158380  57.6830153
  31.5461040  12.1441793  18.8165748  30.8284664  11.5793526  18.5298669
  31.1225128  12.8189611  19.3471134  37.0665073  66.7360258  46.2235594
  37.6998568  67.4436665  46.1037683  36.2133479  67.1670198  46.1726427
  23.6177278  13.7981784  43.0932903  23.3937979  13.1235325  43.7343359
  24.2711234  14.3406975  43.5348511  64.6174018  76.0710147  30.2742600
  64.0563200  76.1810341  31.0419297  65.3261212  76.7013344  30.4032755
   0.7461245   6.8023826  64.6624420   0.2114637   6.0733272  64.9768482
   0.1114971   7.4700643  64.4022898  47.6159928  65.1150182  10.4206252
  47.0079134  64.5787647  10.9294522  47.9580829  64.5208421   9.7526735
  59.4484949  71.7957926  29.5134687  60.0190687  71.0272503  29.5177817
  58.5695744  71.4423561  29.6506166  17.2117436  54.6752501  58.3019686
  16.3070333  54.8634434  58.0523443  17.7387404  55.0658226  57.6048613
  52.1261828  57.1924845  69.3040536  52.0075481  56.2575773  69.1364069
  51.3463013  57.4483601  69.7965398  50.6119316  75.4051284  60.2368073
  50.7455819  74.4843582  60.0119726  49.6738617  75.4746727  60.4140632
  21.1315703  53.4202671  40.9582376  21.3835931  52.9897022  40.1413345
  20.6840134  52.7389193  41.4599276  59.8490477  27.6604605  28.3002377
  59.8982334  27.1053243  27.5220108  58.9830637  28.0653143  28.2513070
  19.3479180  25.0778317   9.2676502  18.4989679  25.4995871   9.1348350
  19.2305386  24.5458150  10.0546765  -0.1696096  78.6387591  71.3868385
   0.5330576  78.5855488  70.7390244   0.2836861  78.7310652  72.2248326
  75.3635958   7.2455204  39.9736357  76.2359038   7.5064391  40.2689838
  75.5161718   6.8001837  39.1401911  23.8689876   4.1892374  21.1924839
  24.7477245   3.8169509  21.2663507  23.3208394   3.4558436  20.9133768
  19.6128988  45.3436518  53.6977053  18.8492846  45.8270121  54.0131187
  19.7133780  44.6225691  54.3191338  44.3869686   9.2529196   2.9777870
  45.0415993   8.7894416   2.4554107  44.8153448  10.0718617   3.2268983
  26.9133711  30.3983831  22.7370501  26.8845916  29.9250054  23.5685039
  27.8023815  30.2570319  22.4116087  63.4885931  61.7609072   6.3556176
  63.6080360  61.1125135   5.6616789  62.6459599  62.1700621   6.1586589
   9.3243480  24.2896438  48.3877897   9.1367936  23.3564734  48.2865715
  10.0210297  24.4639444  47.7549505  16.1072314  56.3745070  29.5153475
  15.2736592  56.5457535  29.9536014  16.5023911  55.6644869  30.0212669
  22.9616271  80.0634078  65.0314830  22.9360836  81.0002474  65.2261911
  22.8919940  80.0149493  64.0780495  67.1267174  78.2976070  23.1365252
  67.3466412  78.9904585  23.7592793  66.9544361  77.5305673  23.6826038
  65.6747463  53.3128834  38.2630610  65.2513817  52.6033735  37.7797532
  66.5825012  53.3010435  37.9596257  37.0681963  70.7593670  27.9538727
  36.5618453  70.2694467  27.3059392  37.5612007  70.0900975  28.4284854
  11.7905843  46.8507624  35.4323983  11.0418117  47.2011232  35.9149098
  12.4624670  47.5283337  35.5079007  80.7686511  65.8458948  45.2832651
  79.9737582  65.8305216  44.7502136  80.6017009  66.5191269  45.9428978
  20.4520750  31.6132927  38.0913115  19.7566748  31.2084699  37.5728822
  20.0646496  32.4246716  38.4196353   4.0455639  12.2362459  37.2298741
   3.1952089  12.6126349  37.0030284   4.1717437  12.4669170  38.1502557
   5.1098692  56.6610527  18.8116992   5.0864214  56.9778299  17.9087412
   4.4657180  57.1996498  19.2712784  24.6148610   6.5504849  11.8771124
  24.9960613   5.6733382  11.9162512  25.3651118   7.1325177  11.7562997
   8.2004517  21.4047408  19.8207819   8.3542240  20.6598043  20.4018641
   7.2497129  21.5157676  19.8201692  20.8233047  42.8690529  47.9743767
  20.0545621  42.3039913  47.8971148  20.5401826  43.5816050  48.5473871
   6.6711962  17.8764915  19.7105277   7.4319041  17.2974801  19.6625614
   6.0641640  17.5290561  19.0570498  78.5581479   1.4014960  71.8788006
  79.3528805   0.8983709  71.7013374  77.8839038   0.9801389  71.3458050
  19.3433440  36.0890436  12.7215850  19.9716163  35.9786606  13.4352517
  19.5912814  35.4241109  12.0792270  82.4067977  70.1576757   0.3274138
  82.3884705  71.0198736   0.7427600  81.9519255  69.5847321   0.9447132
   1.9258548  10.6844366  57.4880886   2.7762365  10.8657086  57.0878124
   2.0930612  10.7153475  58.4300661  12.3512125  56.5089560  34.3343616
  12.0274484  55.7457066  34.8127556  13.2881761  56.3449001  34.2275047
  31.9328594  14.5918822  43.0507612  31.6497898  13.7059140  42.8245640
  31.1250234  15.0491202  43.2843494   5.8980567  46.6205576  23.6534452
   6.1385519  47.5380590  23.7822294   6.6430432  46.2407926  23.1876063
  27.7057219  12.6608539  29.8936248  26.8109989  12.8371501  29.6027231
  27.6004100  12.1446753  30.6928110  48.6205106  80.9068255  48.5408537
  49.1955762  80.2082304  48.2286064  49.0126269  81.7104487  48.1992857
   7.2049439  34.3588901  10.4639637   8.0065119  34.5121074   9.9637192
   7.4806792  34.4084024  11.3792515  19.9665201  36.9630527   3.1954354
  19.0890431  37.2323179   3.4670275  19.9940681  36.0227776   3.3725163
  16.4463985  23.2396269  12.6281595  15.8173501  23.8889217  12.9427183
  17.2984779  23.6646032  12.7260876  37.4516688  81.6308507  39.0487528
  37.1595631  81.0686697  39.7662902  36.7579661  81.5618966  38.3928156
   0.3016280  45.5615854  10.5531240   0.6827870  45.7472992   9.6949518
   0.8875541  45.9943008  11.1741555  21.9256616  54.5242548  38.5432720
  21.1473942  55.0252438  38.7872839  22.6412392  55.1587439  38.5833502
   1.4963252  62.8407720  42.0547390   2.2235233  63.4582260  42.1332598
   1.5595514  62.2953084  42.8387690   6.7518336  64.8048973  29.4835854
   6.1635613  64.6200943  30.2157164   6.8687969  63.9591074  29.0509319
  25.1475835  68.0328941  49.0249300  25.6461906  68.0569649  49.8416567
  25.3176785  67.1619701  48.6660528  23.9344549  43.0084515  27.4462986
  24.8152900  42.6338291  27.4508309  23.9741111  43.7213850  28.0837846
  81.6118023  37.4148822  19.7088456  81.5601233  36.4600134  19.6665537
  80.7142755  37.6956511  19.8873043  33.4565616  42.4811888  24.0893126
  33.2245517  41.8183041  24.7396827  33.5039401  41.9999743  23.2632256
  53.5207455  65.8077792  68.1602151  54.3326561  65.5353669  68.5877995
  53.2874911  66.6301779  68.5908945  26.7210007  62.8611755  16.5453494
  26.3251209  62.0009327  16.6849613  25.9786558  63.4425735  16.3806295
  15.3370082  28.1068969  31.4266849  16.0183239  28.4123254  32.0256472
  15.7032013  27.3161745  31.0305905  83.1684229  43.3754587  27.0289803
  84.0674123  43.6305332  27.2363138  83.0793694  43.5518217  26.0923910
  53.0278826  14.6616423  13.1172574  53.6260843  14.2851567  12.4717784
  52.1653986  14.3313086  12.8657949   5.8245856  21.2282252   9.1544920
   5.6262374  21.5079927   8.2608372   6.5725821  20.6384158   9.0603703
  74.8606501   1.4488603  42.4263994  74.2370222   1.2234451  41.7361013
  74.4136808   2.1189834  42.9434912  43.2038562  63.1273965  48.0671851
  42.4451809  63.4472517  48.5553829  43.2912545  62.2120408  48.3331148
  68.2169406  79.8142533  57.7326660  68.7570136  80.4831557  57.3118119
  68.6269419  78.9852432  57.4859421  44.1087961  25.9496164  20.0998282
  43.1792593  26.0088634  19.8791826  44.4932652  26.7457461  19.7329605
   5.1782966  33.7047791  12.7374876   4.6080408  34.2400813  12.1856809
   6.0191393  34.1620731  12.7276230  35.5858183  12.0918989  13.8243043
  34.7523093  11.7176390  14.1096604  36.1704707  11.9731212  14.5728385
  73.6673920  42.8709177  62.5567059  73.4668963  42.2696948  61.8393759
  74.2918198  43.4917843  62.1814046  65.7739210  23.4296608  18.6685526
  65.9747076  24.0098643  17.9341948  66.2155294  23.8297915  19.4176245
  49.8861170  32.1010852  18.7206471  50.7680893  32.1022105  19.0925992
  49.7530174  31.2012601  18.4226012  14.1385591  70.6407452   7.0795649
  13.5138607  70.2407742   6.4745802  14.9930573  70.3268480   6.7837012
  55.9528875  15.2377927   7.3758042  56.8739271  15.4202437   7.1897203
  55.6575203  14.7132671   6.6315860  30.0447536  55.3026390  42.6247406
  29.2752600  55.6435919  43.0806637  29.8115396  54.4013309  42.4023008
  41.7282152  50.6764936  34.1472864  41.5719986  51.1786652  34.9470687
  42.0286703  51.3259411  33.5115385   5.4181862  29.2480826   7.0157224
   5.6302917  29.5074677   7.9123622   5.1026362  30.0516248   6.6022253
  87.3017264  30.8515429   9.2620885  87.4025597  31.6555119   8.7524831
  86.8932934  30.2334285   8.6559951  17.1974707  48.5798073   3.0234832
  16.5492260  48.7107038   3.7154931  17.9974461  48.3339787   3.4880674
  82.6245471  37.5935264  57.1350197  82.0787187  38.3703686  57.0132915
  82.0335575  36.9424231  57.5132088  33.9502859  29.4824171   6.9896632
  33.2733703  29.0949130   6.4348149  34.1292334  28.8141847   7.6512331
  86.5970557  38.2652116  37.3669028  86.1212032  38.9148498  37.8843641
  87.0254395  38.7742543  36.6787219  19.3161774  29.9036860  45.9714508
  18.6109960  30.5423450  45.8662415  20.1086330  30.3784013  45.7206678
  52.7852869   1.5899129   0.8252360  52.3510695   2.1583220   0.1891555
  53.3665037   2.1747097   1.3114820  68.8572589  42.7122688  58.7504053
  68.2839671  43.0309868  59.4475317  68.5746840  41.8098974  58.6017179
  40.2556372   3.1931165  23.1753397  40.9983206   2.9387084  23.7229967
  39.5022988   3.1648061  23.7651825  72.9805234   1.1776742  18.0388844
  73.4804908   1.0609904  18.8467526  72.3387328   0.4675899  18.0497253
  60.6255333  70.3697423  63.4005223  60.8631341  69.9216155  62.5887583
  60.3618448  71.2466387  63.1216822  33.8941431  67.6520395  43.9643955
  34.4968057  67.9622889  44.6402454  33.2980561  68.3868170  43.8194180
  24.2046547  63.7351704  22.9388452  24.9263024  63.1169271  22.8238368
  24.2255974  63.9572859  23.8696814  81.6969165  15.8330059  24.4181061
  81.2248358  15.7822645  23.5869646  82.6132473  15.9480715  24.1664529
   8.8881552  32.5554919  31.6243196   9.7008955  32.5732875  31.1189795
   8.4393966  31.7634964  31.3283682  47.2699547  12.1768880  31.5644288
  47.6465702  12.1311605  30.6856203  47.7942514  12.8385723  32.0155621
  81.1231443  21.2598085  16.6236126  81.3658908  21.6027570  15.7635593
  81.9339892  20.8880043  16.9707787  54.9624637  21.4415097  47.3438835
  55.6187657  21.5422201  46.6544199  55.4415086  21.0524416  48.0755758
  24.6787024  57.4388981  22.9214811  25.4245710  57.1685123  22.3859429
  25.0725532  57.8029203  23.7143207   9.5762091  69.5206479  61.7142634
   9.3724267  69.5333676  62.6494340   8.8270347  69.0813069  61.3118331
   1.8960756  16.7752004   8.6932832   2.6986250  16.3123262   8.9338923
   2.0904630  17.1643031   7.8406143  18.1050372  28.7174106  17.9920721
  18.9416790  28.2613397  18.0829632  17.5539887  28.1106877  17.4976397
  58.3535765   5.8001424  69.4001577  57.9487943   5.5807306  68.5609667
  58.7454185   6.6619827  69.2590128  85.2239525  44.8788500  23.3965254
  85.7195655  45.6000900  23.0086946  85.8916277  44.3001461  23.7646890
   1.6502555  34.1631508  56.2671089   1.9339064  35.0745153  56.3391304
   2.4000816  33.7085533  55.8832645  42.8651857  39.4941902  15.8116043
  43.0648756  38.9272308  16.5565300  41.9702864  39.2600322  15.5655169
  47.0980406  37.4767065  10.6934297  46.4418507  36.9792485  10.2053916
  47.3066473  38.2189369  10.1261485  24.6698856  31.7406201   4.2685318
  23.7718081  31.5039897   4.5002523  24.7878075  32.6181245   4.6322763
  56.5648654  76.7175198  23.7892866  57.1459225  77.4612713  23.6297965
  56.9021705  76.3176489  24.5908856  41.5395880  56.3634825   9.5897543
  42.4484682  56.5922832   9.3952984  41.0238123  56.8948174   8.9832085
  79.7254101  65.9525490  21.0633349  79.5110539  66.5308332  20.3313017
  80.5131504  66.3360786  21.4488244  26.4488602  35.1408672  24.9474835
  27.2011280  35.6600046  25.2317715  26.4332342  35.2430034  23.9958763
  85.5994544  13.6270715  68.2643999  86.0961852  13.8813449  69.0421121
  84.7016535  13.8995744  68.4539510  36.8099689  67.7398539  17.1228170
  36.2337303  68.4848452  17.2936106  37.4633861  67.7773952  17.8212929
  55.1819685  38.0369949  -0.1413759  55.5452231  37.9786515   0.7422949
  55.6179383  38.7953901  -0.5299628   5.6991607  51.9782400  46.6993952
   5.1533186  51.7401171  47.4487829   6.5186530  52.2846174  47.0877218
  13.9562304  38.3028175  61.8942837  14.1722424  39.1299583  62.3248683
  13.4557087  38.5595275  61.1198120  59.8515415  59.6827507  23.4557629
  59.2524004  60.1056910  24.0708899  60.3371716  59.0533018  23.9888573
  76.8552640  56.1078787  11.9113410  77.6442781  56.6297865  11.7653954
  76.3835576  56.5746260  12.6011741  20.5707979  51.0231113  41.7979479
  20.6645870  51.0953712  42.7477932  20.6974649  50.0921535  41.6148949
  60.6501038  75.0389668  24.6379375  59.9822422  74.4595161  25.0045824
  60.7872208  74.7136202  23.7482285  79.9377339  56.4232663  47.0209686
  80.2217572  56.4525930  47.9345886  80.7371514  56.2401370  46.5273873
  47.7159977  57.8214121  47.0388651  48.0780458  56.9677019  47.2762108
  47.6510334  57.7969885  46.0841846  26.6847420  31.8915725  50.1493120
  27.0416713  31.7500210  51.0261202  26.1341023  31.1253476  49.9882936
  28.4039712  57.6175785  11.5803671  28.0482292  56.9391155  11.0064626
  29.1225219  58.0028963  11.0789204  87.2833157  41.9741964  34.1583371
  86.5522963  41.7198277  33.5951877  87.7889523  42.5918627  33.6300826
  54.3451136  12.0390698  41.9293261  53.4820788  11.6512010  42.0740891
  54.2073744  12.9793641  42.0438290  19.2753553  53.3847761  21.0925555
  18.7854135  52.6445293  21.4506364  18.6033952  54.0217018  20.8495951
  28.2991457  10.9008646  10.3906977  27.6922441  10.8145940   9.6555382
  28.9749241  10.2443612  10.2217090  15.3829987   8.2318212  63.8233863
  14.4801027   7.9932643  64.0333943  15.3027851   9.0062476  63.2665549
  72.1425906  28.1341839   2.1363465  71.5134838  28.4881091   2.7649903
  71.6403964  27.4978065   1.6273692   4.6161327  28.2665038  42.4851990
   4.6806350  28.9936447  43.1043434   5.2258486  28.4946394  41.7834616
  17.4934757  77.7327967  31.1475134  17.1842098  78.3076334  31.8476224
  18.4246659  77.6101446  31.3320994  16.0618120   5.5413243  41.4981842
  16.6646927   6.2712476  41.3568687  15.3418761   5.7038590  40.8886719
  35.7330513  18.2778990  31.3021517  36.4235044  17.8593886  30.7879972
  34.9442863  17.7756405  31.0976529  78.0530301  69.9239922  12.9146612
  78.0938545  70.7723713  12.4732804  78.4932992  70.0683403  13.7522519
   8.5476774  28.1451607  23.4383988   8.8520956  29.0498066  23.5103583
   9.2322409  27.6276493  23.8624096  71.2083673  54.9548435   3.4715199
  71.4487314  55.8471060   3.7211797  70.3558445  55.0466013   3.0460611
   1.7452759  45.9443760  34.7515082   2.6013890  45.6052065  34.4902253
   1.9076109  46.8621826  34.9694610  40.0632715  80.8502674   5.3792375
  40.2468348  80.1569176   4.7453579  39.1156268  80.8118153   5.5085558
  66.5302470  39.8700929   8.1236136  66.9828442  39.3795466   7.4374992
  65.6200674  39.9086189   7.8298080  55.1359653  61.4788485  11.8775451
  54.8834324  62.3761320  11.6599715  56.0921335  61.4816904  11.8331850
  79.3271664  58.8744497  28.7227702  78.5878417  58.4431028  28.2943201
  79.8641059  59.2022419  28.0013275  38.3129668  51.5608454  40.4613304
  37.5740123  50.9577894  40.5419254  37.9870772  52.3878098  40.8165121
  21.8892074  72.7978849  23.6157250  21.7286277  73.7112427  23.8528442
  22.8348899  72.7494574  23.4758306   8.0040216  21.2230468  34.9525619
   8.3827555  20.3970003  34.6518278   8.3873910  21.3610196  35.8187175
  11.0175538  32.0253968  35.2626967  10.9103858  31.7598557  34.3493319
  11.9190896  31.7859912  35.4775262  26.3180113  24.5301843  16.8668938
  26.6551423  25.3879547  17.1253550  25.5070949  24.7233796  16.3964427
  28.2056124  30.9429790  56.8129305  27.6740439  31.7380573  56.7740063
  28.3815224  30.8178903  57.7454762  46.5872138  82.9970555  70.5966383
  45.9375875  83.6315207  70.8994199  46.4641778  82.2378210  71.1664205
  72.5692001  43.9293242  19.9802196  72.6181534  44.3060827  20.8587909
  73.4816185  43.8532972  19.7010338   1.5989918  43.7891626  20.6738234
   1.3651320  44.1511583  21.5285158   1.6832262  44.5541239  20.1046419
  57.0681572  47.5642633   4.5104179  57.8971720  47.2444868   4.1544491
  56.5186501  47.7131796   3.7409410  17.4267781  46.7469454  54.3148136
  17.0358336  46.7841530  55.1877451  16.8233228  47.2420835  53.7608194
  45.2386189  71.4488316  61.1686707  44.5776176  71.1419058  60.5481052
  44.8869944  71.2157822  62.0279074  50.3063917  42.0357752  18.6496687
  50.8103800  42.8475523  18.5927451  50.3814936  41.6456604  17.7788043
  75.2226678  39.9917817  11.7226028  74.9508920  39.0842795  11.8597436
  76.1074677  40.0342464  12.0853138  39.4313145  40.5725765  45.9134912
  39.9152017  40.1915407  45.1807594  40.1042938  40.9793186  46.4592886
  12.9579592  47.8083944   1.4917849  13.4147477  47.4417734   2.2488599
  12.3861587  48.4819031   1.8601164  82.6579819   3.4266998  64.1862265
  82.5265084   4.3549396  64.3794082  81.9323860   2.9851056  64.6275137
   8.0634267   8.5703756  64.8846678   8.6365921   8.6387206  65.6482415
   8.1827314   7.6724626  64.5752351  85.6363712   5.1041652  62.2420369
  84.6821032   5.0847961  62.1697204  85.8262668   5.9312249  62.6849167
  38.3458495  27.9862452  23.1672645  37.8158379  28.6989379  22.8103518
  38.5817742  27.4580860  22.4046254   5.0812250  54.1871786   4.7864687
   5.8612502  53.6324072   4.7912368   5.3687805  55.0011921   4.3730375
  35.1184154  68.6298847  46.2479687  35.3480601  69.5458221  46.4046860
  34.7306252  68.3357859  47.0722008  30.7714415  54.9425793  34.5624018
  31.6505599  54.8075390  34.9161601  30.6870723  54.2842484  33.8726854
  19.6742463  11.8971288  59.1809702  20.4879951  12.2291887  58.8017893
  19.6792769  12.2223675  60.0812101  39.8923111  67.4033070  40.2219152
  40.6318855  66.9942284  39.7725630  39.1686726  67.3402262  39.5985365
  85.4745939  50.4480124  31.8080926  86.4286083  50.4063940  31.7420912
  85.2230305  51.1471081  31.2045884  26.7189779  80.2488426  70.4603503
  26.4558445  80.0124792  71.3498027  27.1990687  79.4845800  70.1415291
  31.2053823  77.4044275  34.5708013  30.7580781  77.9709625  33.9421606
  30.6954575  76.5943670  34.5682955  35.6338344  20.1983930  68.0054216
  36.1870179  20.0482846  67.2388141  34.7547994  20.3195049  67.6464532
   6.1512072   5.8982040  35.6565682   6.2027318   5.2909948  34.9184148
   5.7875974   6.7004491  35.2818410  22.4822927  56.6097069  18.0364251
  21.8970490  55.9545898  17.6562393  22.6268172  56.3097477  18.9338481
  11.7120821  36.5876771  65.9167264  11.1949856  35.8188010  66.1568872
  11.2704069  37.3181630  66.3497911  42.1616030  54.6776295  34.9346185
  41.9066238  54.0551901  35.6156373  42.5306892  54.1335773  34.2389059
  80.1768568  36.8128991  25.0640535  80.4227051  37.3441958  25.8213592
  79.5361486  36.1896658  25.4065514   8.4975679  26.1120416  66.1966030
   8.4849102  25.7086993  65.3286253   8.4534914  27.0525790  66.0243164
  84.0506935  35.7169342   4.6614608  83.3495659  35.3764558   5.2170932
  83.7039256  36.5391374   4.3151027  19.7338183  78.2355302  26.7403340
  20.1803286  79.0792236  26.8113470  20.4221804  77.5870475  26.8881822
  61.0054414  80.1454310  63.8272725  61.2967603  80.8621744  63.2636712
  61.0260742  80.5122213  64.7111682   6.5835375  76.4775372  35.4652786
   6.6986853  75.7064390  36.0205960   6.0839069  76.1588907  34.7135687
  79.8200241  36.5366173   8.2093894  80.0900588  37.2665000   8.7666923
  78.9301828  36.3322282   8.4968591  41.4659834  32.3116064  12.5475538
  41.4160824  31.6920853  13.2755208  42.4007368  32.3766065  12.3520148
   9.8964274  50.0957346  15.8549869   9.5943856  50.1382685  14.9476874
  10.8498478  50.1538563  15.7930005  78.9631084  21.6993785  18.5770369
  78.9441726  21.2756538  19.4351339  79.8447087  21.5292120  18.2452905
   3.7151749   1.9146920  60.7090442   3.5564692   1.8786908  59.7657804
   2.8958399   2.2452737  61.0773317   4.6368146  32.5062370  19.2990518
   4.5452061  31.5631413  19.4347262   3.7983346  32.8714228  19.5815825
  25.7381630  61.2334871  67.7967596  26.2551188  62.0384073  67.7637386
  26.1078525  60.6829166  67.1065140  86.7582426   0.7921220  67.9413734
  85.9737239   1.2999154  67.7342443  87.1673546   0.6262590  67.0920501
  36.6781855  25.0908947  22.7406812  36.3639975  25.8758926  22.2920227
  35.9289885  24.7942853  23.2573605  17.5644428  22.7999116  66.3108585
  18.0760510  23.5544540  66.6026698  16.7585261  23.1784011  65.9594743
  25.0236637  12.5509025  58.7774364  25.4432327  13.3458568  59.1064374
  25.6786854  12.1545793  58.2028870  67.3394077  74.8124890  67.3384694
  67.8650873  74.3433527  67.9863913  66.4355772  74.6886806  67.6282896
  87.9374258  25.8291578  38.0783486  88.6535415  25.1954293  38.0359292
  87.3468977  25.5709958  37.3706341  37.6960325  52.4873257  26.6152906
  37.1049023  53.2179356  26.4336133  38.4267569  52.6142836  26.0101843
  43.4004450  46.3037252   8.5434532  43.3005476  45.5871248   7.9167652
  43.7263203  45.8826065   9.3388742  58.2847691  52.2237492  37.4152374
  58.3987236  51.3868809  37.8656840  57.9303980  51.9879675  36.5578794
  68.2420492  67.2604084   1.1150869  68.6970282  66.8584728   0.3750364
  68.6652803  68.1122160   1.2224459  33.0089140  63.3095884  38.1025505
  32.3452353  62.7206898  37.7434397  32.5579500  63.7792730  38.8041615
   9.4250053  19.3187332  32.4203849   9.5610201  18.9617407  31.5427256
   8.6689645  18.8394511  32.7593875  79.1743705  41.8234777  24.3224335
  79.7499493  41.2250280  23.8461971  79.6339545  42.6629353  24.3044090
   9.3089406  69.7003798  71.3050220   8.9756291  69.5887331  70.4147018
  10.2256243  69.4297365  71.2532826  47.2641659  41.9631529  18.7769890
  46.9934607  41.2425280  19.3458903  48.1471634  41.7259216  18.4936643
  41.8316174  39.2095232   2.8666303  41.3937140  38.6463809   3.5048646
  41.2071753  39.9161768   2.7024916   8.7432344  14.4477226  53.2056550
   9.3567140  14.0539838  52.5852970   9.0758545  14.1924812  54.0661482
  54.0399599  45.7894802  14.2415988  54.8428440  46.2803698  14.0665531
  53.6917353  46.1781359  15.0440419  25.0531657  63.7126593  44.9970166
  24.2659955  63.2326798  45.2543394  24.7282698  64.5601610  44.6930162
  68.0739526  27.8270341  71.5418500  67.4430309  27.6473094  70.8448078
  68.8851247  27.4164869  71.2423844  52.2687141  79.1791782  17.9081166
  52.4442635  78.2565314  17.7233541  52.6559488  79.6492189  17.1696436
  59.4940090  60.1586676   3.5246602  58.8655806  60.3937578   2.8419876
  60.3292227  60.5055428   3.2110894  11.4357173  64.8931551  28.4326673
  10.5253506  65.0127649  28.7031436  11.9257879  64.8496866  29.2537475
   5.7196958   3.8823940  71.9141441   5.3596480   3.0223705  72.1308542
   5.5067188   4.0050174  70.9890303  12.4166763  69.2097616   5.1744121
  11.6580331  69.1487885   4.5939171  12.5043225  68.3324051   5.5469680
  54.3554497  45.5222940   8.5706204  54.0279675  45.5705500   7.6724792
  54.0555191  46.3344526   8.9788806  52.2058885  79.5634274  69.5480925
  52.9586379  79.6219043  68.9597223  52.5852959  79.3593983  70.4028754
  45.1108217  24.7942996  16.8279195  44.9779749  25.2629256  16.0039222
  44.2266035  24.6348000  17.1579945  22.4438095  52.4792767  25.5245566
  23.3412147  52.1793985  25.6693745  22.5406408  53.3664894  25.1785660
   7.1527225  79.4146872  23.3748126   6.8459958  80.3112507  23.5101843
   8.0798870  79.4404650  23.6113143   7.5589442  70.1320887  10.2254403
   8.4776741  69.8962450  10.0968158   7.4982607  71.0361242   9.9167746
  41.4137793  65.2142668  23.9477205  40.9697914  66.0279512  23.7089205
  42.0030212  65.0387287  23.2140923  12.0577128  14.9224426  47.1760814
  12.2942001  14.5583154  46.3230173  11.2804205  14.4298936  47.4395935
  68.1397441  67.2435427  32.1346831  67.6309827  67.5138330  31.3702631
  68.4212139  68.0648851  32.5376797  53.1264639  60.2558184   2.2961038
  53.8726711  60.7956457   2.0353557  53.3353615  59.9722719   3.1861565
   7.5738162   5.0446719  19.0241551   6.9275945   5.2181268  18.3396542
   7.7171230   4.0991044  18.9841843   6.8546660  12.5628139  51.4804284
   7.0200855  13.5046054  51.5239398   7.7063281  12.1794845  51.2707607
  32.2147350  79.4289951  40.7604496  32.6685821  80.0756077  41.3009564
  32.3013108  78.6082916  41.2454073  28.6293316  26.9582057  53.8700438
  29.1326332  27.7457809  54.0765524  28.9824295  26.2880254  54.4552040
  57.7507305  72.7474403  38.6492777  57.3955917  73.3992004  39.2536855
  58.6228609  73.0749035  38.4292936   9.2904472  42.7068186  39.2698431
   8.3820039  42.5473213  39.5258164   9.2803818  43.5829163  38.8843822
   0.7143346  49.7736263  29.9173450   1.1470567  49.8405266  30.7685256
   0.7079589  50.6696987  29.5808172  20.3957510  82.2918510  45.5983829
  19.8368227  82.7926826  46.1925173  19.9508369  82.3412609  44.7523069
  59.5899442   8.4931779  24.8884201  59.9716523   7.8203011  24.3247104
  60.3443053   8.9435351  25.2683520  87.1127442  43.6251307  24.5323896
  87.8550443  44.1558504  24.2433214  87.4930970  42.9938173  25.1431298
  37.4494815  49.6419573  18.3126354  37.8816867  48.8037443  18.1488323
  36.5659189  49.4048405  18.5942793  19.6626322  62.9112510  56.5027277
  19.7649567  63.6303286  55.8792786  19.5027457  63.3428435  57.3420112
  82.6928912  31.0278178  61.2722616  82.4086175  30.3564502  61.8924908
  83.2484827  30.5588676  60.6496577   5.4897296  36.4727950   2.9695719
   6.0469985  37.2506595   2.9448599   5.5055171  36.1958599   3.8856989
  30.6712651  35.7809687  27.9030180  31.6037130  35.9321427  27.7483678
  30.6051302  34.8402691  28.0671549  16.9341159   5.8884853  11.6389143
  16.5727770   6.6178441  12.1426034  17.8535390   5.8479255  11.9020641
  74.7596088  15.7898545   8.7471718  75.2650681  15.8230555   9.5593542
  74.0640774  16.4356458   8.8713580  11.0718715  53.6831570  17.9197896
  11.6887128  54.3608189  17.6431763  11.3761294  53.4227753  18.7891912
  86.9512924  70.5043364  10.6766641  86.5989630  70.5697870   9.7890759
  87.6798558  71.1249876  10.6915224   2.4865825  21.3786937  57.5986509
   2.8012831  20.9883214  56.7832951   3.2514388  21.3805104  58.1741707
  33.2700777  32.2757268   6.8151677  33.3061242  31.3196206   6.7869908
  32.3717928  32.4890924   6.5626031  31.0845423  39.2558050   4.5708713
  30.2369428  38.8452578   4.7419265  31.2383771  39.8141623   5.3329754
   0.3150429  54.4444839  64.1425077  -0.6419883  54.4267670  64.1396312
   0.5702986  53.6802117  63.6258213  87.7650628  10.0469495  60.1099817
  87.0028935  10.2557946  60.6500880  88.1943140  10.8901693  59.9651949
   4.3840773  14.2740823  55.1588694   5.1539023  14.8398257  55.0994198
   3.7035281  14.8341323  55.5322759  34.8529720  35.5499911  17.6874125
  34.6832347  35.1005363  18.5153091  35.5530930  35.0415897  17.2780311
  51.3016813  64.1045527  68.5031263  51.4002387  63.7826685  69.3991778
  52.0417016  64.6989350  68.3793921  45.7935613  12.5163552   9.7610682
  45.3487556  11.6765305   9.8753989  45.9037083  12.8521058  10.6506574
   1.6960217  48.2851315  55.2056694   0.8274878  47.9182816  55.3708935
   1.8154210  48.9380264  55.8953857   0.5582006  10.6121684  39.5243470
   0.5952103  10.0590993  38.7439768   0.7788212  11.4881421  39.2077700
  48.7972097  81.2900905  66.5186570  48.0311804  81.8264441  66.3143120
  49.2655234  81.2147431  65.6872503  62.8252602  66.3227320   1.4394635
  63.7299728  66.6142750   1.5522626  62.6406240  65.8058929   2.2236972
  54.4767046  55.0942135  23.1602526  54.8664379  54.2273569  23.0466604
  55.0768709  55.6876802  22.7087760  28.6690617  53.5661173  54.2198563
  28.7574792  54.3708992  54.7304869  29.5696640  53.2866955  54.0553141
  57.3867559  65.0484514  12.5824642  57.1971750  64.5864582  13.3990741
  56.6083717  65.5822277  12.4229932  17.9458988  51.3294744  13.0891979
  18.5610676  50.8445120  12.5390995  17.0968258  50.9236526  12.9142249
  25.8720303  26.5544677  44.7461033  25.2851009  25.8951283  44.3759489
  26.6031837  26.0506320  45.1035881   0.1987822  37.0418788  59.5759217
   0.1070220  37.0889856  60.5275480   1.0709912  36.6727067  59.4373850
  47.0503283  40.1497984   1.0322762  47.5798941  39.6104956   0.4449588
  46.1566353  39.8289537   0.9114226  30.8885193  57.6971340  47.0339775
  30.6688213  56.7655230  47.0259476  30.3659225  58.0603027  47.7489853
  36.9613862  47.2226286  35.9189606  37.7734637  47.6982737  36.0936642
  36.5748930  47.0829725  36.7834568  35.3765965  74.4053030  27.2470665
  34.5234537  74.3308544  27.6746607  35.8148885  75.1194906  27.7097416
  25.2018666  23.4724307  31.3174844  24.9994254  23.0252624  30.4957247
  24.4312572  23.3259058  31.8660474  31.2324396  20.2436063  37.9088736
  31.2348737  20.2192494  36.9519854  31.9027733  19.6106622  38.1662798
  17.8445792  55.2266359  13.8861978  17.2987700  54.9775743  14.6320498
  17.8438783  54.4545031  13.3204722  36.4966202  31.4250493  31.3350058
  36.8045092  30.5200815  31.3847065  36.4152098  31.5991902  30.3973079
  41.4380646  76.8580580  45.3584242  40.8389521  77.0213175  44.6299648
  42.1631384  76.3705063  44.9675465   4.4967324  30.6551982  54.1835729
   5.3989679  30.7054712  54.4992856   4.2079599  31.5666391  54.1375152
  44.3764353  37.9594183  29.0919232  44.3415451  38.3035493  29.9844408
  45.2918243  37.7088118  28.9674664  17.6288857  68.5843663  47.6635258
  18.5212340  68.5273914  48.0051295  17.5562252  69.4791703  47.3314397
  71.3681650  37.2805262  14.9612164  70.8737421  36.5816021  14.5331049
  71.3068962  38.0213022  14.3581164   4.9231240  20.9227109   4.2696875
   5.3235561  21.5844083   3.7057361   4.0478075  20.7944274   3.9041793
  19.8085821  19.5058680  43.1316376  19.2663598  18.7523401  42.8983545
  20.7075405  19.2024946  43.0048704  86.8165121  27.0620729  49.7106401
  86.5552531  26.5673257  50.4873006  86.1076269  27.6914264  49.5778982
  40.3645468  47.4807787  10.5144405  39.8499417  48.0870199  11.0472548
  40.7894135  46.9047165  11.1499500  74.5583847  54.1481400  19.4761300
  74.7471181  53.2695198  19.1465330  73.6028424  54.1894817  19.5143414
  50.7959080  49.4842911  10.9895444  51.4514399  50.1808548  11.0258126
  50.1337576  49.8100519  10.3799009  36.9961095  65.5319309  22.4789357
  36.8020630  64.6308804  22.7371716  36.1473298  65.8978415  22.2301006
  20.8348775  28.8865757   3.9457318  21.7818046  29.0243793   3.9218342
  20.7256079  28.0531764   4.4037050  55.6985855  33.8963771  24.4910717
  54.9138594  34.3796682  24.7496581  56.3295889  34.0732598  25.1887703
  41.7581987  46.0328007  12.4140108  41.8537569  45.1638699  12.8039575
  42.6561975  46.3264894  12.2604525  18.9082265  52.3630857  15.3989351
  18.4588397  51.9129133  14.6836507  19.6747601  51.8191957  15.5801666
  59.4919348  65.4493284  10.9730780  60.3802299  65.1619768  10.7618988
  59.2253065  64.8879194  11.7010653  30.9116149  19.8927450  10.5787575
  30.3947926  19.8587203  11.3837230  30.6073737  19.1432750  10.0669348
  13.1361341  79.2551851  32.5706673  13.1314778  78.6727858  31.8110514
  12.7536452  78.7325716  33.2755136  84.1251201  60.2518415   8.2264197
  83.3054355  60.3761244   7.7479827  84.8086044  60.3936386   7.5714582
  31.5960693  33.1237340  51.6907072  31.1339283  33.6055613  51.0047770
  32.3529696  32.7415752  51.2465429  82.2661749  54.9899244  30.9481788
  82.9305884  55.6725025  30.8539796  82.3843351  54.4328594  30.1787972
  21.7141986  33.0829501  15.7919526  21.4223766  32.1726227  15.7432163
  21.5018153  33.3550811  16.6847408   5.6267047  46.0479164   9.7205275
   5.8548707  45.3062534   9.1600782   5.4146212  45.6527662  10.5661690
  10.5482292  30.5543900  27.5205207  10.5755854  30.3693175  28.4592605
   9.6185356  30.5163622  27.2958946  20.3034616  79.2001057  23.2909298
  19.4426274  79.2029762  22.8723764  20.2420902  79.8724174  23.9695048
   0.6030712  11.5540075  16.0621738   1.2556192  12.0671642  16.5387070
   1.0080303  11.3816309  15.2121592  73.5173981  73.7898115  46.5496795
  73.3937066  74.3883423  47.2863547  74.4355385  73.5253982  46.6074626
  24.7728968  51.4299059  23.7143731  25.5107188  51.6516685  23.1463313
  24.0768480  51.1681366  23.1116915  44.0064812  56.0419655  46.8974209
  43.9117861  56.4342165  46.0294294  43.2911825  55.4083586  46.9532537
  47.7045107  61.7758274  33.3092856  46.8590355  61.3793707  33.5195875
  48.1787014  61.0919619  32.8363109  31.3442039  22.3157549  22.1008468
  30.7982230  22.4233818  21.3220334  32.2413683  22.3229837  21.7672682
  13.1752789  38.6851716  14.9207294  13.9401543  39.2546892  14.8379827
  13.0701804  38.5608125  15.8639789  23.9906812  17.3710370  38.7417197
  23.7233520  16.5014946  38.4439564  23.8188124  17.9435420  37.9941034
  15.6444001  21.1109638   6.3200736  15.0418472  21.6038609   5.7631040
  15.9486687  21.7481065   6.9663721  40.2353191  72.3540258  51.4737272
  40.7208061  72.4514723  50.6545544  39.8154306  73.2040024  51.6058588
  12.8359682  10.1330758  38.1396620  12.1179421   9.5021058  38.1901447
  13.0964119  10.2728845  39.0500752  65.6992579  53.1333971  41.1968803
  65.8051157  53.3193302  40.2639008  65.7219505  53.9933872  41.6165686
  46.1781693  45.0146008   0.2675264  46.6764402  44.3006945   0.6653927
  45.2776480  44.8687649   0.5573979  60.8106136  47.2822952  12.5135970
  60.0955248  47.5766516  13.0777180  61.6037941  47.5908852  12.9516244
  25.2749801  34.8050427  12.7849531  25.4929209  35.6393576  12.3694408
  25.3297353  34.9835086  13.7237740  77.7706991  11.3385202  49.8562376
  77.7416752  11.9245578  49.0999643  77.4420903  11.8683435  50.5825536
  25.3473306  48.5519505  12.2725451  25.0663877  48.9600801  11.4535630
  25.6629205  49.2804527  12.8072584   7.1476448  25.7894373  25.0320148
   7.4569815  25.2218580  24.3260431   6.3137901  25.4041195  25.3011727
  18.1768394  47.6387262  29.8581266  18.5851288  47.1899080  30.5984616
  18.8476264  48.2465792  29.5470214  45.8171034  12.5294948   3.6315787
  46.3147545  12.9910195   2.9566216  46.4760828  12.2543180   4.2689586
  47.7435923  57.7090549  44.3633223  47.7139282  58.2421923  43.5688925
  47.3011303  56.8952084  44.1222620  70.4139566  63.4382915  46.7011261
  70.5333853  63.1279373  47.5987053  70.8475351  62.7785206  46.1598873
  45.9359741  64.0737581   2.4675542  45.8864212  64.1355848   3.4214693
  45.8639860  63.1370497   2.2841892  18.5516536  74.4686747  10.7288563
  18.0581427  73.8329554  10.2106440  19.4686091  74.2347097  10.5850315
  54.6050072  55.2387094  10.4825819  55.3570032  55.7729673  10.7381344
  54.1038799  55.1284361  11.2906313  44.8225594  59.6680117  15.2319682
  45.3413820  59.3299675  14.5020461  44.0997267  59.0467215  15.3200066
  51.4537859  68.0347157  20.7064986  50.6362581  67.7506208  20.2976346
  51.8691063  68.5927963  20.0490117  17.8851962  47.3068428  44.0445089
  17.5068355  48.0544233  43.5817003  17.1294141  46.7872047  44.3183708
  21.8701744  44.1837835  34.9681544  21.0887647  43.7438154  35.3029084
  22.1202731  44.7907257  35.6647944  65.7954407  79.7603083   2.2527274
  65.6202650  78.9830637   2.7832299  66.2961054  79.4325256   1.5056512
  56.1111323  44.8691608  61.3854055  56.8144361  44.3727351  60.9668819
  55.5579097  44.2031146  61.7935352  63.2901382  73.0680704  65.2446651
  63.1950521  72.2359848  64.7811747  64.2276192  73.2575941  65.2067327
  64.2239904  76.4693737  27.7046895  64.8527861  77.1661949  27.5168395
  64.2441320  76.3790226  28.6574030   8.8451725  72.5695324  20.4180026
   8.9748794  72.8850794  19.5236659   9.5845592  72.9288292  20.9083533
  15.2025288   6.2091538  19.8944020  15.0564676   5.6566331  19.1265368
  14.6050446   5.8617207  20.5566216  33.3576488  54.7929811  41.0806990
  32.9064035  54.8478985  41.9230700  33.6048412  55.6961298  40.8820724
  12.2228033  30.0122834  51.9545166  11.3420231  29.9509145  52.3242323
  12.6111061  30.7734777  52.3858361  20.7908130  62.0806837   6.6163325
  21.2169576  62.6398182   7.2659463  20.3443360  62.6917934   6.0303020
  31.2275934   3.8697866  16.7246222  31.5455151   3.2868487  17.4140716
  31.4983916   4.7436687  17.0061004  16.8737054  27.0861745  13.9630258
  17.0332348  26.5012407  13.2223260  17.0898819  27.9575276  13.6309934
  47.5074244  31.2468386  14.2533994  47.0190096  31.9035959  13.7570620
  48.1372833  31.7535567  14.7659886  42.1065044  56.8475580  21.3192439
  41.8061113  56.7928123  22.2264361  41.5134907  56.2726355  20.8354735
  20.5486441  50.6599808   6.7392945  21.1127496  51.4319754   6.7844385
  20.9145617  50.1373577   6.0257071  87.6387041  23.2897851   4.1803092
  87.7889889  22.5174615   3.6351782  87.0763128  23.8527200   3.6482817
  18.6193645  74.0048313  60.8239651  19.5730042  73.9258194  60.8002949
  18.3080173  73.1092739  60.9553576  81.6691229  50.6919575  31.0746884
  80.9316626  50.4157209  31.6188192  82.2223517  51.2050867  31.6636467
  30.4908156  80.4891491  48.6912537  30.9102917  80.8829975  47.9262972
  29.7412395  80.0125790  48.3345413  35.0914216  49.5051336  30.5766749
  34.7284389  48.7769318  30.0724983  34.4157767  50.1821804  30.5399442
  69.8803949  78.9201164   1.8136993  70.0357056  78.7924528   2.7495477
  70.3859138  79.7019768   1.5914863   6.1042912  18.7235118  67.1086888
   6.7646391  19.2495919  67.5596986   6.0528929  19.1039563  66.2318472
  51.8485069  69.7112751  24.8160911  51.4843082  69.7727203  25.6991649
  51.0826349  69.6808147  24.2427325  24.3113739  20.8848048  59.0868298
  23.5653193  21.4778997  58.9981167  24.4547302  20.8198072  60.0309996
  61.8598032  28.9975023  27.2857094  61.8682623  28.4869909  26.4760566
  61.1973524  28.5721111  27.8301692  61.1494684  64.2784023  16.4873743
  60.2516365  64.1486692  16.7928231  61.4682484  63.3957338  16.2989318
  52.2155190  61.5749788  13.1609702  51.4765644  61.8917608  13.6804223
  51.8844652  60.7876587  12.7288163  85.4324722  78.1681871  40.6929874
  85.2661133  77.4010372  40.1452351  86.3134575  78.4510374  40.4478264
  70.2698326  40.2826881   6.1174661  69.4514751  40.6582403   5.7926846
  70.9494257  40.8753157   5.7962477  16.7554379  34.4802880  45.9815407
  17.4521303  34.4210124  45.3278255  17.1045053  35.0687957  46.6508961
  65.9936619  23.3525991   1.6371149  66.5831232  23.2858872   2.3883247
  65.1971722  23.7474489   1.9919823  79.6703100  56.3289928  15.4692161
  79.1089582  57.0553923  15.7402515  80.3123665  56.2464619  16.1743259
  28.7934470  39.3991137   7.2663361  28.9334655  39.0786600   6.3753057
  28.4019780  40.2649212   7.1507353   4.8164766  20.1810739  20.0329351
   5.2267306  19.3792245  20.3569031   4.5102995  19.9554440  19.1545391
  39.1176057  44.6496534  22.2853756  39.6216941  44.1738558  22.9454851
  38.2488179  44.2487812  22.3125720  78.9151638  10.8014104   8.8075918
  79.4512432  11.4890191   8.4125608  78.0574577  11.2078759   8.9315134
  62.2405386  34.7582984  16.3918316  63.1686211  34.9663711  16.4995372
  62.2273159  33.8247919  16.1805952  37.2404027  63.0806160  61.4933825
  37.0586491  63.9602900  61.8240929  36.5261436  62.9024267  60.8815718
  77.7516094  68.9181328  20.2409267  76.8887106  69.3318129  20.2634621
  78.3531764  69.6305418  20.0245333  33.5802221  54.0197277  34.2940712
  34.3375373  53.5050488  34.0151310  33.7895203  54.2882919  35.1886678
  55.9486430   0.0482079  53.8688135  56.0435741   0.1287076  52.9197407
  56.7431705   0.4469964  54.2236710   0.4613197  75.1740217  50.4386139
  -0.3781400  75.2419329  49.9837208   0.5652755  74.2382383  50.6110573
  37.6919603  73.7623787  20.0966024  37.5385833  74.6266556  19.7148478
  38.6317396  73.7437630  20.2774239  37.6946855  56.5406418  20.8634925
  37.9619646  57.2592354  21.4365697  38.1085038  55.7652712  21.2426877
  19.7834480  54.7686052  43.2940102  18.9878702  54.6689796  42.7711678
  20.4960585  54.5743275  42.6851797  74.9810140  27.8927896  32.6484776
  75.3076570  26.9942281  32.6946425  75.4271477  28.2711884  31.8908453
  30.7542968  26.5162373  22.2221708  29.8962736  26.4692140  21.8004870
  31.3067842  25.9281516  21.7072487  60.5078346  11.8627979  54.9805908
  60.7217056  12.7655650  55.2161924  59.8345024  11.9446279  54.3051891
  42.2924083  10.2898118  28.1400228  42.6433890  10.7875249  28.8784885
  42.9696339  10.3511617  27.4663496  24.6423745  43.9792967  21.6156602
  24.3010449  44.8370314  21.8686914  23.9039040  43.5436964  21.1900520
   9.1171105  20.5964185  59.9476604   9.2581422  20.8250047  59.0289168
   8.2746322  20.9944154  60.1668946   2.1762538  33.5304928  20.3564262
   2.0341040  33.8106132  19.4522369   1.9810438  34.3068600  20.8811903
   5.0650389   2.5440885  67.1381639   4.1909105   2.6852895  66.7745755
   5.6461007   3.0461312  66.5667174  28.3357215  69.1635036  31.5685034
  28.7744904  68.7002659  32.2820330  28.1846857  70.0441599  31.9118166
  74.9863599  20.1393701  60.2897875  75.5404959  20.4444791  61.0081689
  74.9747823  19.1869022  60.3841154  40.2506733  59.9392557   9.6167535
  40.1098871  59.3268347   8.8947076  40.6440115  59.4074535  10.3086388
   9.5714611  77.0241451  45.1337242   8.6313528  76.9956446  45.3115320
   9.9539161  77.3998737  45.9266853  19.9376798  23.4501362  24.0432429
  19.4423366  22.8640580  23.4710717  19.5833993  23.2873034  24.9174309
  80.5570953  13.1704041  36.7388105  80.5037372  12.3091504  36.3245225
  80.4335325  13.7901017  36.0198283  26.4172053  51.1135340  13.1343198
  27.2986960  50.9841013  13.4842527  25.9619832  51.6144371  13.8111508
  23.0884869  15.3525640  59.5780889  23.8389952  15.6077529  60.1146035
  22.3631651  15.2824451  60.1987509  62.9784553   5.9959409   8.4714997
  63.6209123   5.7280824   9.1285610  62.1355765   5.7278249   8.8374180
  47.7357340  45.4874325  10.6182384  48.1688452  45.6136513   9.7740144
  48.3539772  44.9646282  11.1288154  53.9363718  57.1765947  28.3096170
  54.8087502  57.5705338  28.3088875  53.7980938  56.9025183  29.2162561
  47.9869270  56.2418270   7.0541358  47.3684597  55.5114126   7.0692283
  47.6545000  56.8230486   6.3700980  38.1632025  16.8657209  67.2585790
  39.0049393  17.3182107  67.3129819  38.2789118  16.0796357  67.7923543
  28.5194921  51.5412617   9.3873757  27.5909781  51.3165092   9.4471902
  28.6084247  51.9669867   8.5346860  36.8152022  31.3698554  19.7700548
  36.1940861  32.0970821  19.8098624  37.4436712  31.6282701  19.0959036
  70.8373880  77.5681734   6.2328178  70.4089499  78.4042168   6.0492325
  70.4378462  76.9539595   5.6169170  58.9413691  55.8740044   6.1058950
  59.1878700  54.9509096   6.0478783  58.5775661  55.9698963   6.9860548
  41.0889053  39.6876478   8.9337176  40.3144455  40.0025892   8.4676087
  41.4622593  40.4722071   9.3353450  76.8234675  79.4998674  69.7745309
  77.0383589  78.9846925  68.9969389  75.9501069  79.2000226  70.0266614
  60.4560670   7.7351810  66.0405145  59.8500516   7.1991159  65.5290369
  59.9354800   8.0437709  66.7821298  26.9443989  66.6238451   7.1327043
  27.2850251  67.0299244   7.9297650  27.5209856  66.9404840   6.4373475
  46.4695437  28.1562568  57.8101758  46.5762694  27.3613931  57.2876505
  46.2947399  28.8437129  57.1674661  67.2741649  25.6582071  57.6416652
  67.1040128  26.0367347  58.5042183  67.9743419  26.1992170  57.2765736
  82.4559167  57.3857880  28.8309407  81.7788586  56.9209623  28.3392453
  82.1258149  57.4097538  29.7290993  25.5940723  52.6423073  15.3715706
  25.9506226  52.5726891  16.2571537  24.7517157  53.0821657  15.4864132
   9.1403341  68.3429241  15.4301369  10.0593114  68.5707474  15.2893913
   8.7523806  68.3610296  14.5552683  57.7320910  39.6527553   9.0013623
  57.9579973  39.9429011   8.1176132  57.4866819  40.4553890   9.4615626
  52.4674416  66.2240458  44.0121078  52.8641891  65.7450056  43.2845449
  53.1988716  66.6857529  44.4220734  29.5830441  42.8454494  15.7084846
  28.9602208  43.5383368  15.4888785  30.1191425  42.7470732  14.9216223
   0.8220060  33.8641931  67.2367926   0.8848459  33.4855272  66.3599263
  -0.1150983  33.8623382  67.4318920   4.6763737  37.4692870  67.2716479
   5.0904185  38.0644036  67.8966556   3.9827830  37.0403053  67.7727823
  46.1708546  74.7219038  38.2942200  46.3575888  74.6432972  37.3587084
  45.6659603  75.5315304  38.3704782  53.0788708  41.6289806   5.8129323
  53.9215088  41.9145250   6.1659920  52.4900532  42.3666334   5.9722883
  14.3293595  52.2304392  33.1430507  13.7358642  52.6313257  32.5080037
  15.0619626  52.8432465  33.2062411  49.8461437  53.1645632   4.7515535
  50.1685238  52.9703426   5.6316566  48.9357376  52.8690529   4.7593287
  38.0357521   0.4045388   5.6744361  37.4620324  -0.2656463   5.3030473
  38.8852715   0.2478787   5.2621204  46.1503172  50.8706474  27.3011994
  46.2516975  50.5823135  28.2082939  46.7782164  51.5868092  27.2059226
  29.0003252  63.1387711  14.8894584  28.0996633  63.1443119  15.2135086
  29.3130612  62.2515678  15.0663614  42.5098133  47.6134205  29.7238421
  42.1181440  46.8453264  29.3080759  42.2485828  48.3466578  29.1667485
  47.0041704  56.3439655  10.4967618  47.3461914  56.6245651  11.3455963
  47.7529812  55.9395266  10.0586498  42.6271915  45.7290554   5.2333021
  42.8130722  45.8179426   4.2985404  42.3523664  46.6041136   5.5071199
   5.7330340  55.6179714  41.6902637   5.0882769  56.1166716  42.1920824
   6.5759003  55.9967566  41.9399309   6.6826541  34.1314317  48.0510227
   6.5328605  34.7561170  48.7606422   7.6138909  34.2188359  47.8475801
  43.2708168  20.7418633  26.2168241  44.0052176  20.1330352  26.1379862
  43.5939264  21.5576935  25.8343887  74.9164438  54.6469212  42.2109365
  74.9219799  53.9697981  42.8874731  75.5547190  54.3450022  41.5646553
  69.8891687  79.6820116  40.3877497  69.4508696  80.4250908  39.9730635
  69.4370222  78.9130592  40.0406075  67.8614705   9.3306157  14.8746395
  67.3510187   8.5272405  14.7733629  68.5354894   9.1068265  15.5163944
   8.6989130  74.0560917  56.3060395   9.4245829  74.6502356  56.1146407
   9.1193880  73.2164482  56.4915983  46.1031008  50.9740353  36.4389729
  46.2810802  51.9126654  36.4984107  45.4120445  50.8200264  37.0831442
  51.2959998   5.3719899   6.6712713  51.9038504   5.3396890   7.4099898
  51.8581550   5.3429028   5.8970833  35.2852702  79.0645075  17.6985013
  35.6994438  79.9163532  17.8365135  35.0514674  79.0594339  16.7703092
  62.4408429  82.5764946  61.8908100  63.0106347  82.4327997  62.6464031
  62.6501243  83.4635453  61.5982715  72.8849308  80.2270917  68.0607618
  72.3295777  80.4291014  67.3077659  73.2495062  81.0723690  68.3231063
  21.0975862  64.5292282   3.0647764  20.3710127  64.9064016   2.5687298
  20.8904290  64.7243023   3.9787048  67.4266338  65.1711845  24.8894429
  67.2528505  64.9273968  25.7986164  67.2750425  66.1158943  24.8616219
  66.8896580  62.5356579  31.6435575  67.4155235  62.3823309  32.4285293
  67.3943377  63.1726551  31.1378241  30.6575155  64.6454716  43.1891108
  30.8901405  65.1795149  43.9486551  30.9636664  63.7662840  43.4116697
  29.7596788  69.7528934  39.2999530  29.5333409  69.1841936  40.0358725
  30.3656077  70.3945255  39.6706200  36.3429451  68.2433081  53.2787323
  36.9717121  67.5756359  53.0046940  35.9886813  68.5892773  52.4595642
  73.9673727   3.0734441  38.0688572  73.7884157   2.9674622  37.1345258
  74.8888557   3.3293912  38.1087017  75.7090490  10.3846738   1.4878310
  76.4662569   9.8242852   1.3180245  75.9200638  10.8302972   2.3082691
  43.2658958  43.3860779  41.4547682  43.4568405  43.8776636  40.6559420
  42.4533701  43.7703180  41.7840004  62.2841174  22.9990674  71.6857229
  62.3838914  23.8052179  72.1920780  61.7347468  23.2492639  70.9428737
  83.2392941  68.1840564  53.6864094  83.0854974  67.4798633  53.0565767
  83.0999551  67.7757980  54.5408944  64.6584797  56.6177750  16.9144857
  63.7909412  57.0203781  16.8755674  64.4854021  55.6764126  16.9251442
  33.2793570  55.5420208  21.9997573  33.5913205  55.6073093  22.9023361
  32.7744555  56.3435221  21.8622828  52.0098703   2.8087232  38.8876295
  51.5844171   3.4530160  39.4534087  52.3518794   2.1489522  39.4909239
  11.7033703  16.3267995  61.7845992  12.2183258  16.8829204  61.1999802
  11.0511906  15.9192992  61.2146489  39.6336508  40.0216341  22.5062275
  39.1848946  40.3999853  21.7501187  38.9485931  39.9251676  23.1677556
  56.7769575  47.2598839  15.4469109  56.4610577  47.7931833  16.1763155
  56.8771124  46.3828993  15.8171773  51.0157330  21.3010408  71.5738912
  51.1510021  22.1728374  71.9452515  51.5673763  21.2856294  70.7917887
  22.3909044  50.2428865  10.5811894  22.7181172  49.3746424  10.3459847
  22.3153186  50.7046604   9.7461545  20.6874442  66.4926052  52.9141045
  20.7131052  67.4453068  52.8250551  20.2329922  66.1906910  52.1276236
  12.9892755  70.2856541  53.1963110  12.4635530  70.1669121  52.4052668
  12.3477018  70.4446220  53.8886547  48.1605749   6.7049691  13.6087024
  48.8028722   7.3615071  13.8782346  48.6515813   6.1065862  13.0456042
   7.4767137  48.4442616  28.5490489   7.6179099  47.5005484  28.4735250
   6.8359530  48.6458969  27.8671384  41.1502218  76.5324831  37.4239373
  40.9797287  77.4099588  37.7662849  40.3113461  76.2505150  37.0592189
  51.4632988  61.9128466  52.0738029  51.8098831  62.4624872  51.3709450
  51.7737579  62.3285675  52.8781796  14.9411583  67.3924398  -0.2051422
  15.4005086  67.5859022   0.6120495  14.5295620  66.5417624  -0.0529405
  41.0245991  60.4176188   2.0532469  40.6850815  59.5369482   1.8939319
  41.7720842  60.4969788   1.4606234  75.2517984  27.5277425  62.7539389
  75.2353249  27.3311759  63.6905925  75.3781424  26.6774322  62.3329453
  25.6206965  78.5706425  13.0569530  25.5167484  79.4706917  13.3657205
  24.7333407  78.2117462  13.0618942   5.7621081  30.8982040  50.6951849
   5.1700575  30.5038310  50.0547354   5.8830196  30.2195455  51.3592855
  24.2842054  45.0415707  29.4427013  24.9941707  45.4780436  28.9718843
  23.5219622  45.6028271  29.3005419  23.3298111  56.3172913  20.8629036
  22.4877286  56.7644262  20.9477353  23.9273357  56.8258572  21.4111352
  32.9732370  33.8448191  13.5757947  33.0165744  34.2197514  14.4554424
  33.6842442  33.2043624  13.5531199  45.6457472  76.0248470  12.1224654
  45.2663612  76.4326715  12.9009116  46.4242077  76.5486050  11.9329560
  48.3597040  49.2235661  18.7989402  49.1113472  49.7908545  18.9705622
  48.6367559  48.6741829  18.0656922  21.2386537  25.4034352  20.7882071
  20.3401661  25.6901002  20.9518385  21.1785579  24.8662448  19.9982405
  87.1637726  43.3499289  11.4146137  87.3648357  44.1570091  10.9408760
  87.9764462  43.1310177  11.8705308  16.0020840  61.1014795  36.5786552
  15.1162267  61.1234093  36.2167048  16.5689194  61.3159084  35.8377433
  66.1973238  53.3202934  17.6794040  66.5847015  53.7594080  16.9222057
  66.4036274  52.3944759  17.5508225  59.8808575  50.9704971  11.7055881
  59.3525267  51.6372824  11.2668455  59.5600986  50.1404572  11.3529193
  70.7706962  37.5745155  67.1519799  70.7056532  37.4369193  68.0970026
  70.6895147  36.6979314  66.7761610  42.5665140  80.6016350  36.3323092
  43.0810833  81.4007282  36.4458823  43.0617714  80.0863075  35.6956029
   1.9989423  64.4862223  24.8356152   2.4312186  64.8864746  25.5900478
   2.5018236  63.6895704  24.6662402  50.2557611  61.3102198  15.5460763
  50.8850813  60.6133032  15.3603458  49.8744678  61.0698318  16.3905060
  44.5568562  57.2091103   9.5696884  44.4972992  56.5100908   8.9184928
  45.2244186  56.9066286  10.1853955  37.6759791  77.3608875  49.8101282
  37.8043079  77.1282196  48.8905478  36.8598151  77.8609133  49.8190260
  15.6215036  64.8210430  40.0901413  14.9873328  64.1044664  40.1141691
  15.9788692  64.7949505  39.2025352  86.1554020   8.7673661  42.6134396
  86.3312452   7.9863927  43.1382132  85.2022713   8.8546464  42.6258373
  74.1238681  51.9308329  16.1711669  74.7480300  51.2588739  16.4452648
  74.6691874  52.6378012  15.8261228  35.1879978  58.9888000  24.1641378
  34.7600842  58.4936476  23.4656096  34.6878076  58.7735319  24.9513507
  61.7660475  57.4267292  24.6234846  62.5002861  57.9972601  24.8506594
  61.4763737  57.0643091  25.4607248  37.5629449  54.9979782  10.3382862
  36.7551661  54.4898748  10.4128397  37.4931717  55.4356194   9.4898570
  59.6507788  80.5619907  46.5223360  60.2617025  79.9626160  46.9510078
  59.4013882  80.1127052  45.7147598  79.0069805  20.1237489  61.8897621
  79.3839941  19.4077588  61.3784401  79.7548805  20.5159808  62.3403494
  78.9012800  34.3656255  69.4917652  79.6489272  33.7804939  69.6137474
  78.4462915  34.0163280  68.7254695  35.8610153  60.0674582  29.7837877
  35.8821225  60.5581903  28.9622235  35.2109098  60.5232859  30.3184080
   4.3216307   9.9635411  65.6474743   3.6653883  10.6602861  65.6362115
   4.0819628   9.3969060  64.9141816  21.5770245  65.6960392   7.6662868
  22.2378302  65.0417566   7.4393946  21.9609499  66.1808252   8.3969104
  47.3032861   0.7561681  43.8390636  47.6249211   0.9379765  42.9560423
  46.5064376   1.2808320  43.9164734  82.3236677  40.0724268   6.8503445
  83.1481174  40.0731993   6.3640177  81.6617313  40.3071451   6.1999774
  22.1610434  10.1326991  60.0052969  22.0083696  10.5930759  59.1800861
  22.4428780  10.8167745  60.6126181  44.2817307  52.5363016  46.8124628
  43.4228230  52.1294928  46.9265699  44.1598940  53.1551409  46.0924435
  34.0921855  57.4217558  35.2016115  34.9890804  57.3866415  34.8690796
  33.5736179  57.7326870  34.4595575  30.2891469  61.7797327  47.3779392
  29.5583868  61.9936752  46.7978907  30.9785676  62.3965979  47.1321487
  35.1052976  50.3201818  20.1132751  35.4530716  50.2095556  20.9981751
  34.1817355  50.0797319  20.1871014  46.6158611   5.0212384  57.3267631
  46.9045717   5.4060794  58.1542770  47.3801262   4.5426990  57.0056216
  58.6894369  37.9030132  18.8876307  58.2427120  37.6977801  19.7089374
  58.4824181  38.8234568  18.7258935  47.8669548  41.7514753  21.9475245
  48.2794094  42.3863935  22.5331736  47.7557898  42.2237158  21.1223793
  77.1135807  47.6191044   8.8549060  78.0083036  47.5336552   9.1841519
  77.0398045  46.9412231   8.1831443  79.1776364  60.0068192  58.0212049
  78.2608073  59.9722628  57.7483169  79.2347043  60.7885734  58.5706000
  30.8549053   8.7033845  57.2573130  30.1082165   8.2251693  57.6178638
  31.2973053   9.0694381  58.0231587  68.8231271  18.7050435  11.3295054
  68.7952345  19.2325398  10.5312562  68.2882278  19.1914460  11.9568229
  40.6638288  45.3552437  29.4970083  40.1597404  45.7599306  30.2029538
  40.0732088  45.3668833  28.7438393  32.7150249  54.6000338  43.9120293
  32.2189021  54.1728830  44.6103334  32.7363157  55.5233335  44.1636229
   9.2342050  37.4753762  41.8214766   8.9178736  37.5334502  40.9199254
   8.9807183  38.3087016  42.2183959  17.3432803  75.5356884  20.9219718
  17.5733781  74.7955084  20.3603482  16.4930284  75.2996588  21.2929058
  36.5553641  79.8632717  41.2509251  36.4187884  80.5907631  41.8578339
  37.1814418  79.2932272  41.6973591  26.5593457  29.3034720  14.7050846
  26.7191744  30.2253175  14.9072874  26.3047338  29.3013120  13.7823713
  17.3018742  42.1498919   9.6686190  16.7521620  41.4105749   9.9283528
  18.0206120  42.1476698  10.3007913  33.3221650  46.7606640   4.4490352
  34.0867448  47.3161411   4.2970747  33.1219935  46.3885021   3.5901639
   5.2967054  37.3628474  50.5584208   6.1563666  37.0621301  50.8530013
   4.6900208  37.0467569  51.2279384  29.3897319  56.2106228  17.4184597
  30.2016735  56.1682177  16.9132996  28.8389182  56.8265533  16.9352722
  42.1242571  25.8772588  11.2513030  41.4805317  25.7145619  10.5618227
  42.1036673  25.0861144  11.7897260  28.9100575  35.8861351  25.7269835
  29.2590427  35.2219892  25.1325512  29.2831612  35.6639051  26.5800023
  38.0423832  39.3993330  24.9171662  38.3759260  40.0750065  25.5074596
  37.7900529  38.6794472  25.4953742  44.5994520  67.5269699  13.9827597
  45.3211308  66.8987370  13.9557076  43.8517857  67.0484495  13.6246467
  54.0512705  65.1920414  49.6350193  53.5068989  64.4470024  49.3804455
  53.5154819  65.9595966  49.4349623  76.4832973  57.8764915  48.3388281
  76.0820770  57.1687508  47.8344870  76.2901258  57.6599216  49.2509794
  12.1378452  19.7399427  50.7485215  13.0135567  19.9252130  51.0876862
  12.0935280  20.2228023  49.9232237  56.7698860  71.4335680  27.0246840
  56.1157036  72.1042013  27.2209716  56.8644524  70.9446859  27.8421688
  49.1589499  31.9040394   0.9145851  48.7167215  32.6275468   1.3586579
  49.8115492  32.3280859   0.3573276  33.2385030   6.0153481  24.2669749
  33.7104680   5.6645963  23.5116887  33.9072227   6.1074349  24.9456239
  45.2389652  39.8331023  68.5631330  44.8372395  40.0731326  69.3981366
  44.5703919  39.3140365  68.1161256  47.7460241  66.9779253   0.0524812
  48.5436249  66.8055105  -0.4478552  47.9406977  66.6550350   0.9322973
  42.4927478   8.3073995   4.5481616  43.1172018   8.7337300   3.9611933
  42.0969146   7.6170442   4.0162155  40.7622702  16.7738486  58.3478729
  41.6545231  17.1052219  58.4493999  40.5632717  16.9019843  57.4203960
  71.0664797  80.2172375  25.6694269  71.9406080  80.4608631  25.3648305
  71.0813522  79.2606306  25.6996441  70.2720070  73.3988857  12.8126538
  70.6730270  74.2376375  13.0404902  69.5114565  73.3323431  13.3900309
  41.0929537  71.4978600   8.0283552  41.7163086  71.5677834   8.7513852
  41.2082911  72.3089981   7.5333947  22.1867487  78.2917929  29.5269823
  22.3823377  77.3839903  29.2948866  22.9941580  78.7679005  29.3329597
  60.5199814  76.1483574  52.4707079  60.2595329  76.0983896  53.3904362
  59.9125051  76.7787600  52.0836639   2.7594859  27.4218227  71.5355977
   3.0717713  28.3176089  71.6631941   3.4535868  26.9955207  71.0328839
  41.4134359  67.1516991  47.1842670  41.2512732  66.5458775  47.9073954
  41.8131781  67.9167986  47.5978565  76.4280701  43.7392759   0.8349405
  76.2232256  43.0787802   0.1731107  77.0662546  44.3131447   0.4111127
  69.1017818  69.9153709   1.2673725  69.0217447  70.6414843   0.6488365
  69.0635300  70.3297281   2.1293926  75.7528162  65.4114532  39.4901347
  76.6134548  65.8303499  39.4824719  75.8282757  64.6975470  38.8569856
  76.6013639   2.3381993  50.5305815  76.1964434   3.1552979  50.8214760
  76.0365265   1.6515157  50.8850622  41.9435692  68.9230299   8.8419032
  42.1905088  68.9920425   9.7641236  41.7154408  69.8171568   8.5874796
  53.4223938  69.7755575   3.4787655  54.1263485  70.3972054   3.6637801
  53.4275723  69.6844864   2.5259218  24.7828555  69.9476290  43.9204407
  24.3101358  69.2447519  44.3662405  25.2474117  69.5092154  43.2075500
  17.5636036  59.4420100  53.9213995  18.1579811  58.7209083  53.7141291
  17.8614647  59.7605373  54.7734849  84.2911778  42.5850822  50.0748507
  84.9677406  42.0906974  50.5375425  83.6063252  42.7238418  50.7290332
  63.1719416   4.0545461  32.4764490  62.6103967   4.7411248  32.8363180
  63.6437052   3.7092206  33.2343578  58.9668179  63.8387871  45.2793837
  59.8275232  64.2392874  45.1568270  58.3549118  64.5745182  45.2569151
  44.5076561  81.8456650  40.1851892  44.9790096  81.2146282  39.6412611
  44.2636681  81.3519096  40.9680748  62.7456760  78.8156557  40.3055334
  63.5636759  78.3743525  40.5343485  62.0628405  78.1789875  40.5167580
  74.9649096  82.0065212  22.1488285  75.6550169  82.6688194  22.1122718
  75.4100037  81.1850834  21.9405794  81.4472072  17.7724549  17.5783062
  80.6998365  18.1426808  17.1086228  82.0001858  18.5269544  17.7812386
  55.3554630  38.1488347  19.8989463  55.5959034  39.0606380  20.0633812
  54.3992186  38.1571150  19.8570311  30.8658028  17.1330607  21.6833258
  30.6363463  17.8838599  22.2309422  30.8197808  17.4670577  20.7874703
  35.5230784  48.0035877   5.0628126  36.4131808  47.7606153   5.3175926
  35.3741097  48.8478518   5.4885560  74.1004532  20.5667588  50.2709627
  73.8247793  19.7319028  49.8924780  74.9893873  20.4046533  50.5867958
  42.2783327  66.0617876  13.0998111  41.9888496  66.1354256  12.1904111
  41.4762640  65.8905315  13.5933626  69.0711641  57.1379709   2.8958687
  69.2233181  57.5921822   2.0671514  69.1034269  57.8291559   3.5572705
  70.9116316  53.0972290   5.7906109  70.4077148  53.5724688   6.4512527
  71.0395384  53.7312841   5.0850302  64.6710890  24.9172399  52.9127169
  64.3127387  24.3858621  52.2017670  64.6599048  25.8117673  52.5722361
  41.4140303  21.3897897  68.2699896  40.9794838  20.7764484  68.8626189
  40.8630116  22.1722556  68.2889138   4.9967977  69.9913597  22.9365087
   5.8914301  70.2531290  23.1541228   4.8352644  69.2181730  23.4771729
  59.6430302  61.0413599  40.1564074  59.4337511  61.0491228  39.2224002
  60.2561426  61.7675114  40.2705288  65.4017544  67.3514366  39.2617464
  65.4702425  68.2643223  38.9821458  64.4606924  67.1779156  39.2846465
  68.4827518  75.8710289  40.0429726  68.2092953  76.5951967  40.6060314
  68.9504099  75.2756453  40.6286716  75.7329958   9.4745728  36.2735701
  76.1343162  10.0405309  36.9330168  75.6246202  10.0385854  35.5078173
  56.5368509  78.7557650  13.4701085  56.7409325  79.6105766  13.0907953
  55.5805826  78.7137413  13.4652984  20.6455309  41.5906383  43.2027952
  20.5625660  42.1368743  42.4211447  20.7612164  40.7030727  42.8635685
  22.6768228  45.5498552  17.6503503  23.1800672  46.2848043  17.2998750
  22.1276781  45.2655125  16.9197178  19.2231846  56.7691994  18.6645496
  18.4102356  56.8105268  18.1609261  19.6163666  55.9324932  18.4164405
  57.2521877  75.7873774  36.6102266  57.9477501  75.2070904  36.3008881
  57.7135229  76.4978838  37.0558572  32.8203201  74.3242216  37.0763206
  33.2299924  73.7309742  37.7059674  32.8020215  75.1711130  37.5220513
  41.0822725  74.9830627  31.0806346  40.8007669  75.6704235  31.6843891
  40.7586622  74.1722298  31.4731383  78.0214756  33.3822915   2.2586954
  78.4368770  34.1421506   2.6664859  78.5900038  32.6469895   2.4874844
  45.9172327  14.5991517  43.4509627  45.0485594  14.2793943  43.6946670
  45.7589991  15.1771070  42.7045290  47.2562838  52.5615263  29.6355271
  46.3594866  52.8955460  29.6151924  47.1695709  51.6614628  29.9495316
  20.3819633  36.6728330  39.0667105  20.3325891  36.6262865  40.0215006
  21.3083005  36.5365076  38.8678503  87.3096857  31.2326814  59.1137413
  87.1676050  31.9901611  58.5460572  87.5360284  31.6096641  59.9639670
  29.4825585  36.3577987  59.0352790  29.5875723  36.8264915  59.8632483
  28.9665444  36.9502259  58.4884755  61.7020512  67.4910879  46.2729788
  62.4325323  67.2696495  46.8505478  61.6204119  68.4421587  46.3439226
  36.4224958  69.4192123  50.7999897  36.2878847  70.2760649  51.2048531
  37.1561337  69.5506907  50.1993942  12.0292398  66.1479235  23.9433885
  11.9405863  65.2169561  23.7392592  12.4608251  66.5215588  23.1750321
  57.0850325  61.5394020   7.5107646  58.0348635  61.5876007   7.6190448
  56.9571304  61.4164352   6.5701514  30.2511484  16.9162894  63.2402216
  31.0145886  16.3394166  63.2648514  30.4672749  17.6255799  63.8455568
  41.3283253  42.3405743  21.0744286  41.0075665  43.0503798  21.6307759
  40.5375099  41.9587040  20.6936073  80.4402861  57.2054911   6.1183280
  81.3934425  57.2801590   6.1646914  80.2158269  56.5752840   6.8029392
   0.2032270  24.9535272  21.7792439   1.1599483  24.9403188  21.7520189
  -0.0087748  25.6307504  22.4216223  70.8544176  17.5822923  55.4279423
  69.9724834  17.9269978  55.5679369  71.2463634  17.5654027  56.3010550
   1.8696444  46.4355993  19.5142782   1.2446465  46.9905996  19.9807346
   1.5459813  46.4149380  18.6136973  69.4513338  22.2817037  11.4557052
  70.0767725  21.9299409  10.8222020  69.6349304  21.8035600  12.2643495
  81.1305683  31.9304463  43.2556963  80.8428877  32.8428838  43.2861042
  82.0410459  31.9759652  42.9638195  27.0145819  74.2678022  56.5014458
  27.0049497  74.7813559  55.6937313  27.3505136  73.4114456  56.2368011
  25.2729637  54.6997119  54.0567045  26.1020500  54.6683837  53.5793475
  25.5136521  54.5247985  54.9664871  62.4412918  70.5198097   8.9303219
  61.5413380  70.2597952   9.1270560  62.9800177  69.8296642   9.3172383
  47.8577328  60.8051252   4.4782889  47.7451372  61.4012527   5.2186847
  47.3286486  60.0400829   4.7041562  12.8222716  45.9774876  43.8127661
  12.0352125  45.6610250  44.2561817  13.0042255  46.8232870  44.2223406
  47.6358128  51.0617352  23.2926512  46.7266273  51.3005638  23.1121564
  47.6167536  50.6983328  24.1779780  50.9211874  56.0596991  27.8745151
  51.6361189  56.6891813  27.7803946  50.5659294  55.9668064  26.9905496
   2.3138053  42.7195979  34.0223901   3.1469996  42.9949619  33.6400334
   1.7060382  42.6995517  33.2831661  22.2684908  82.4814224  38.5108042
  22.5306463  82.7885151  37.6429343  23.0887961  82.4165535  38.9998031
  86.3291853   5.0137326  20.2516913  86.8813436   5.1214597  19.4772601
  85.6455582   4.4033620  19.9754035  84.0010755   6.3602921  17.2148705
  83.6233251   5.4865167  17.3151207  83.3584612   6.8405816  16.6927528
  36.6125703  77.3140860  14.4938910  35.7734442  76.8575764  14.5546579
  37.1560907  76.7447329  13.9492333  84.1774361  82.5084833  69.3653319
  85.0313036  82.2634796  69.7218625  84.1963093  83.4649996  69.3344040
   8.3609506  72.7232265  25.4452085   8.9673063  71.9911098  25.3330874
   7.6849481  72.3864365  26.0332727  35.5747104  49.4531441  22.8654265
  34.8793006  48.9691257  23.3108068  36.3754249  49.1980982  23.3237290
  22.1890235  70.6017160  19.4637144  22.1161556  69.7144318  19.1120756
  23.1127238  70.8276129  19.3542743  54.6839326   1.0973927  14.1248918
  54.6242683   1.1942479  15.0753093  54.7048085   1.9951531  13.7934971
  78.1221025   7.7258870  16.4374745  78.2737224   7.8421399  15.4995358
  77.1691149   7.7165791  16.5266955  69.4685299  66.0503722  52.4655370
  69.0926678  66.2705184  53.3178810  69.8494560  65.1809646  52.5890974
  22.8435166  27.4084712  67.4744172  21.9448502  27.1024991  67.5969557
  23.1176598  27.0198871  66.6437064  38.6884577  76.8002845  56.2909238
  38.2383759  76.0272647  56.6316478  38.0076868  77.2896720  55.8290951
  32.4480867  73.2122469  14.0694988  32.7051115  73.7265825  14.8347628
  31.5542197  72.9283667  14.2609286  10.8578338  16.3303468  20.6509161
  11.1545791  16.7324445  19.8345292  11.6639700  16.1360452  21.1290598
  75.3885555  47.4232817  26.9412327  75.2854633  46.8702936  27.7157044
  74.8211002  48.1760645  27.1071744  36.8623829  52.4114037   6.0506570
  36.3720012  53.1946135   6.3003188  37.2174382  52.0782804   6.8747926
  26.8908722  20.7682849  70.8882192  27.3984844  21.4611818  70.4657788
  26.1322338  21.2191774  71.2588912  33.3692384  51.9728851  46.0509825
  32.7752876  51.6243649  46.7158079  34.2302322  51.6358852  46.2986803
  86.1612377  36.9374753  71.2414410  86.5628205  37.7870561  71.4235985
  86.1832748  36.4773084  72.0804832  23.3755769   9.9677941  50.1214218
  22.5550546  10.2710053  50.5100489  24.0152921  10.6392858  50.3582573
  47.6663213  13.2947251  17.8485310  47.6370280  12.3509213  18.0053842
  47.0767670  13.6651036  18.5054016   3.2699687  27.0719053  27.6051704
   3.8971645  26.3892795  27.8436605   3.4530241  27.2539140  26.6834347
  69.5519750  13.6189172  27.2624588  69.5455568  14.4536778  26.7940903
  68.6995237  13.2290170  27.0687246  25.9651637  47.2725344   8.6371911
  26.7535615  47.3900270   9.1671503  26.2215281  47.5573826   7.7600545
  59.0012741  53.9326382  19.6936226  58.6346817  53.0521107  19.7743535
  58.4393120  54.4774866  20.2445960  20.1539364   7.5913045  17.7906334
  20.5865469   7.7854344  16.9591343  20.8396234   7.7028272  18.4491396
  38.0612261  39.6305515  70.7867071  38.1847603  40.2464725  71.5089298
  38.3694393  38.7924148  71.1313315  59.9906921  60.7178593   0.0860192
  59.2643213  60.1436424   0.3287058  60.6843662  60.5032301   0.7097051
  82.9779911  72.3404884  35.4571676  83.3987999  71.5094423  35.2369070
  82.1100521  72.2827387  35.0576925  79.9081009   0.9346959  29.2464685
  78.9805429   0.7665154  29.0803933  80.3690355   0.3352353  28.6596036
  42.2655821  68.1142044  26.3778138  41.3283539  67.9207230  26.3977909
  42.3173046  69.0616179  26.5041685  15.1259119  29.6395065  51.3255612
  15.1559622  29.6497155  52.2822348  14.2822392  29.2384673  51.1167018
  57.4515533  77.0891857  52.1917915  57.8815222  77.0672321  53.0467081
  56.9662905  77.9142570  52.1888638  21.3178427  15.7200195  61.8095760
  20.5845768  16.3352777  61.8121771  21.0025675  14.9695159  62.3131369
  73.6306780   0.2721784  20.9035563  73.7687986   0.7597634  21.7156005
  73.1949537  -0.5341819  21.1795139  20.3163494  77.2952585  41.7742245
  19.4871201  76.8291358  41.8806998  20.2476181  78.0445389  42.3659078
  86.6053074  19.0569112  50.4519987  86.6117018  18.5006043  51.2309170
  86.3960188  19.9302766  50.7831430  43.9653206  28.4157157  15.6438804
  43.9644480  28.0161357  14.7740722  44.8886919  28.5894251  15.8267331
  85.0739861  76.5214634  23.2730007  85.0648785  76.0811281  24.1228557
  85.8954144  76.2432814  22.8679013  55.8100271  54.0780401  13.3548868
  55.8623743  55.0239515  13.2179987  54.8846674  53.9130545  13.5357571
  66.4616173  30.0870702  16.8024540  65.7384651  30.5630681  17.2107553
  67.1843856  30.7145116  16.7896044   6.4010038  11.4727971  39.1313767
   5.5342378  11.5540883  39.5292974   7.0083894  11.7258164  39.8265743
  85.7305687   4.5442578  33.3024430  86.6500728   4.5668408  33.0374312
  85.4269951   5.4451749  33.1910205  26.5388090  53.8591529  61.4502029
  26.2987978  53.3227969  60.6945865  26.1805279  53.3875419  62.2021697
  23.4881773   2.0956513  13.2261038  23.2639494   1.1656091  13.1947339
  23.6723985   2.2665879  14.1497242  78.1238461  62.2114563  47.1390724
  78.1405449  61.2597227  47.2398663  78.4342146  62.3632526  46.2464046
  62.2446060  57.9072332  48.7150192  61.3780165  57.6475763  49.0277910
  62.3459673  57.4477863  47.8814316  76.0477035  14.3347642  28.2398105
  76.5773886  13.7260911  27.7248597  75.1904838  14.3256947  27.8139925
   5.8985383  17.2881175  70.3083147   4.9884445  17.1774961  70.0331403
   6.3721044  16.5901090  69.8558192  29.4402010  29.4606925  54.7767214
  29.4692309  30.3763009  54.4991426  28.9344198  29.4726754  55.5892948
  51.5714216  62.1088505  40.4571295  50.8815622  61.4816856  40.6738997
  51.1320925  62.7748632  39.9283075  86.3696831   1.4453885  20.8068824
  85.9063356   0.9613034  20.1233578  85.7916658   2.1796891  21.0140800
  16.1413670  75.8396053  47.5584173  15.7060099  76.6831446  47.4353647
  15.8194280  75.2966928  46.8388128  69.1501925  27.6758100  61.1564140
  68.5410217  26.9956447  60.8691601  68.9248965  28.4392072  60.6247179
  69.9760025  12.3958966  31.7621040  69.8274057  11.4605615  31.6231918
  69.1551488  12.7158353  32.1363664  84.9139851   9.2425057  35.2839279
  84.0872877   9.5782182  34.9373794  85.0665682   8.4326741  34.7969723
  56.4045715  69.9770308  16.5383255  56.2090588  69.4271851  15.7795906
  56.6101646  69.3562889  17.2373545   4.0219631  34.3946740  16.0898077
   3.2964935  34.8067853  15.6206679   4.2255010  35.0042340  16.7992008
  20.0660563  62.6416540  17.7004981  19.4379258  61.9351959  17.5501490
  19.8368847  63.3078432  17.0525014  83.3430290  75.2283859  36.2070680
  82.5317097  74.9954700  36.6584349  83.4986496  74.5016479  35.6038499
  47.9309416  78.2816410  37.6696205  48.5805082  78.9653492  37.8334665
  48.1412315  77.9562950  36.7943144   4.4676914  11.3079831  33.9313531
   4.9538459  10.8062551  33.2770205   3.5477295  11.1443231  33.7237048
  57.8164387  51.4554453  20.0473070  58.6597729  51.3155985  20.4779553
  57.9943514  51.3074970  19.1184962  31.9383986  43.2043315  67.9415415
  31.6905195  42.3768855  67.5290923  32.7424509  43.0020953  68.4199010
  86.1860149   9.5747468  24.9042773  87.1026628   9.3834969  24.7057509
  85.6901472   9.0437028  24.2811084  45.7960064   1.4125825  68.3819212
  44.8465664   1.2923433  68.3635010  46.1025316   1.0244228  67.5624047
  54.5149834  47.9325248  62.1188007  55.2077515  47.6810409  61.5080230
  54.8287232  48.7452460  62.5153850  87.4872558  25.7927606   5.4908526
  88.0930059  25.0716397   5.6620049  87.2706859  26.1346433   6.3582885
  36.7844629  46.8151093  38.5857725  37.0614362  47.5788641  39.0919328
  36.9258237  46.0736036  39.1743469  49.8494577  79.0310240  28.5089397
  49.3452120  79.5689201  27.8985047  50.3730536  78.4589243  27.9478812
  78.2607191  17.3062226  41.4460564  78.0177849  18.1012818  41.9204950
  77.5576704  16.6866300  41.6411543  78.3170271  51.1014414  14.5600283
  78.5109091  51.5945292  15.3572142  78.7127066  51.6170359  13.8572955
   5.2253801  43.6278297  66.8516878   5.2621395  44.5093681  67.2228528
   4.5953877  43.6960937  66.1342744  47.5185919  51.6903400   5.2629989
  46.8672276  51.2482071   5.8074909  47.5131416  51.2026215   4.4393900
  38.7127161  53.6146212   4.7247973  39.5651555  53.3560848   5.0751442
  38.0808926  53.1035089   5.2305591  29.4957471  52.8869629  18.0435622
  30.2558923  52.8544617  18.6243832  29.0288687  53.6808634  18.3042908
  48.2892990  67.6094103  35.2849603  47.5338078  67.6167727  35.8726764
  48.3929300  68.5223722  35.0166464  84.7886293   1.9177911   9.1180909
  85.2869909   2.6125810   9.5483708  84.3698805   2.3493859   8.3733726
   9.3905487  11.7822644  33.0576062   9.8351183  10.9501073  32.8959942
   9.6722641  12.0376775  33.9360309  45.5278015  79.0500927  11.4231527
  44.6829271  79.2272949  11.0096073  45.3074980  78.5728359  12.2231078
  52.4517107  75.8371925  10.8349049  52.1538258  76.0855436  11.7100143
  52.4458885  76.6556835  10.3386557  18.1722879   1.5054081  57.4234180
  17.8180468   2.0069836  58.1577007  17.4448240   1.4402912  56.8047194
  70.3332291  31.7059041  63.6441843  70.8522175  31.8515588  62.8531937
  69.4911204  32.1211196  63.4579561  48.4227419  82.6357079   3.2382658
  48.3062840  82.2519779   4.1074151  47.5451756  82.9195118   2.9822037
  40.2939272  59.9408579  17.8886533  39.4460034  60.2972174  18.1537282
  40.0883865  59.0804815  17.5229526   8.0488720  13.9470288   8.8915980
   7.8277530  14.5261380   9.6209574   8.9383115  14.2009351   8.6453074
  28.1942358   4.4607160  31.7355514  28.1916227   3.5718724  32.0907712
  28.2032957   4.3391988  30.7861400  43.8544226  42.0932436  20.2774215
  43.7568998  42.0539045  19.3260157  42.9739237  42.2840548  20.6007552
  73.0052185  35.8699536   0.3691802  73.3260202  35.9312987  -0.5305720
  73.7827778  35.6613851   0.8869988  46.1501408  72.4893999  11.5582728
  46.7889071  72.8933525  10.9708786  45.9529495  73.1697798  12.2020364
  83.6085861   7.1368405  33.6928225  83.1523054   6.6787621  32.9869843
  83.0783670   6.9660375  34.4712329  57.7432537  62.4012709  11.1115944
  58.2089138  63.0865669  10.6322587  58.2667065  62.2631979  11.9009995
  14.0845241  22.2002122  26.5770221  13.1694641  22.0463941  26.8120503
  14.0700378  23.0185983  26.0807729  24.3477518  12.4991800  65.6857852
  25.0855763  13.1048537  65.7565312  23.6070091  13.0520726  65.4371033
  76.4090061  73.8768148   2.2606792  76.7444134  74.7486401   2.4696134
  75.6061888  73.7991810   2.7761289  40.4708988  13.0473806  56.8932931
  41.0919506  12.4340440  57.2861616  41.0191519  13.6729528  56.4196793
  50.0879908  46.9981384  12.0952415  50.1384783  47.8539705  11.6695249
  50.9344721  46.5898991  11.9134676  15.1572916  42.1074724  11.9628263
  14.9470159  41.1884165  11.7974341  16.1104414  42.1524572  11.8871832
   3.3284886  47.1621848  62.8945003   3.8066704  47.1932079  62.0658807
   3.2099731  48.0804969  63.1371729  62.9603958  76.6450930  37.0742559
  62.5104141  77.4516058  37.3258281  62.5645399  75.9685898  37.6236868
  66.0070086  69.8653030  19.7214258  65.6342316  69.2232132  20.3255701
  65.5931282  70.6929636  19.9662125  52.3414040  64.9915886  20.7966638
  52.4006176  64.6968508  21.7054319  51.8428612  65.8074760  20.8414865
  84.8519485  21.4815041  44.6638107  85.1544016  20.9654328  45.4110956
  84.0531605  21.0399434  44.3753815  24.4426717   8.3071801   6.8354172
  24.7274103   7.3937985   6.8056673  24.5550432   8.6224267   5.9386319
  43.5674341  43.9855333   1.2719448  42.6728303  44.0798708   0.9448059
  43.7083108  43.0397268   1.3147600  58.6518145  73.3821392  34.9694061
  58.9400005  72.4703360  34.9270487  58.8056183  73.6399651  35.8783078
  46.4703209  25.8543683  56.4896039  46.5702088  24.9210263  56.6770307
  45.9259112  25.8837463  55.7028465  54.6866512  71.8436623   6.4128792
  55.2705479  71.3417482   6.9815421  55.1011515  72.7036381   6.3431519
  53.0488968  81.7109013  12.1016991  53.0455780  82.6070976  11.7654514
  52.5969219  81.7692375  12.9434514  12.4069998  82.7211571  53.1945133
  12.7380010  82.3487949  52.3771906  12.4464628  83.6679840  53.0596352
  36.7204070  76.9194651  27.8249025  37.0783710  77.8065968  27.7919102
  37.1453786  76.5177393  28.5826945  86.1008566  10.3091332  53.0920076
  86.6896408  10.9517762  52.6963091  86.1481064  10.4874322  54.0312672
  13.9129373  53.3174229  10.6437719  14.7086641  53.4088612  11.1678791
  14.1658041  53.6162710   9.7702855  54.3555260  71.1055040  20.7954049
  55.2343655  71.0022926  20.4304171  54.2759848  70.3957558  21.4327192
  67.6206112  73.5500383  19.6329379  66.7397833  73.2421207  19.4194937
  67.4885321  74.4328308  19.9785697  40.7578468  77.4015093   8.3691925
  41.7114258  77.4081326   8.2862854  40.4387236  77.4838209   7.4705184
  13.9227476  18.5443780  16.5907001  14.1941442  18.3827493  15.6871223
  13.8172426  19.4943139  16.6428185  27.3933775  59.2058707  66.2385271
  26.9073088  58.3849097  66.3159935  28.3127005  58.9395858  66.2254177
  78.3324957  62.4235010  39.1543531  77.4432230  62.6925611  39.3846464
  78.8712120  63.1924629  39.3406725  40.7196028  17.6631213  67.6962311
  41.1674578  16.8342687  67.8655193  41.0764963  18.2658101  68.3486314
  55.3312063  77.0519304  19.8803508  54.4003820  76.9635201  20.0852609
  55.5375862  76.2734127  19.3631017  31.1483097  69.4640160  12.6056468
  31.6940475  70.2405167  12.7299416  31.6469479  68.9152098  12.0003319
  27.9981065  69.0219975   0.2594713  28.8097858  68.5388374   0.4142791
  28.1063151  69.8359251   0.7514532  64.1111898  81.1392021   5.9084350
  63.3728647  81.1901951   6.5154791  64.0603638  80.2558994   5.5431569
  28.4026994   4.4854161  58.1858158  27.4559202   4.3559262  58.2412243
  28.5766115   5.2304646  58.7610340   7.2514572  17.6620767   0.4209167
   7.7424612  17.7987573   1.2311399   6.4692440  17.1821114   0.6929601
  19.0521526  32.6112771  26.8975186  19.7052944  32.3830390  26.2360477
  19.4275796  32.3014569  27.7217126   3.0200615  12.8124139  17.2338474
   2.3687353  12.6500890  17.9162383   3.8580789  12.8065965  17.6963651
  82.6937008  64.4553471   8.2406467  82.1791840  63.7515640   8.6358619
  82.4078369  65.2465343   8.6973011  80.1035993  34.5452210  43.9762211
  79.5568817  34.5145795  43.1911135  80.4783409  35.4260060  43.9729023
  35.6238300  26.9116498  60.8964805  35.1749451  26.1489631  61.2612275
  36.1828978  27.2235299  61.6081039  44.7805977  68.2754230  43.9469051
  44.4216347  68.7239981  44.7125149  45.4321623  68.8830566  43.5969353
  80.4556561  58.0819178  43.9287138  81.1260700  57.4828577  44.2571974
  80.2221870  57.7318954  43.0689430  28.8500776  22.2575089  25.6969094
  29.7465982  22.5323293  25.5046320  28.4535970  23.0162713  26.1250544
  47.9980946  67.8231335   7.0700151  47.1322346  67.4659348   6.8727130
  47.9702759  68.0145931   8.0074602  85.3661125  26.2233731   0.1136617
  85.2961939  26.7753598  -0.6652234  84.7703855  26.6250321   0.7461269
  41.0734797  65.8466864  32.8350854  40.9855700  66.7976570  32.7705455
  41.7611456  65.7134485  33.4874630  79.4347732  31.7465589  48.5938978
  79.3980425  31.3033006  47.7463055  80.1111524  32.4151227  48.4854412
  85.9713173  69.5259190  25.1953316  85.7899857  70.4502916  25.0253868
  86.4285946  69.2233562  24.4107389  76.3064688  14.8160264  44.2064619
  75.9313982  14.3357751  43.4682798  75.7899731  15.6203839  44.2561674
  39.4084287  74.4204092   9.0091693  39.7646427  73.5415792   8.8787657
  40.0682354  75.0042439   8.6349756  80.2305954   8.3069512  27.6370335
  79.5105045   8.4427258  27.0211887  81.0180490   8.5162827  27.1347094
   0.1553573  79.4338605  30.3867054   0.6432905  79.5417020  31.2031150
  -0.7008181  79.1052815  30.6609917  30.0398111  37.1657181   8.3023900
  29.6696997  38.0419874   8.1956041  29.5531631  36.7878079   9.0349138
  87.3101395   0.6075570  33.5705090  87.6718014   0.3250310  32.7305055
  87.4614351  -0.1330855  34.1576910  48.0678940  48.4278297  21.2882996
  47.9085970  48.7801218  20.4126596  48.2894182  49.1937399  21.8179631
  61.1320632  15.5066869  36.8806100  60.6292527  14.7474572  37.1755457
  60.8269637  16.2256715  37.4339676  34.0018249  56.3148212  24.4408369
  33.3245039  56.9454193  24.6853948  34.1434383  55.7962227  25.2328181
  83.1762665  20.3442761   7.5552076  83.0379551  19.5654008   8.0941522
  83.9251345  20.1226708   7.0017475  83.1293392  80.1215267  31.1842704
  82.9482746  80.9763432  30.7934713  82.3064232  79.8709440  31.6040921
  87.0509594   8.4951112  39.9401522  87.6791304   9.2156407  39.8905826
  86.9504564   8.3290288  40.8774614  75.5206203  76.8376541  19.4509852
  74.7110176  77.3441458  19.5161104  75.3656292  76.0670280  19.9971914
  63.7385368  64.1054440  58.6509323  63.4388113  63.9555836  59.5475626
  64.6365547  63.7742710  58.6400795  47.2687609  30.7525922  59.9217848
  47.6628477  31.1935903  60.6744103  47.8950293  30.0663568  59.6913449
  21.8835916  29.5361325   8.9761978  22.0010843  29.6960446   9.9126041
  22.7715196  29.4108579   8.6413532   9.9950924  53.8639733  31.0507345
   9.4499530  54.0697667  31.8101454  10.1162567  52.9154107  31.0928679
  66.6347044  13.0661294  16.7192936  67.5131839  13.4197709  16.5798521
  66.7784565  12.2488973  17.1964681  40.4878431  23.6470792  34.5717669
  40.5351262  23.8773343  33.6438775  41.3460522  23.2721135  34.7695303
   8.5846097  36.1579419  44.6274773   8.6924035  36.6810180  43.8331191
   9.4097645  35.6805278  44.7136871  74.1278999  15.6082913  25.4493833
  73.7601440  15.3422639  26.2921286  74.8243301  14.9736020  25.2809072
  62.6417065  58.5151196  15.1712239  63.3979034  58.9576817  15.5566347
  63.0098820  57.9808378  14.4675040  22.6490290  81.3961459  68.5617347
  22.9564268  82.2918464  68.7012551  21.7695982  81.4986659  68.1979759
  86.9394653  32.9157731  21.5812397  86.5214079  32.1720788  22.0152712
  87.7084892  32.5410935  21.1517620  64.5091629  57.2672558   1.4702158
  64.3931246  56.3379192   1.2724824  63.6832714  57.5307131   1.8760815
  25.0798828  39.2791988  64.1476325  24.6608574  38.4373714  64.3264608
  24.8417313  39.4777061  63.2420341  39.1795491   9.2748925   8.2833928
  39.5655303   9.7448346   7.5442046  39.9285190   9.0175626   8.8210350
  83.2571030  66.0510492  52.1300697  83.3422184  65.8968878  51.1892080
  83.3771038  65.1878881  52.5260305  87.6407354  31.0884091  13.5208392
  86.7806023  31.1023614  13.1010675  87.4603575  30.8436200  14.4284606
  69.4996326  19.0032575  49.3761015  69.7769087  19.7369573  49.9247742
  69.6824186  18.2264420  49.9046612  55.9731770  68.6986303  18.9428604
  56.8674231  68.4180450  19.1373646  55.5532455  67.9216003  18.5739219
  69.8480862  18.8230893  27.3373675  69.5665615  18.8389394  28.2520938
  69.0327685  18.8140580  26.8359613   2.0139494  13.6617085   7.7037191
   2.6170625  14.2069814   7.1985841   1.3954439  14.2823502   8.0890620
  56.9096422  63.9089489  15.2964151  56.3420677  63.4395504  15.9077668
  57.5856829  64.3003702  15.8495784  11.2443437  32.4168298  30.3445625
  12.1331873  32.7717301  30.3599572  11.3407316  31.5461919  29.9586511
  73.0258799  40.8926868  17.2684467  72.9561424  40.2181339  17.9439807
  73.8346195  41.3595390  17.4787307  55.1395845  55.6017733   7.4905634
  55.2167988  54.6494913   7.5491607  55.5426836  55.9247923   8.2964188
  11.4996805   2.2821423  10.0184023  11.5615549   1.3351724   9.8932725
  10.9202995   2.5791070   9.3167156   1.6259041  41.1780068  17.1212220
   2.3214187  40.8125302  16.5744853   2.0884170  41.6615865  17.8056657
  71.7587757  67.2565126  12.5279033  71.6375160  68.1941938  12.6771903
  71.7474890  67.1621990  11.5754282  77.1466415  16.5116116  37.8801513
  77.4985235  15.9445474  37.1939611  77.8875702  17.0576760  38.1429505
  52.0009995  36.8800020   4.0417331  52.3972178  37.0893836   3.1959188
  51.6999245  37.7231193   4.3804651  64.6369417  29.8730226   9.2574413
  65.0116022  30.6521745   9.6682747  64.7045953  30.0417801   8.3176621
  48.1949854  68.2249737  14.5586646  47.7399397  68.6741066  15.2710152
  48.2464695  68.8762569  13.8590837  76.8051880  16.9888398   7.4120027
  77.2317379  17.3455426   8.1911409  75.9741753  16.6386888   7.7330047
  66.7069817  68.5937643  24.3112946  67.5404596  68.9783907  24.0399885
  66.0446835  69.2036819  23.9863467  75.9352827  53.4297895  29.3782187
  75.2459097  52.9192877  29.8029327  76.2415075  52.8710604  28.6638808
  84.6140033  23.1740618   7.9944867  85.4014036  22.8443384   7.5614572
  83.9391622  22.5268793   7.7896100  30.8201122  49.0007448  24.5073771
  30.2214026  49.7232580  24.3182826  30.3368831  48.4424162  25.1164651
  24.5680690  25.6700993  33.5164523  24.0908480  24.8517585  33.3793068
  25.4854202  25.4044938  33.5808825  34.0873051  23.4005642  18.2432997
  33.2403207  23.0605912  17.9547381  34.7294521  22.9130197  17.7273750
  29.4967747  32.2926402  33.6475396  28.8392019  32.9188514  33.9503407
  30.2396226  32.8348732  33.3822274  73.5261462  68.2945850  16.0792899
  73.8250826  67.6813009  15.4079103  73.8367102  69.1487005  15.7788408
  29.1759617   4.0042258  61.3872353  28.4975130   4.5750190  61.7479710
  28.7092001   3.4336520  60.7766525   2.8306577  22.0261812  16.1424804
   3.2004040  22.2913742  15.3003454   2.0327497  22.5478578  16.2286699
  33.2090902  31.3695025  19.4304967  33.5907936  32.1787047  19.7706807
  32.2653890  31.4844108  19.5421124  21.9818091  40.8113527  16.1021876
  21.4678526  40.6869745  16.9000673  21.7881489  41.7083502  15.8299339
  17.6833613   1.1474563  41.6808645  17.1393520   1.1808587  40.8939926
  18.0569107   2.0259429  41.7512576  82.0856586  13.9263380   9.1479075
  82.9373303  14.0072584   9.5772552  82.0424143  14.6788275   8.5578895
   6.6076827  48.1213093  14.1270101   7.0771348  47.6322317  14.8027694
   7.2475839  48.7543154  13.8013375  17.1163464  36.2188888   5.6869942
  17.6425409  36.3938689   6.4672077  16.2645638  35.9468746   6.0286188
  24.7424483  17.0756423  50.9888554  24.3405414  16.3218749  51.4207554
  24.1278195  17.3088551  50.2931023  14.0789735  36.8850899  25.1671791
  14.5006621  37.3383403  25.8972287  14.8044384  36.5950131  24.6141982
  46.6440105  14.5431340  20.2990603  45.8403587  14.7004330  20.7946730
  46.7442513  13.5912001  20.3011489  80.0988916  19.4350135  10.9293163
  79.9822930  19.0533745  10.0592649  80.9695497  19.1462409  11.2028062
  69.5697682  48.7775825  60.9487872  69.9219124  49.6675418  60.9628288
  70.2922814  48.2292597  61.2546484  28.4118588  73.5010055  38.0871058
  29.2716534  73.1808302  37.8142142  28.4583599  74.4488153  37.9617047
   3.8115856  29.5137811  29.0199947   3.5848787  28.9397717  28.2883215
   3.1422055  30.1978207  29.0040994  24.9130702   3.5630029  33.0424333
  25.0693369   3.8457388  32.1413922  24.6798515   4.3659544  33.5083842
  34.9586868   5.1798707   9.0654522  34.4034719   4.8060438   8.3811831
  34.7276139   6.1086380   9.0805864  14.9202520  16.5578080  55.8358805
  14.2348559  16.7009402  55.1832108  14.7292788  15.6925489  56.1979370
  72.2498314  12.0302610  46.5269915  72.6635878  11.8787627  45.6772344
  71.3837616  12.3773269  46.3132135   6.3492090  17.5857627  36.4871120
   6.1115950  18.4577179  36.8024969   5.5225819  17.1034169  36.4709568
  31.7491531  57.5715494  13.5861385  31.8950200  57.3609018  12.6638675
  32.0296669  58.4827852  13.6709607  40.9979630  62.5294828   9.4715029
  40.7337713  61.6100025   9.4399780  40.8480930  62.7907324  10.3800833
  46.0908937  23.4939313  19.3960202  45.6831121  23.8390970  18.6017847
  46.6352272  24.2126489  19.7175479  27.1806383  25.0407863  12.7123845
  26.5472531  25.6969476  12.4216819  26.7102146  24.2095208  12.6496851
  28.3688113  42.7110569  67.3209084  27.9838245  41.8503382  67.4857722
  29.1217125  42.5327153  66.7573790  67.3549788  68.9850597  53.4431080
  67.0869296  68.1307344  53.7814979  66.5442889  69.4925384  53.4046571
   9.1697676  29.9167443  68.3063458   9.6569974  30.1666166  69.0914587
   8.3534248  30.4133464  68.3628957  75.8205843  26.8614507  12.7357066
  76.4272738  26.1371160  12.8890049  76.2407017  27.3855090  12.0537269
  23.8857841  15.8435023  35.3760386  24.6908712  15.6381845  35.8513403
  23.8381219  16.7994475  35.3873658  54.7195833  43.3346325  63.2265995
  53.8844244  42.8746651  63.3112691  54.6136801  44.1232822  63.7586216
  27.8784633  34.0437698  14.3960226  27.6359010  34.8517561  14.8483002
  27.7363539  34.2361689  13.4691894   0.9519035   1.6176463  43.3465354
   1.5992005   1.8313791  44.0185158   0.5038721   2.4456502  43.1735818
  38.0982709   5.1098317  17.9267001  38.3279538   4.3743992  17.3587072
  37.1411252   5.1170379  17.9339540  83.5954611  59.7319690  54.7316174
  83.8781397  60.5578367  54.3388490  82.7066033  59.9058990  55.0413184
  25.2443051  12.3460627  29.0777302  24.5284629  12.9102457  28.7853265
  24.8308897  11.4974809  29.2365694  52.0809889  23.4778643  15.6979585
  51.6273689  22.6359391  15.6577134  51.4513063  24.0697646  16.1095214
  68.9167993  70.1343493  36.2550537  69.8276608  70.1554279  35.9615867
  68.9256971  69.5627956  37.0228307  34.6881390  19.5614827  38.0935216
  34.7308922  20.5169058  38.1331754  35.0349474  19.2709959  38.9370704
  35.5941081  29.2577076   4.8565951  35.1332140  29.4750404   5.6668890
  34.9840569  29.5028543   4.1609129  30.7713103  11.1893892  14.4594443
  30.9793425  11.2883079  13.5303748  31.5972018  11.3659918  14.9099398
  15.9185851  29.1259003  22.7380729  16.6594219  29.5803022  23.1392121
  16.0163331  29.2900085  21.8001246  19.4932842  34.0105009  18.3650303
  18.8493872  34.5579767  18.8143599  19.6024263  33.2507300  18.9369297
  10.1552749  43.6267519  24.9269915  10.1293731  44.0445185  24.0661621
  10.5350530  42.7635622  24.7629762  83.2342529  21.2171674  21.6480303
  83.9859295  20.6451559  21.8030238  82.7908897  21.2648463  22.4950194
  30.4725409  52.3242140  11.4295220  30.0348973  52.0778275  12.2443795
  29.7579074  52.5201750  10.8236098  33.3276129  18.3974576  22.0294213
  33.4305120  18.0834925  22.9277921  32.3859453  18.3482552  21.8648863
  26.9792223  59.3923521   7.1215564  27.3511457  58.6033344   7.5157088
  26.8539071  59.9914742   7.8574777  31.2845881   4.6432258  67.9279314
  30.9414751   3.8914014  67.4449561  30.8039410   4.6357776  68.7556718
  73.7590955   9.4708492  52.9921274  73.2279072   9.8738672  52.3053603
  74.4762156   9.0456916  52.5217931   7.4941540   0.4663927  16.5112698
   6.7247534   0.1479247  16.0392189   8.2139099  -0.0769242  16.1903501
  32.9174995  41.3251829  26.7687273  32.1542978  41.8629837  26.5577173
  32.6463723  40.8130503  27.5305963  15.8049548  39.5126367  10.7793224
  16.6171849  39.0063715  10.7648718  15.1279902  38.8867354  10.5220294
  78.0231047  78.5231352  28.3839893  78.7012196  77.8476810  28.3716798
  78.0187464  78.8417292  29.2866015  41.7566681  61.8973589  36.5067792
  41.5152121  62.7135038  36.9447708  41.7934656  62.1257925  35.5779672
  65.3389168  48.6751270   8.5767376  64.6283388  48.8333082   9.1982579
  64.9417830  48.1392002   7.8902262  19.0973186   4.9135518  44.6644258
  18.5562479   5.5366367  45.1494408  18.7644517   4.9544188  43.7679005
  65.8441632  64.1446857  34.9645130  65.8947008  64.7151236  35.7315080
  66.6764276  63.6718587  34.9624245   3.3133473  63.3453469  54.6962122
   3.9721264  63.9315490  55.0685171   3.7846531  62.5284127  54.5327429
  63.8236097  35.4741120  21.2580752  64.5971659  35.7402563  21.7550778
  64.0688422  34.6373630  20.8631778  88.2778086  64.9484444   9.5035416
  87.5457399  65.5634928   9.5485610  87.9058866  64.1124344   9.7845888
  70.0391142  37.9813523  58.5661988  70.8953516  38.0344654  58.1416158
  69.4400923  37.7227969  57.8658048   1.4803435  18.5267115  24.2240095
   1.9764362  17.8383827  24.6670985   1.4398192  18.2427275  23.3108068
  59.8955076  75.5232553  57.2826795  60.2324359  75.6358461  58.1715183
  60.6413882  75.1893048  56.7843108  12.1713328  55.2910089  11.4574528
  12.5293815  54.5182610  11.0205376  12.8548014  55.5564594  12.0727885
  78.8595200  33.1431937  29.4290352  79.2461061  33.9652061  29.1272473
  79.3237495  32.9445124  30.2422071  38.5051567   2.6829530  38.8056390
  38.4658177   1.9018031  38.2538359  38.7374956   2.3519040  39.6731965
  37.5596642  12.5090051  31.3485479  37.8831911  13.0480325  30.6267381
  37.2142100  13.1385481  31.9814539  70.9099905  76.3299922  70.2303962
  71.1192982  75.4391507  69.9496409  71.7277234  76.6629676  70.6000858
  38.9939482  11.0862304  59.3801193  38.5822184  10.6082917  60.1000420
  38.2812912  11.2490560  58.7621908  70.3389311  34.8501158  13.9009476
  70.4474545  34.4101453  13.0578113  70.7275867  34.2490935  14.5365179
  34.5119739  42.7346849   1.5128674  34.1231632  41.9809246   1.9566026
  34.9952245  43.1939268   2.1997435   9.1064126   9.5835115  56.9433967
   8.2233770   9.8745729  57.1709041   9.5635612   9.5268966  57.7824692
  64.6840398  77.0342616  51.4122311  64.7792189  76.1282281  51.7059557
  65.3427331  77.5180415  51.9105403  74.7813075  71.8467621  59.0256934
  74.2863457  72.1704058  59.7783534  74.2275374  72.0466570  58.2709674
  78.6764424  45.7387347  58.3210246  79.1194336  46.5373252  58.6078100
  78.4447234  45.9081171  57.4078719  16.7873657  56.5478182  21.9027352
  17.2669959  57.3742580  21.8462539  16.6087723  56.3118458  20.9924340
  24.3846209  79.4099483   4.6572861  24.1661055  79.3191612   3.7297952
  23.6400206  79.8788705   5.0339991  23.1183846  21.7377711  64.7216461
  22.5781519  21.8767930  65.4994987  22.4916346  21.6935779  63.9995216
  69.8305276  81.5518188   9.3652797  69.3648496  81.9199371  10.1161897
  69.8902181  80.6156921   9.5559031  74.6451855  10.8853734  30.5032349
  75.5353260  10.5366397  30.5508184  74.4024038  10.7973218  29.5815325
  80.0548785  61.3949780  37.4531214  79.2731135  61.7411045  37.8835623
  80.7745020  61.6289787  38.0393116  51.8583727   0.3832989   4.2955202
  52.5904894   0.9002533   4.6316677  51.2308264   1.0336391   3.9801231
  62.7390330  75.1914124  47.6945249  62.1268480  74.4824676  47.4973981
  62.1802108  75.9309081  47.9334704  41.3640356  40.7612467  29.0106344
  40.7952261  41.1305714  29.6861267  41.7752314  41.5225363  28.6012554
   1.4737827  34.2114782   2.4608004   1.1115120  33.3609319   2.2126818
   0.7081942  34.7761226   2.5670144  41.5777473  69.6181468  70.1734891
  41.6026359  70.5426721  70.4202030  42.4979477  69.3624572  70.1095648
   9.3744738  12.3523999  49.9853174   9.3616039  12.5507785  49.0489880
   9.3372614  11.3968898  50.0282399  17.5042880  24.5436668   2.7114779
  17.7983439  23.7220860   3.1048864  17.5575328  24.3900800   1.7681816
  22.5718999  25.5177760  28.6235857  23.3706832  25.1288247  28.2673621
  22.8826714  26.1876345  29.2326355  86.9096463  67.1224145  62.8555356
  87.0516627  68.0528907  63.0295382  85.9696858  66.9954113  62.9842542
  55.7474566  39.3969893  11.7357683  56.1571932  38.5436010  11.5940821
  56.2911129  40.0090218  11.2396991  33.6284184  32.9742455  23.0685139
  33.4209800  33.1313634  23.9896631  32.8142881  32.6383114  22.6935863
  30.5543447  34.4373441  15.5566776  29.9900460  34.1529393  14.8377109
  30.5458689  35.3930640  15.5041468  36.2353849  35.4387736  27.9190612
  35.7339501  34.7187233  28.3015800  37.0435071  35.4665303  28.4313130
  28.1800318   7.5814700  20.0057507  28.8893127   8.1308562  20.3394103
  27.4137425   7.8436142  20.5159593  63.3829491  72.5060062  52.2413103
  63.2528107  72.5874333  51.2965004  62.4988525  72.4223522  52.5985293
  17.7515709  58.5150051  29.0015268  17.1877050  57.8040171  29.3061280
  18.1201887  58.1927490  28.1790304  75.7514327  65.8551602  49.0888540
  75.0097887  66.4539294  49.0012543  76.1359494  66.0727672  49.9379866
  87.6974106  18.4918797   6.9841790  88.6124039  18.7513173   6.8759930
  87.4919128  18.7118328   7.8928190  62.5311375  22.7310348  22.5697446
  61.9621944  23.4502482  22.8440905  63.2901812  23.1624103  22.1773219
  65.3270094  43.3722654  68.4686307  65.9581916  42.7596536  68.0910749
  64.4818251  43.0922859  68.1171970  71.8725722  56.6468636  37.1068518
  72.5678675  56.8908505  37.7178041  71.0723727  56.9885151  37.5058309
  47.9182832  79.3430857  68.4254588  47.8881733  78.5015802  67.9702745
  48.3085685  79.9445729  67.7913282  63.4699917  71.4896536  13.0069375
  62.7905226  70.8923531  12.6942229  63.2538176  72.3304653  12.6037788
  29.5214915  26.8360901  17.4337566  29.3859816  26.6162467  18.3554602
  28.7590194  27.3650503  17.1990871  82.6690905  63.0835108  61.5380577
  83.2023661  63.7629394  61.1254720  83.2999556  62.4188618  61.8146114
  43.4756660  41.2736034   8.4639543  43.2515144  40.3430176   8.4646714
  44.1779327  41.3503122   7.8180701  50.9377861  59.3216705  20.5455470
  50.3472233  59.0644312  21.2535691  51.2054396  58.4947491  20.1445556
  84.2434418  20.5148816  36.3417721  84.8795089  20.8887386  35.7319522
  84.3008363  21.0711622  37.1186185  53.6989403  73.6640835   9.4461507
  53.9803028  74.0520859   8.6175859  53.3563852  74.4011831   9.9516916
  55.3914833  10.9643805  21.0603547  55.2949667  10.4657757  20.2489924
  54.9264765  11.7843974  20.8943105  72.2634261  55.7635335  55.2755992
  71.9891159  55.3004841  54.4840376  72.7752011  56.5056495  54.9537532
  55.8092015  69.9932865  61.4907674  55.1766055  69.3413738  61.1890022
  55.3752987  70.8338217  61.3442640  40.5592377  83.3130749  32.5120282
  41.2094862  83.0592675  31.8570566  39.7592194  82.8617825  32.2426891
  54.1039324  63.4703875  -0.0479063  53.8581705  64.3832254  -0.1980882
  53.2977486  63.0518532   0.2539699  30.0693066   1.6941405  57.3912529
  30.7868940   1.6064311  58.0186324  29.6655972   2.5352622  57.6051752
  12.4014795  21.3604379   2.0692526  13.3321095  21.3836670   1.8464935
  11.9763982  21.8640804   1.3750759   2.6568474  72.2373180  54.4242696
   2.4298586  71.9405965  53.5429839   2.8042092  73.1783585  54.3296151
  69.3839447  70.2512411  56.3769225  68.6991827  70.8379487  56.0558133
  69.0376894  69.9069528  57.2002117  56.8359756  18.3912337  26.9203138
  56.9369745  17.6339054  27.4969292  55.9432650  18.6970866  27.0807934
  74.2542307  78.2520155  69.4163380  74.3100159  77.4476175  68.9005227
  73.8760321  78.8952498  68.8167981  48.6717129  31.8475747   4.4743267
  48.9988327  32.6240158   4.0200561  49.2681503  31.1468315   4.2107835
  13.4319603  13.8230133  15.5199146  14.2850924  14.1115665  15.8441579
  13.4463847  12.8713596  15.6217992   2.0218832   6.6126872  67.3552818
   1.6162784   5.8808423  67.8201697   1.7885811   6.4723302  66.4376209
  70.8170979  60.1601342  59.9720089  71.2878792  59.3931441  59.6459309
  71.3153212  60.4380874  60.7406108  26.5348625  42.3796463  10.5656850
  27.2622490  41.7574453  10.5637443  25.8213139  41.9153070  10.1281142
  16.1287005  16.9506742  69.6630563  16.8051750  17.6187326  69.5521331
  16.5739138  16.2309219  70.1102402  48.9556391   0.0680019  52.8833453
  48.4312231  -0.7309722  52.8298334  48.3346731   0.7444192  53.1537024
  53.8750648  63.4282541  35.8859324  53.4621620  62.8496838  35.2448440
  53.4067154  64.2582083  35.7961774  24.7368145  63.3972836  20.2917838
  23.9549041  63.6536121  19.8027611  24.5548320  63.6658335  21.1923361
  12.5003273   0.9159185  28.6775534  11.6235811   1.2561227  28.4991924
  12.7252848   1.2723352  29.5369665  79.7839587  67.0974211  47.7356426
  79.0134041  67.6117973  47.9762642  79.7878115  66.3677077  48.3551041
  52.7311151  50.7256607  50.2497904  52.0346444  50.7217316  50.9064071
  52.4119179  50.1454924  49.5585958  52.2719002  44.0577030  23.6819029
  52.7471542  43.2368422  23.5532379  52.8627777  44.7317362  23.3460736
  10.9190447   3.3494045  66.4878927  11.2127335   3.2709218  65.5802475
  11.3524801   2.6275302  66.9431512  70.0027077  60.8736889  71.0436558
  69.6613781  60.7520823  71.9296226  70.9519761  60.7975010  71.1401488
  20.5273754   6.6174413  64.4672857  20.1155789   5.9177924  63.9601950
  19.7988016   7.1727277  64.7449080  81.3693707  79.3445973  52.0346264
  81.3121407  78.7337355  51.2999122  82.2685091  79.2555908  52.3506348
  29.5220358  24.8796130  55.3744475  28.9787609  24.1278650  55.6110029
  29.6940691  25.3218461  56.2057499  14.9459434  58.2721663   3.3141345
  15.0832272  59.1939449   3.0957106  14.0034890  58.1396008   3.2119673
  45.2168767  78.6397676  67.9066033  45.5614262  77.9228024  67.3741783
  45.9728222  78.9548806  68.4020663   0.2663396  23.8730526  17.1743464
  -0.1874476  23.9518094  16.3352358   0.3543298  24.7743034  17.4845684
  10.2384789   0.8912612  57.2927503  10.5345089   0.0377418  56.9763581
  10.8678133   1.1252500  57.9749672  79.6583319  49.3795824   4.9267867
  79.4444418  49.7027397   5.8020318  80.0859070  48.5370779   5.0804043
  38.9392447  30.2001429   1.7624786  39.8011637  29.9739408   1.4129665
  38.9687419  29.9149656   2.6757342  21.0126890  40.5116323  64.2413209
  21.6812767  40.6358714  64.9149613  20.1916899  40.4425396  64.7285722
  39.2225487  14.5260764  68.5334916  39.1452248  13.6082698  68.7940477
  39.8153908  14.5126106  67.7820988  70.8198111  66.1775498  61.0859887
  70.3619235  66.8621783  61.5736894  71.0992949  65.5528621  61.7552332
  79.4643967  58.8796596  54.1369264  79.8558514  58.1022445  53.7386565
  79.0452950  59.3369929  53.4079317  36.2623484   1.6500617  71.0093573
  37.1591503   1.7651273  70.6951330  35.7365496   2.2182513  70.4463945
  47.9842901  34.4154549   6.0898930  48.4837341  34.1678190   5.3117764
  48.4358549  35.1886320   6.4283055  66.4841835  45.8612258  69.1689823
  65.7731383  46.4383323  69.4475375  66.0676877  45.0074021  69.0517310
  11.8595757  42.2627338  62.1653346  12.2806086  43.0918671  62.3922734
  12.1235146  41.6615551  62.8618632  33.9235067   9.5090353   1.3092768
  34.8661828   9.6567953   1.2333687  33.7938762   9.2536986   2.2226390
   4.5563895  57.5674105  16.2193823   4.1043559  56.8074036  15.8529389
   5.1234895  57.8731060  15.5114424  33.3630443  28.7200236  19.8111773
  33.7904787  28.3087754  20.5624461  33.1516623  29.6043515  20.1103663
  24.7449040  17.6723492   4.2121688  24.2359996  17.2592437   3.5146067
  25.6175447  17.2871864   4.1322950  31.2696576  23.3382082  24.6471643
  31.9538116  22.6844192  24.7911263  30.9743071  23.1822801  23.7501216
  50.7669687  38.0937910  24.2182446  49.8213625  38.0028701  24.3357182
  51.0541534  37.2334123  23.9124584  28.4767151  26.8331933  20.3662944
  27.9440308  26.1871552  20.8301020  27.8644156  27.5355005  20.1470089
  62.4152470  56.1283731   3.5274002  62.1727705  56.4935064   4.3783501
  63.0549479  55.4465961   3.7328061  15.8128047  13.0225527  25.7695222
  16.1868191  12.2184443  25.4093075  14.8687840  12.9241025  25.6455612
  41.8766069  48.5579014   8.2817328  41.3452768  48.4137774   9.0647697
  42.2345304  47.6950264   8.0730021  59.2266750  20.4879975  28.2370257
  59.8181200  19.8628628  28.6561084  58.4032536  20.3971696  28.7165689
  42.0303726  61.7244196   6.4017254  42.7964926  61.2355518   6.1012220
  42.0644712  61.6601324   7.3561555  39.6930361  33.0992436   1.8439694
  39.4700122  32.2414947   2.2055730  38.8631988  33.5760927   1.8292604
  37.2066617  56.6403437   1.0086598  36.9512200  56.3906717   0.1206027
  37.2518444  55.8122540   1.4866363  12.2472889  80.5480227   5.2053475
  12.9540522  81.1758868   5.3553605  12.5733549  79.9832466   4.5046759
  37.5339777  27.6192666  62.9632698  37.9506809  27.1116163  63.6596058
  38.2539684  28.0970670  62.5515024  27.6261401  73.5222578  12.4471533
  27.7802110  72.7588415  11.8906510  28.4827113  73.9434910  12.5184178
  58.7097502  16.7722642  23.3438683  59.1019678  16.2125123  24.0139961
  59.4332457  17.3163009  23.0327272  59.1487710  78.5523752  62.5232254
  59.8141448  79.0553335  62.9928456  58.5334723  78.2762889  63.2025014
  13.0572683  17.2403814  50.0023786  12.7492268  16.5838386  50.6271140
  12.6873619  18.0644656  50.3190557  46.6619062  38.5313988  18.8584757
  46.1313915  38.9073157  19.5609522  46.6879082  39.2130494  18.1869781
  42.1792345  71.4264182  62.2098384  41.7075269  71.0678176  61.4580886
  42.4046915  70.6609515  62.7384816   9.3297774  75.2327204  32.8460193
   9.5994580  75.7501316  33.6048293  10.1427281  74.8502874  32.5157356
   3.5797352  44.8796797  26.2388039   2.6314744  44.8133707  26.3512182
   3.7494481  44.4711208  25.3899789  42.5670767  18.8282251   1.8263228
  41.9634151  19.3886220   2.3139483  43.3092213  18.7038040   2.4179046
  34.3018849  78.7186181  23.5396147  33.6592610  78.0180260  23.4280968
  34.8871786  78.3996418  24.2265749  73.9873600  24.0294886  22.3709655
  73.3768034  24.6760511  22.0168376  74.1662312  23.4417701  21.6369200
  75.5337191  18.8558614  14.2128170  76.1963701  18.1884992  14.3910134
  75.9767818  19.6860826  14.3879139  39.7579408  18.8547206  20.3051925
  39.4847679  18.0099380  20.6628942  39.1409135  19.0241981  19.5933008
  35.3661513  54.6178246  14.7389853  35.7114148  53.7414551  14.9092889
  34.6650624  54.4794607  14.1021478  69.7328370  78.1176643  52.7759747
  70.3205626  78.6173205  53.3426802  68.8614767  78.4624748  52.9710869
  30.0155067  54.7877502  51.9574022  29.4195461  55.2874517  52.5154018
  30.2474093  54.0207815  52.4810553  65.5501049  69.8361782  69.2271645
  66.2187998  70.5111937  69.1112517  65.7434027  69.4518880  70.0822605
  54.0554810  42.8977346   1.5335996  53.6857939  42.1430063   1.0754037
  54.9898672  42.7018404   1.6027309  73.9148323  71.2378887  43.6305372
  74.1865199  70.3270392  43.5175340  74.3604939  71.7098026  42.9270355
  11.3180518  54.1926241  36.1417437  10.9383214  54.9578476  36.5735626
  10.5631161  53.6620951  35.8871031  80.5290120  65.1499848  52.5298409
  80.3739922  64.3919853  53.0934362  81.2559741  65.6131963  52.9460029
  35.3450108  55.1713848  20.1748776  36.0939217  55.6359863  20.5483818
  34.5936751  55.4837418  20.6790161  22.4482799  23.7874699  33.2565522
  22.1516204  22.8829360  33.1563377  21.7645645  24.2073345  33.7785482
  60.9389393  65.2389006  71.0884417  60.2414958  65.8509020  70.8533652
  61.7175310  65.7877044  71.1824754  65.1182175  67.5297308  21.2611032
  64.3961382  67.6532269  21.8772054  64.8694324  66.7582369  20.7520509
  39.5647311  21.4807034   4.7002453  40.0979137  20.9578991   5.2990997
  39.1198206  22.1125269   5.2651197  31.6398072  52.0664406  22.6540899
  30.7490420  52.0147324  23.0006361  31.9904351  52.8805923  23.0152702
  48.4179592  50.1325226   9.7223222  48.3885288  49.7189999   8.8595557
  48.0535126  49.4754982  10.3153908  27.1818876  35.5780315   8.8613641
  27.3965263  34.6505618   8.9611584  27.2248125  35.9307885   9.7501570
  63.3575003  49.3920551  66.9507961  63.5763781  49.5779864  66.0376946
  62.4106305  49.2518745  66.9463591  79.5920365  52.9012970  28.0408613
  79.2827647  52.7318327  28.9307300  80.0478499  52.0982496  27.7887146
  33.2744360  12.5673091   6.3161230  33.0773067  11.9100475   6.9834900
  34.2176652  12.4884498   6.1735404  85.0531349  27.8239202  10.5789733
  84.3868858  28.5106492  10.6063426  84.7054088  27.1771908   9.9649215
  64.2765062  56.1260371  64.4643132  65.1959841  56.0633151  64.2057435
  64.2587273  55.8045284  65.3657280   5.4287344  53.7680626  17.7571821
   6.0853338  53.1711674  18.1161082   5.3471583  54.4582224  18.4154034
  17.3905832  11.3279678  53.7895159  16.8111784  10.7791949  54.3180684
  18.2367308  11.2809993  54.2345588  68.5539553  14.8168946  43.8334576
  68.6848042  15.7650901  43.8394777  68.9570699  14.5246698  43.0159418
  74.1508238  75.0530509  49.6566121  74.1543667  75.5027656  50.5015818
  73.8830035  74.1575627  49.8630134  65.4440117  17.4154854  15.9267819
  65.3103971  16.4947736  15.7016838  65.3437662  17.8819168  15.0969481
  49.6480036  18.2573223   6.2416899  50.1494408  18.8139331   6.8374902
  49.1128540  17.7111745   6.8175107   0.3358481  82.6773357  44.4647789
   0.2969840  83.3248520  45.1686573   1.1667900  82.2227669  44.6031189
  26.1521752   8.9114763  65.5521093  26.0622580   8.1057788  66.0610298
  25.4608280   9.4835902  65.8852116  46.8908446  66.1638717  66.1522834
  46.9766943  66.6295342  65.3204058  47.7789228  66.1449246  66.5089218
  20.5363859  53.8488642  28.1244509  20.2951874  53.5248474  27.2566549
  21.4512505  53.5885159  28.2315676  79.0410123   2.4699641  62.2565119
  78.9733610   2.1684314  63.1624548  78.4896384   3.2516671  62.2224568
  70.1932042  65.7276634  58.6683540  70.3015988  65.8534960  59.6110360
  69.2454975  65.6907896  58.5390465  52.5293303  32.3872232   5.6634092
  52.0460653  31.5956259   5.9001797  52.4181318  32.4612260   4.7155750
  14.0169682  75.9767608  66.7637346  13.5479798  75.2704076  67.2079719
  14.2436232  76.5903501  67.4625681  35.7585549  24.2168951  31.3636136
  36.4576554  23.9923048  31.9776583  36.2068558  24.3494487  30.5283356
  24.8099501  80.3756255   0.1113739  24.5612795  80.9247714   0.8549014
  24.8574812  80.9812401  -0.6283583  14.3530049  75.4823355  59.8005597
  13.8501372  75.0252704  60.4746835  14.8677363  76.1292390  60.2830521
   0.3549000  60.0539970   2.2962599   0.6779036  60.6096077   3.0056262
   0.9790566  60.1889086   1.5831964  13.8587356  33.6021733   2.5743318
  13.0705690  33.4266114   3.0883399  14.1864359  34.4344831   2.9150739
  63.0010080  33.6774206  10.1909435  63.7139416  33.6877704   9.5523143
  62.7300692  34.5927000  10.2623022  75.6516409  54.0405703  10.3673303
  76.0269928  54.8366880  10.7435393  75.6039238  53.4281826  11.1014509
  58.9198590   1.6448737  61.9933818  58.8983235   1.9913961  61.1013691
  59.5591395   0.9332992  61.9585339  34.1273434   2.0834876  55.3245859
  33.7902195   1.2923814  55.7449750  33.3443291   2.5702811  55.0673775
  51.7678928  28.7686777  11.9576585  51.1285400  29.1643953  12.5499976
  52.1969557  29.5133591  11.5362465  28.1497795  17.7030994  54.2980079
  28.6705286  17.8029300  53.5010843  27.2488148  17.8628064  54.0169613
  87.8848164  49.4975791  62.3400090  88.1816523  48.5876910  62.3549281
  86.9591944  49.4436757  62.1022002  65.8634036  67.9282574  66.6375844
  66.1726277  68.6158327  66.0477964  65.0099699  68.2383899  66.9404034
  25.0051093  28.5486126   1.4986265  25.3435278  29.0736985   2.2238773
  25.5739903  27.7791929   1.4741260  69.6487563  80.6007413  50.2657215
  70.3792136  80.5624656  49.6483080  69.9360650  81.2178187  50.9387009
  46.3295643  63.7739901  67.6874895  46.8823056  63.8061170  66.9066719
  45.5447774  63.3036498  67.4062018  37.7234745  37.1885824   7.8349453
  37.3001027  36.3303995   7.8576106  38.4668064  37.0733833   7.2429854
   1.0439502  77.7131224  22.9250312   1.4097393  78.0534363  23.7414956
   0.5904387  76.9103098  23.1820369  57.3618221  35.7838249   2.9936799
  57.0444155  35.1539230   2.3466027  56.8763256  36.5867782   2.8044906
  39.4926310  37.1535993   2.8231004  39.0592432  36.4795280   3.3465847
  39.6120739  36.7494726   1.9636546  42.8885889  61.5857840  26.0420871
  43.5792971  62.0949173  26.4662766  43.0977154  60.6758785  26.2532043
  31.1524946  40.5369807  57.3110716  30.7704050  41.2907554  57.7605895
  31.9582970  40.3533221  57.7939622  27.7118094  62.4058391  56.2931220
  26.9503958  61.8814517  56.5410928  27.9950888  62.8177215  57.1094195
  41.8637209  79.8911742  69.4256632  42.0802276  79.7447209  68.5048438
  41.3459270  79.1255860  69.6746550  40.1910479   4.7848655  71.1769537
  40.9979803   5.2987243  71.2091022  39.7320540   5.1079894  70.4016155
  64.8601818  44.5532942  13.2156932  64.5799255  45.2854633  13.7648857
  64.0529299  44.0771723  13.0210483  24.3846447   0.1102782  64.2074702
  24.0505917   0.5910255  64.9647842  25.3350336   0.2116014  64.2596410
   1.8841607  14.0580417  63.1120984   2.5419767  14.5849324  62.6583437
   1.1197431  14.0815593  62.5364725  53.9739847  69.3060017   1.0305750
  54.8275661  69.0248156   1.3600668  54.0568733  69.2569971   0.0782302
  75.7880299  54.3912927  34.5054285  75.2941124  54.4233362  35.3247277
  76.5527289  54.9444799  34.6649663  26.6545803  33.3886100  57.2296147
  26.1622555  34.1629363  57.5021378  26.1944849  33.0738593  56.4514915
  27.5049049  14.6327449  47.7652923  27.2282250  15.1589824  47.0151226
  28.3651144  14.9818422  47.9985253  43.9870579  20.7555248  69.2525430
  43.3201105  21.1838866  68.7159593  44.5334561  21.4729692  69.5734062
  76.7185299  81.4933542  51.4440672  77.6360075  81.3628105  51.6837065
  76.4184229  82.1968703  52.0195929  35.9274340  73.3009434   9.0779823
  36.6499615  72.6786375   8.9947963  35.2048421  72.8943157   8.5997081
  80.5868244  69.1740417  17.1464694  79.7981739  69.7142267  17.1960342
  80.7759380  69.1116333  16.2102151  38.0907583  33.4960079  21.6500878
  38.0039144  34.3030953  22.1573353  37.2424030  33.3914161  21.2192941
  39.6678526  34.0937854  71.2470445  38.8072950  34.5045139  71.3305345
  39.9532635  33.9501859  72.1493478  -0.2582870  69.6719198  63.2766293
   0.3874315  69.4027523  63.9299528   0.2190317  69.6552734  62.4470977
  73.9381545  78.4141115  65.2424888  73.1090872  78.3846502  65.7199911
  73.6824172  78.4671358  64.3216096  43.3557367  50.7343483   7.7172863
  43.0794382  49.8215675   7.7992648  44.3035841  50.6873798   7.5923306
  77.1282809  71.1114196  62.4700240  77.3696177  71.8740181  61.9442551
  76.6524022  70.5435495  61.8639747  47.5385380  29.8719263   9.8879027
  48.0605745  30.3422046   9.2378688  47.1210051  30.5614352  10.4041171
  27.7994694  67.0078830  53.4248714  27.3326840  67.4315314  54.1451947
  27.9208435  66.1043529  53.7166457  43.3816926  79.0123848  64.3675445
  42.8291159  78.8716892  65.1363717  43.4583895  79.9640135  64.2986218
  60.9758043  34.7665501  12.9070973  60.1241732  35.1955724  12.9901385
  61.5374517  35.2262902  13.5311329  26.8164444  58.6501741  43.0739594
  27.0471573  57.7256727  43.1650305  27.3870087  59.1018057  43.6958265
   9.1920676  68.4164743  45.4383413   9.2340578  67.7822975  46.1540858
  10.0745739  68.7842778  45.3921453  76.0931961  78.5978250  51.7576281
  76.1598246  79.4765572  51.3839690  76.8993132  78.1597451  51.4846913
  13.3795101   5.4964830  67.5984044  13.3009750   5.6511928  66.6570608
  12.4920065   5.6175805  67.9358981  82.3432446  33.2321620  11.5814531
  82.5807953  33.1060672  12.5000930  82.6380920  34.1196775  11.3774633
  60.8679407  82.4941305  59.6741335  61.1215489  81.5756039  59.7648219
  61.1399810  82.9001002  60.4971854  28.7254650   4.3726684  66.6929237
  28.5776646   3.8919498  65.8784960  27.9309208   4.8931409  66.8114052
  32.6621890  43.4628534   6.7553312  33.0547166  44.3113136   6.9609362
  33.3587575  42.9775333   6.3131887  20.7460523  67.2140265  25.3812456
  20.4416871  67.7281046  24.6333671  20.6271601  66.3036728  25.1104212
  63.6985731  59.5269966   4.6503782  64.3658972  59.2707157   4.0138021
  63.2952976  58.7018156   4.9199781  79.7793255   6.4364625  45.7338611
  79.2271290   5.7451631  45.3685991  79.2607127   7.2348405  45.6345336
  10.7035555  57.5584535  71.0157790  11.4671625  57.4708025  71.5862637
  11.0506024  57.4414937  70.1314087  56.3458776  54.5740604  17.6738834
  57.1838045  54.7349596  17.2400379  56.4087200  55.0518751  18.5009098
  53.4862375  79.7162247  22.0367098  54.3227530  80.0904846  22.3131180
  53.5977840  78.7720871  22.1480656  80.4026120  74.2628936  71.2206283
  80.4699748  74.7450237  70.3964650  81.1782734  73.7021832  71.2341906
  28.4528899  38.3737421   4.4458351  28.4296227  37.4660826   4.7488931
  27.5348449  38.6441755   4.4288123  50.4901743  46.0162258  16.7741120
  50.9058619  45.3068066  17.2641766  51.2057638  46.6188860  16.5717196
  52.1840191  66.7643690  30.4270339  52.8191233  67.2951078  29.9462104
  52.3426437  65.8697367  30.1258636  11.0521490  43.7541248  50.2165477
  10.2688272  43.7674476  49.6665804  11.7793305  43.8374282  49.5997016
  86.9259548   9.6996683  15.9550619  86.1596584  10.1129472  16.3528275
  87.5587082  10.4113495  15.8582509  50.7925081  59.4216776   4.5894751
  51.7433453  59.5294714   4.5665565  50.6548309  58.6147785   5.0856549
  71.1156790  66.7228345  70.2658678  71.9251149  67.2335891  70.2526816
  70.7581799  66.8177323  69.3830181  74.6065514  81.3705973  48.6112396
  75.4965918  81.0655383  48.7872998  74.5796149  81.4960841  47.6626841
  64.3899536  63.0467749  31.3845205  63.9467287  62.2750664  31.7370105
  65.3217840  62.8365469  31.4455605  44.0332174  60.4469061   5.0689352
  44.0751362  60.3393173   4.1187254  44.7626972  59.9240017   5.4015982
  87.5022356  47.2730372  68.6849378  88.4283678  47.4768214  68.5546012
  87.4516766  46.9541327  69.5860342  67.2991419  36.2393594   3.1164256
  67.9717445  35.5728364   2.9764622  67.1349955  36.6006017   2.2453393
  26.8581319  40.1422262  14.0045071  26.7248845  40.6797314  14.7852540
  25.9759903  39.9880958  13.6664224  11.7224157  52.5772905  20.6167459
  11.5694952  51.6894150  20.9400535  11.3070703  53.1438017  21.2669635
  44.3017864  12.5672555  14.8220730  44.8735332  11.8145728  14.9730885
  44.8265171  13.3232689  15.0853872  37.8845954  45.2643871  14.1224122
  38.1697488  46.1561871  13.9233840  37.9457378  45.2004719  15.0755167
  13.7170059   7.7071000  48.1315033  13.5027582   8.6143018  48.3490102
  13.5256178   7.2174121  48.9313857  42.7559953   7.7964494   7.2248656
  42.6430683   8.0141446   6.2996149  43.2609086   6.9832608   7.2196966
  46.9347525  43.6750555   7.1482545  46.8032694  42.7841806   7.4727267
  47.8242111  43.9004135   7.4208581  48.7516546  39.4883490  13.6337459
  48.7056398  39.5379066  14.5885539  49.6708202  39.2964506  13.4478939
  29.7931320  16.8246986  60.4621009  29.9889977  17.0249177  61.3774053
  30.0915224  15.9227563  60.3450708  56.6966240  59.5688597  70.2713465
  56.4271252  60.4210154  70.6140302  55.9388750  59.2598657  69.7747878
  16.1307890   9.6491862  66.4916514  16.0695011   9.2636062  65.6176923
  15.5469782   9.1152669  67.0304744  61.9086378  69.1602973  39.6547548
  61.6872995  69.4486288  38.7692587  62.1570556  68.2415752  39.5524184
  56.8197853   1.6429759  58.7646882  56.2055046   0.9188987  58.8854770
  56.7744190   1.8420936  57.8295271  67.6830990   9.6367217  58.5016827
  66.9586212   9.7955180  57.8965752  68.2920963  10.3574039  58.3405535
  48.3660173  36.2871957  18.1127644  47.8056908  37.0613217  18.1674969
  48.8541698  36.4020205  17.2974396  48.7708616  44.2970085  14.9617624
  49.5436287  44.8567867  14.8861921  48.4390926  44.4645405  15.8438599
  71.7089033  70.8708715  61.4760399  72.3861980  71.5242577  61.6509485
  71.0082626  71.0809994  62.0934343  51.6505718  40.5882311  24.9590755
  51.9594288  40.8827448  24.1022754  51.2521601  39.7345495  24.7895956
  84.7822223  63.3174468  64.8299704  84.9503813  64.1020538  65.3518359
  85.6182061  63.1300117  64.4030855  32.4109840  72.5332975  11.4868891
  32.6304793  72.6753807  12.4076855  32.7961707  73.2814312  11.0306489
  52.4746649  67.7870540  69.6433857  51.5334647  67.6989750  69.7937667
  52.5990384  68.7141518  69.4402851  42.8186209   7.1160079  40.6333129
  41.9437534   6.8487645  40.9151356  42.9188568   6.7287208  39.7637193
  50.5497932  58.9935207  13.2625389  51.1362410  58.3670521  12.8384554
  49.6879196  58.8034868  12.8920114  31.3090355  25.3095437  67.6574595
  31.7604000  25.4185058  66.8204240  31.9954712  25.4182340  68.3156590
  23.5823979  80.5581741  49.0590207  23.7100090  81.1406855  48.3102695
  22.8892292  79.9593667  48.7812130   8.7382060  35.7620215   3.8984659
   8.8356882  36.2945580   3.1090769   8.2525939  34.9899554   3.6080763
  43.9933825  58.4958363   2.5712353  43.8615274  59.1816616   1.9166407
  44.4847059  57.8159428   2.1101731  60.3402233  58.4914827  16.7710543
  61.0475636  58.2198524  16.1861455  60.2782345  57.7864265  17.4154806
  68.0384431  46.7093993  53.9145557  67.9415236  46.7571021  52.9634706
  68.7182669  46.0499812  54.0532569  18.2447130  26.4264394  59.1413991
  17.6785595  25.6837798  58.9312474  18.9695580  26.0428716  59.6350674
  37.2282338  53.9924908  17.8177345  36.6480780  53.6023426  17.1639478
  37.4615860  53.2655716  18.3951175  22.1301341  65.6695986   0.3764229
  21.5061140  65.0071573   0.6730704  22.1194816  65.5982924  -0.5780581
  72.2431707  49.0563202  29.9907255  71.4526272  48.5283661  30.1027226
  72.6243353  49.1057825  30.8673644  37.7895594  28.0747676  28.7031960
  37.8665280  27.5353074  29.4901443  38.6746883  28.0953288  28.3393884
  51.3784344   8.2206823  57.7652196  52.2583420   8.5150386  58.0004887
  50.9162457   9.0214492  57.5174527  15.7834280  26.3242888   4.2492700
  15.5628753  25.6765580   4.9186221  16.4336026  25.8879304   3.6987284
   0.8903862  40.6471825   6.5326321   1.6876863  41.1253977   6.3049167
   0.2385277  41.3299942   6.6910064  40.1260471  58.2135153  29.1817737
  39.8855901  59.0814686  29.5059180  40.7594538  57.8863192  29.8204970
  48.4548044  61.0291862  17.6154113  47.5156784  60.9187651  17.7640045
  48.7616396  61.5209150  18.3771753  41.7489529  50.7954121  11.5521848
  42.2207022  49.9789810  11.7168653  42.0203066  51.0554457  10.6718564
  81.9456427  78.8522605  55.9770123  82.0102971  78.3284764  56.7755739
  81.1537259  78.5328178  55.5445115  59.7315853  22.8935386  62.0393787
  59.5857936  23.4789420  61.2962226  58.8642476  22.5428296  62.2417669
  84.6486340   5.1283504  39.5736067  84.7687660   6.0465385  39.3312709
  83.7019334   5.0290967  39.6742837  20.6693639   8.7357995   3.5982749
  20.9999838   7.8416440   3.6843446  20.9207525   9.1639325   4.4166517
  44.9238331   7.0505048  62.6718370  44.1915543   7.6601793  62.7629171
  45.6456024   7.4716426  63.1386576  49.0057230  78.8131332   9.1839600
  48.6530828  79.6271610   9.5434529  49.6029234  79.0960312   8.4914607
  30.3979468  43.9866877   0.5353760  29.4732904  43.9953089   0.2880524
  30.4991317  43.1900358   1.0562792  76.6097491  79.9959640  59.6979575
  77.0786469  79.1754584  59.5458559  77.2762721  80.6752805  59.5954625
  72.4623244  67.1703367  53.9573614  71.5625851  67.4969796  53.9604644
  72.6486580  66.9730047  54.8752777  76.0522842  62.8079748   7.1471167
  75.4983377  62.2303009   6.6220742  76.8679094  62.3199224   7.2602218
  27.3460276  36.4280130  71.0011298  26.7220337  36.8654109  70.4218615
  26.8090469  36.0816718  71.7138247  79.2587529  17.1533729  61.5636436
  78.7636886  17.3211576  62.3655115  78.6368630  17.3279954  60.8572499
  58.8908546  80.0039033  69.2854844  58.0474131  80.4341320  69.1449831
  58.8885205  79.7695259  70.2135431  34.2860062   2.1431733  62.4356268
  34.0238030   1.2559367  62.1900855  35.1988680   2.0558549  62.7100221
  77.9102945  75.8642721  15.3815889  78.7237072  75.5242872  15.7544196
  77.3546028  75.0922108  15.2749920  70.8171225  51.8147945   9.3469965
  70.6157446  50.9045792   9.1297722  71.1827707  51.7748785  10.2307045
  65.6612413  69.8909859  59.1727607  65.9155147  69.1601328  59.7361724
  65.9965794  69.6546511  58.3079342  77.9573386  78.3190922  67.3108054
  77.5319426  78.0776552  66.4880190  78.3954279  79.1484002  67.1195943
  42.7618694  81.7844677   4.2551476  42.4376440  81.8808556   5.1505905
  42.9092264  80.8441353   4.1536984  47.7540762  16.6303493  60.8608035
  47.0205147  16.8210555  61.4453964  47.3724634  16.6505099  59.9831955
  19.7023821  72.3414946   5.3986084  20.2696347  71.5712738   5.4334152
  19.1515136  72.1986675   4.6289483  74.1095734  46.2658691  29.5160365
  73.6939001  47.0066404  29.0747833  73.5085249  46.0424328  30.2267051
  60.8330886  81.3727860  35.8923356  61.2981741  80.8544688  35.2356188
  61.1554067  81.0420326  36.7307536  42.7721167  19.9196613  17.8255212
  42.4800777  19.4300961  17.0565808  43.1561565  20.7202792  17.4680853
  35.0188065  43.0385685  17.0852280  35.4471993  43.8632345  16.8557858
  35.3155375  42.8543758  17.9764378  14.2023117  16.7383672  66.7054669
  13.6623985  16.4984370  65.9523676  15.0820906  16.4406158  66.4740221
  29.4237137  50.4961443  13.3736551  30.0770831  50.9098053  13.9377689
  29.2593789  49.6457577  13.7811708  47.0523643  46.3714695  29.2738605
  47.5082636  46.7955160  28.5468340  47.6447248  45.6735563  29.5535922
  53.1687212  47.0163822  19.2831671  52.7541590  46.4064169  19.8933423
  53.0409193  47.8774023  19.6813381  39.6356726  46.4984751  24.7396898
  40.1674843  47.2937965  24.7691703  39.5342612  46.3126278  23.8061976
  11.5642340  16.0170985  52.1234886  11.3913996  15.1553775  51.7442791
  10.7214148  16.2940122  52.4829356  62.2915285  74.0789823  44.5084588
  61.5465276  74.6751551  44.5844976  62.4513428  73.7799696  45.4036037
  45.4095078  25.6613445  22.7117014  44.9015617  25.6522107  21.9004464
  46.2963629  25.4229593  22.4417043   5.8116648  67.7576017  31.1736560
   6.6907617  67.4264765  31.3574362   5.2491781  67.3057652  31.8026924
  76.6047947  78.2178835  65.0209383  76.7383282  79.1529421  64.8658101
  75.7316678  78.1618051  65.4091857  33.6059666  29.3998003  12.1461463
  33.1314802  28.6166883  11.8671691  33.3438802  30.0744939  11.5197825
  42.4841404  53.2118464   7.4681526  42.8285313  52.3187828   7.4765515
  42.4161386  53.4510279   8.3924896   3.2031836  71.1408047  67.5055326
   3.1438603  72.0070652  67.9084037   4.1022600  71.0885362  67.1812470
  60.4358523  58.5655252  64.4580958  59.9970238  58.8881342  65.2452330
  60.4259269  57.6129655  64.5517109  73.3245993  14.2927349   7.0696789
  74.0368557  14.6999335   7.5627422  72.5325489  14.5328844   7.5505340
  76.3767140  57.1623139  67.9409535  76.4097016  57.8756658  67.3035578
  76.7394011  57.5400786  68.7421904  54.8674154  24.7858882   4.9187094
  55.2135134  25.4890990   5.4682028  55.6213045  24.2207599   4.7498634
  81.9727175  76.1070399  61.5195827  82.5523274  75.7388453  60.8527092
  82.1884386  77.0394711  61.5360407  62.4864721  32.0745230  15.9928322
  61.6648626  31.6097116  16.1513865  63.0164003  31.8960524  16.7697203
  87.5964165  69.8494720  14.7097754  86.8844891  70.3468895  15.1122403
  88.3572674  70.0311947  15.2614164  28.7260818  49.2334366  32.3386931
  28.7463164  50.0438404  32.8476810  28.4528065  48.5636568  32.9655480
  61.2210226  80.9724045  26.5647554  60.9604883  81.3947678  25.7462454
  60.6694698  81.3815594  27.2315454  87.2039924  17.5269605  44.9061291
  87.5692664  18.2062341  45.4730479  86.8608342  16.8691922  45.5109541
   0.7996351  42.8653098  64.5448367   0.7546026  42.3831989  65.3705291
   1.3604266  43.6169482  64.7366379  68.0591106  35.4529023   6.9213057
  67.8498077  35.5301213   7.8521442  69.0139818  35.5089855   6.8850660
  37.9905891  39.3681693   2.0213097  38.4499264  38.5665607   2.2716372
  38.6181569  40.0689840   2.1980922  73.2251310  17.9895222   9.6567261
  73.5118818  18.7061441   9.0906334  73.4788656  18.2641423  10.5378819
  59.5946598  70.2367020   9.1751868  59.3068838  69.6281290   9.8556685
  58.9173174  70.9127855   9.1564739   3.7155039  40.8037997  69.6850292
   4.0013368  41.0812808  68.8146622   4.2980511  41.2665797  70.2872821
   9.1098773  37.3795795  13.0575716   8.9088404  37.0361781  13.9281416
   9.6301657  38.1655192  13.2243919  40.5819096  76.3301496  60.3484349
  41.1836781  76.7294029  60.9766905  40.7815804  76.7619805  59.5178418
  62.4207080  21.6092445  68.7890149  62.2641815  21.9749261  67.9183785
  61.7218522  21.9747020  69.3314828  49.5233059  54.9539900  10.1258588
  50.1589012  55.4197598   9.5824307  49.3841791  54.1225719   9.6724111
  40.1376040  30.6405164  71.8123799  39.7134478  31.4483739  72.1016686
  40.5630476  30.8754064  70.9877243  60.9113216  48.9978981   1.9860700
  61.7648029  48.5645342   1.9861914  61.1055136  49.9094296   2.2043176
  21.9902325  63.8553381  19.3253088  21.3961267  63.4375572  18.7018275
  22.4017119  64.5618296  18.8275266   5.1886947  18.9921380  47.8158490
   5.8425243  18.6922027  47.1843593   4.3860848  19.0868045  47.3029296
  66.6707850  48.7667561   4.6899337  66.6642237  48.2396078   3.8909933
  67.3431969  48.3623743   5.2381796  54.0261030  32.6185298  22.4546313
  54.5118189  33.0112505  23.1799459  54.5647097  32.7937555  21.6829896
  44.1567220   5.1734445   0.0834610  43.6059084   4.3923947   0.1362122
  43.6349287   5.8627126   0.4944193  53.1547499  41.5347576  22.7163315
  54.0819263  41.5467119  22.4787855  52.7347374  41.0341597  22.0168853
  21.6093857  16.0443212  70.0849843  21.4263756  16.6381742  70.8130498
  22.5057585  16.2550212  69.8235507  80.3403037  81.3578276  54.8277573
  79.9240344  80.9878091  55.6062428  80.4466574  80.6129460  54.2360858
  80.6692021  76.6496996  58.4725837  81.3433735  75.9992890  58.6692862
  79.8828404  76.1335019  58.2953731  65.9472704   8.6597431   9.8880804
  65.7875347   9.1705143  10.6816971  66.8144846   8.2767272  10.0202596
  80.8698368  59.9002123  11.7201853  81.0670280  59.1796970  11.1216831
  80.5011177  60.5830097  11.1597669  41.0487843  54.7785807  19.4953823
  41.8095684  54.3061113  19.8333335  40.8544970  54.3534803  18.6600554
   4.8943254  59.5016623  45.5283213   5.8400842  59.4189930  45.6505489
   4.6988508  60.4052639  45.7763529   8.2920182  45.4336882  31.2171888
   8.2148486  45.6417704  30.2860737   9.2317885  45.3217936  31.3605189
  66.4730232  61.9125489  56.6069321  66.4949720  61.3752333  57.3987917
  67.3497241  62.2926859  56.5510504   7.2617742  53.5754395  26.3666010
   7.7337953  53.3103848  27.1560121   7.3024103  52.8090525  25.7945585
  81.4426694  33.0958320  69.4768342  81.4153872  32.5289346  68.7060459
  81.3404332  32.4981452  70.2174754  45.9904814  30.3984475   4.4066748
  46.6144133  31.0832214   4.6475637  46.5087605  29.5937252   4.4001275
  86.2672148  21.6228009  47.7381794  86.1411105  22.5274326  48.0244772
  85.7242284  21.1054469  48.3329431  12.4746925  23.6918260  44.0076868
  13.0493767  23.4338332  43.2869856  12.4699432  24.6485997  43.9795081
  69.8418038  61.4065818  53.1442313  70.0634377  60.5003707  53.3584551
  69.3453257  61.3452284  52.3281590  25.0104141   6.8710005  61.7877722
  24.8083019   7.5487214  61.1427355  24.3083930   6.9392586  62.4348736
  25.5629396  69.4331646   2.2155452  25.1927757  70.3027058   2.3675701
  26.3664818  69.5978355   1.7221545  47.9905272  31.7336726  24.5023346
  48.0538702  30.7833838  24.4065928  47.7236080  31.8654776  25.4120684
  83.4914725  69.6023134  57.6215009  84.2960017  70.1159982  57.5501136
  83.0927937  69.8943333  58.4412639   1.9632639  54.0860538  55.5054490
   2.7473749  53.6810629  55.1347963   1.2447514  53.5210137  55.2213649
  16.6885168  22.5009776  52.4154477  16.6157562  22.0230771  53.2416121
  17.4694616  23.0443097  52.5210206  65.6467485  53.7315369  10.0961900
  66.5377140  54.0811872  10.0835991  65.7426643  52.8438663  10.4412532
   7.1967752  43.6703540  52.6732914   7.4699719  44.5468284  52.9441933
   6.5394408  43.8234664  51.9945411  46.9174654  12.9310228  53.0623202
  46.2954361  12.4412347  53.6002938  46.7646916  13.8471986  53.2936327
   1.7364046  37.1066356   0.6972715   1.0369703  37.7347159   0.8776605
   1.7922231  36.5756130   1.4917086  58.6263132  70.8579254  12.1252286
  57.8966284  71.4654827  12.0041287  58.3054209  70.0258684  11.7774701
  37.2713835  23.7533523  67.3737149  36.5441401  23.6393548  67.9855601
  36.9002421  24.2617465  66.6525899  33.4864783  13.0109131   2.5212514
  33.6677623  13.4257340   3.3646327  33.9627051  12.1812785   2.5551122
  36.8071110  35.0949098  70.8321055  35.9948475  35.5897094  70.7242430
  37.1120674  34.9373914  69.9385596  11.0776114  58.5744333  10.2106166
  11.0379374  57.6201200  10.2734506  10.3038943  58.8132238   9.7001535
  53.0686695  18.1567622  67.9409070  52.9865677  17.3010303  68.3618752
  54.0119774  18.2852985  67.8415645  73.8481617  72.2209311  18.3023334
  73.3201742  71.6160297  17.7812243  73.4715223  72.1717834  19.1809440
  65.3746693  80.8664755  51.9084589  66.0095351  80.6652145  51.2209479
  65.8693330  81.3774280  52.5491361   1.9284321  33.7842298  24.3749738
   1.0236783  33.7164807  24.6800351   2.2040197  32.8776336  24.2394495
  18.1673319  36.7619706  46.9595138  18.9803488  36.5555621  47.4206344
  18.3148701  37.6335479  46.5923373  30.1023650  78.3080244  32.0896578
  29.7377038  79.1929960  32.0985508  30.7721853  78.3318377  31.4062786
  31.8263020  76.0322670  66.7589472  32.0138897  76.5890817  67.5145931
  31.0661759  75.5150918  67.0253442  65.7474375  62.7017260  20.7254314
  66.4760208  62.9509735  20.1568556  65.7101536  63.3947325  21.3846660
  59.5697737  47.4323225   3.7432212  59.6439648  48.1687832   3.1363001
  59.7171450  46.6582823   3.1997347  31.6438133  15.2054263  51.7335669
  32.1693117  14.9121190  52.4779145  32.2694809  15.6430913  51.1563150
  63.4130383  77.3097563  11.4882767  63.5604572  76.3707447  11.3752997
  63.7798786  77.5078297  12.3499191  44.9549866  44.8112583  10.5556309
  45.8225870  44.9915743  10.1937044  44.9316931  43.8599730  10.6592882
  47.9487324  80.2483749  26.3656425  47.1557570  80.7504654  26.5536022
  47.6559877  79.5474625  25.7831860  22.1906114  46.2100935   7.4047595
  22.7748823  45.8147144   6.7578173  21.3103724  46.0063028   7.0887148
  74.6592903  76.8562651   1.2270640  74.2456722  76.0537195   1.5449758
  74.8174238  76.6921616   0.2973897  40.4759628  25.7737590  50.8977358
  39.6488030  26.2327291  50.7515208  41.0526640  26.4353038  51.2798445
  69.5415115  69.8894978  24.7100592  70.3323650  69.8731756  25.2490568
  69.7903633  69.4340277  23.9057875  86.8427181  77.7191544  16.8954778
  86.2742043  77.4924850  17.6314437  87.5852299  77.1200752  16.9730294
   8.2546987  22.3771569  23.1851053   7.8793182  23.1495664  22.7623653
   9.1131868  22.2729871  22.7747726  19.8615170  48.1572962   4.4090930
  19.7584558  47.2211981   4.5803428  20.7964730  48.2676315   4.2361289
  78.4036303  27.4487948  11.5016770  79.0732527  27.4409318  12.1856189
  77.7954769  28.1376243  11.7698097  61.8847752  54.0190983   7.7443552
  61.4006710  53.6671066   6.9973755  61.3483047  53.7947226   8.5046768
  70.3464842  81.1807823   0.3979621  69.5848322  81.6829872   0.6876239
  70.0814295  80.8070183  -0.4424405  12.5143041  12.5033090   2.3265921
  12.1879520  13.0187222   3.0642036  11.9662323  11.7185590   2.3216434
  26.3010771  36.0116721  53.7198798  26.9299013  36.6317559  54.0890817
  26.7135508  35.7042838  52.9126553  79.2202282  80.5717945  36.4585280
  80.1345539  80.5482388  36.7408085  78.7350178  80.1813126  37.1853900
  51.3981087  18.3772184  71.6564675  51.2372715  17.9662420  70.8070788
  51.4112599  19.3159295  71.4696929  42.1433527  16.9212486  27.4971811
  42.0914442  16.1623336  26.9161550  42.7908737  16.6737081  28.1572334
  25.6371584   7.4959943  21.1027646  25.5167570   6.6302010  21.4928079
  24.7490110   7.7999684  20.9155822  54.0706110  61.0265875  19.1848588
  53.8040304  60.8146191  20.0794172  53.6213732  61.8489504  18.9895642
  77.2453928  39.5985484   2.4323916  77.0934391  40.5106544   2.6797757
  76.4390564  39.1458225   2.6795527   2.0118553  17.5889064  63.7869911
   1.4825112  17.9079581  63.0560784   2.5407345  18.3432056  64.0468912
  15.8581907  35.1223899  63.4625034  14.9301560  35.0452186  63.2410727
  16.2091238  34.2411281  63.3341966  39.6057310   8.5970208   4.3240294
  39.3905248   7.7889916   4.7898778  40.2805509   9.0111443   4.8619476
  36.1246347  35.0705791   9.1774780  36.4967895  34.5415688   9.8830849
  35.8978796  34.4367623   8.4969723  18.3079083  43.9220477  50.9086863
  17.8965122  44.6661044  50.4689495  17.7251846  43.7251807  51.6421072
  46.1485004  62.7749538  23.0056477  45.3693867  62.3657465  22.6291347
  46.8727398  62.2167730  22.7225542  32.0661664  45.2046585  24.3856645
  32.7090001  44.4965982  24.4263029  31.2572598  44.7778463  24.1032934
  83.9433193  26.0633159   8.7515169  83.7466240  25.1503825   8.5415268
  83.7212563  26.5454936   7.9550087   9.5842590   1.5068337   3.8655046
   9.8747768   2.4066827   4.0141752   8.6663713   1.5035436   4.1369817
  34.8472643  81.6440296   4.0150714  35.6014323  81.8615627   3.4672177
  34.1754007  81.3592815   3.3956000  71.3338423  41.1138630  20.0948596
  71.0481548  41.2968922  19.1998076  71.8403482  41.8858767  20.3472018
  14.9095280  49.7685004  70.9768390  15.1961500  49.2933704  71.7567941
  14.0876085  49.3459655  70.7275432  80.0877516  77.0594410  43.8310687
  80.8869641  77.2462277  43.3385293  80.0287144  77.7696614  44.4700782
  61.2008333  26.4758253   4.8620853  61.7319727  27.2245574   5.1332378
  61.4904642  25.7595396   5.4271352  30.9670479  13.8501025  64.0207009
  30.2519734  14.3126155  64.4577150  31.5134222  14.5453883  63.6542509
   3.9080824  78.1159381  32.8336303   4.3506064  77.2673492  32.8508918
   3.6334147  78.2243518  31.9231169  63.0767632  42.8667688  48.4223413
  63.8545132  42.3680449  48.6725712  63.4183216  43.6086655  47.9231882
  85.0693417  51.1055565  37.3177218  85.2217388  50.5648613  36.5427041
  85.2670002  50.5282211  38.0551815  84.3082659  59.9523322  71.3315188
  84.1791432  60.8446149  71.6530629  85.1346772  59.9885432  70.8498939
  16.0470190  19.0629479  55.8986473  15.9203043  18.1141755  55.8956957
  15.4952421  19.3805119  55.1838541  65.9300167  52.5597144  58.9812426
  65.9339935  53.4468223  59.3407468  65.9793503  51.9899799  59.7488419
  61.8702507  47.4937582  23.2248497  61.1690092  48.1449938  23.2051730
  62.0804167  47.3401928  22.3037219  22.5925667  14.4359971  64.5910601
  22.8480084  14.4790794  63.6695806  21.6411192  14.3330957  64.5712964
  45.2563698  19.0424396  64.3817977  44.5473702  19.5067550  64.8267214
  45.9500105  19.6956588  64.2901645  77.6204703  39.7581054  50.5717437
  78.3866117  39.8829128  50.0116698  76.9318447  39.4667007  49.9741546
  35.8729097  67.2635174  14.7023618  36.4804956  66.8482399  14.0903044
  36.3890383  67.3996735  15.4969108  59.9432468  54.2154169   9.5881742
  60.6474018  54.4498253  10.1926994  59.2775345  53.8080215  10.1423287
  13.8419554  82.2904301  29.9556828  12.9940054  81.9278812  30.2121186
  13.9554426  83.0558681  30.5191159  23.5808338  55.7804767  63.7705390
  24.3384899  55.2167277  63.9266716  22.8248944  55.2147500  63.9278100
  78.4506314  71.5803937  54.0836434  79.1489117  72.2209172  53.9481084
  78.8280194  70.9382824  54.6848969  81.6109936  78.3920316  46.1870448
  82.2847645  78.6253313  46.8256633  81.4517539  77.4600796  46.3365118
  40.6218147  36.7917943  23.6153245  41.4658785  37.0460105  23.9883661
  40.0464582  36.6881084  24.3732452  30.4786093  13.6057712  57.2535769
  31.0468514  14.3572332  57.4228017  31.0025627  12.8467847  57.5097887
  13.8610758  72.0898346  55.9715406  13.6470522  72.5597243  55.1655464
  14.3693365  72.7165798  56.4864115  78.2986212  17.8614044  12.7315986
  78.7940454  18.5544717  12.2952032  78.9675093  17.2900999  13.1089973
  13.7832464  73.1543283  64.3848596  14.7030224  73.3995871  64.2843775
  13.6204495  72.5376586  63.6711029   1.6424383  62.6573352  51.6661779
   1.2120785  61.8038158  51.7164604   2.5023140  62.4701933  51.2895886
  83.2870007  62.7327728  12.5795436  82.6071548  63.1730413  12.0694339
  82.9022694  62.6259184  13.4494865   7.8868175  17.0957637  38.7612247
   7.2698331  17.3529363  38.0760789   8.5274851  16.5444493  38.3119726
   3.9161457  80.8350186  69.5783798   3.6956324  81.7663721  69.5919129
   4.8070444  80.7947425  69.9260987  75.5461168  68.6794233  11.4859295
  75.3471565  67.8968859  10.9718490  76.4602661  68.5683727  11.7471361
  35.5448212  66.4728240  50.8589570  35.6144394  67.2088532  50.2509729
  34.6582665  66.5383701  51.2138717  50.1736085  63.7801031  60.0546662
  50.1558273  64.6685795  59.6989612  51.0126107  63.7218479  60.5117361
  59.8162889   2.4990650  49.8851442  59.3696642   3.2554996  50.2653646
  60.5431271   2.8748167  49.3884087  10.0010068   9.3592883  20.1392214
   9.2679674   9.7298003  20.6307594  10.3703529  10.1029779  19.6630422
  39.2427475   6.8544818  69.0197520  38.6548788   6.4820768  68.3625222
  39.9409992   7.2662402  68.5107012  11.2157471   7.2329045  67.8704624
  11.4283592   7.9793884  67.3102919  10.3169114   7.0041896  67.6337875
  35.9189160  25.7134343  56.3934771  36.7179329  25.6946326  55.8667425
  35.3543789  26.3464118  55.9497754  36.1050200  37.4251580  10.1988506
  36.0633707  36.5673161   9.7762322  36.2549758  38.0392408   9.4800699
  52.5300598  46.1878824  11.4726281  53.0983782  45.9730339  12.2122812
  52.5977564  47.1388292  11.3868785  51.6115713  35.7436538  13.7756824
  51.0757637  36.2211895  13.1423557  52.4104834  36.2649083  13.8548112
  25.8302259  64.1324854  10.0832582  25.7344961  65.0786543   9.9745178
  26.7690682  64.0003014  10.2149224  24.1180015  20.3514075  10.8758080
  23.4100270  20.9808731  10.7387733  24.6097636  20.3615236  10.0546503
  49.6601932  77.9686503  19.6790020  50.5291431  78.2374124  19.9772016
  49.7113531  78.0097608  18.7240545  20.4840166  16.7603399  52.8570060
  20.7367832  17.1424581  53.6974387  19.7757704  17.3218776  52.5419108
  32.0681889   3.7102748  54.3026952  31.7699415   3.8414241  55.2027397
  32.4399073   4.5548059  54.0480880  12.5531752  12.1550990  65.1033418
  12.0580847  12.8010036  64.5994280  13.4679300  12.4135352  64.9908219
  54.5756881  78.6740736  72.1692154  54.5972340  79.6296767  72.2201205
  55.0061576  78.4686641  71.3393148  24.2312224  78.0895784   1.8604143
  24.4752533  78.7685123   1.2313437  23.3304531  77.8621241   1.6299471
  17.5042898  64.6735385   3.7467092  17.6556427  64.4826463   4.6723896
  18.0198319  65.4620615   3.5773554   5.0881018  78.3459334  58.3691100
   5.4343809  77.7792982  57.6797299   5.1020493  79.2235760  57.9872994
   6.4524591  19.4869459  12.9804587   5.8166283  18.9227593  13.4205103
   6.7509466  18.9721334  12.2307217  10.1215090  81.6920809  33.0457417
  10.9159436  81.5023832  32.5466172   9.9129786  82.6005368  32.8278915
  11.5261061   7.6943685  70.5149938  11.5498907   7.5676776  69.5665133
  10.9903652   8.4779073  70.6386122  58.6945598  49.9914686  38.8310091
  59.6105187  49.7282795  38.9203684  58.4831326  50.4100547  39.6654646
  87.0910464  82.7289429  35.6727242  87.4318920  82.1446715  36.3499856
  87.4721990  82.4000144  34.8586226  37.1762402  12.2472573  66.7130367
  36.4423353  12.8325559  66.9002382  36.8748409  11.7125608  65.9785340
  46.4559698   4.0797821   6.8847716  47.2211313   4.6545401   6.8644989
  46.4231491   3.7563500   7.7850753   8.6701836  57.4250690  54.4881491
   9.5729508  57.3989300  54.1710452   8.2512726  56.6667728  54.0810446
   5.1094879  75.1232700  57.7160863   4.8669113  74.4245128  57.1085266
   4.9727024  74.7440104  58.5842351  30.5635142  13.2376957   9.4704795
  30.3947616  12.5361228   8.8415521  31.0520530  13.8932395   8.9726579
  55.5715210   5.4888345  16.1891929  56.0612614   5.9189130  16.8902056
  54.8195870   6.0610963  16.0363762  40.6594658  28.3435655  20.7239127
  41.3185644  27.7379131  20.3847837  39.8237014  27.9121876  20.5460310
  86.0493176  64.6932558  57.5445775  85.3731816  64.3189863  56.9797818
  85.7617228  65.5931715  57.6984398  36.2085067  65.7291226  66.3579665
  36.6244464  65.7676462  67.2192113  36.8343173  66.1528806  65.7705800
   2.3726525  76.7878989  51.6384618   1.6997303  76.2481384  51.2236492
   3.0847515  76.1776213  51.8300621  84.9920075  79.6229200  61.0158615
  85.4330866  80.4692010  60.9418015  84.3566983  79.7448758  61.7213718
  70.1037400  58.1235866  63.2504610  69.1884987  58.1608204  62.9726450
  70.4011862  59.0328054  63.2176302  21.2845165  10.3785945  39.0266554
  20.8780844   9.8095943  38.3729879  20.6171925  10.4781820  39.7056190
  12.0889980  10.3468801  60.1425270  11.8961031  10.4931356  61.0686128
  11.2495691  10.0904847  59.7606174  77.2200155  54.9264002   8.0844134
  76.5596628  54.7306538   8.7491286  77.1062136  54.2420340   7.4249256
  10.1593573   7.6958085  54.9752216   9.9577148   8.1071521  55.8156793
  10.0504048   6.7583657  55.1351122  35.8108647  31.8158675  28.5017864
  35.9592898  30.9992839  28.0249349  36.2432463  32.4850370  27.9712335
  19.4630446  74.3644456  66.1123149  19.8296561  75.2048139  65.8373390
  19.0564837  74.0102224  65.3214524  52.5237370  26.4461970  18.1772470
  52.3894310  27.3605800  18.4264410  52.3496103  26.4263463  17.2362280
  65.1842529   2.5244476  56.9086210  66.0412533   2.3509265  57.2980742
  65.1545555   1.9619895  56.1346773  37.3820662  64.1097164  30.3231621
  38.2719183  64.4471359  30.4258418  37.2730041  64.0055323  29.3779182
  87.7296870  72.4632649  63.1105904  87.0410674  72.5238446  63.7726824
  88.1888287  71.6489677  63.3163671  58.9822285  82.7514557  65.9453980
  59.6566312  83.3712296  65.6673799  59.4710963  82.0053438  66.2926124
   4.2738840  80.7175636   1.9018552   3.4914896  80.6481361   1.3547884
   4.3069860  79.8883200   2.3788179   0.5698218  75.3116469  63.8492243
   0.2639689  74.4223694  63.6707024   0.8406986  75.6477932  62.9949031
  45.5490381   9.2756320  38.9477889  44.7837526   8.8792611  38.5313098
  46.2413151   8.6221410  38.8481347  15.0144884  24.4256043   5.9452641
  14.7064420  23.9844847   5.1535869  14.2990419  24.3196678   6.5722698
  59.0401475  77.8560023  37.5392167  59.1617434  78.5621099  38.1739275
  58.6713760  78.2875900  36.7685215  70.9846783   6.7357683  11.9454706
  70.8071089   7.5906056  12.3378408  71.9012403   6.5602392  12.1583843
   6.3244452  66.9781713  51.6843526   6.9299187  67.6307492  51.3325374
   6.1822857  66.3684181  50.9603183  13.7932934  61.4569036  34.4540731
  14.4457974  62.1472673  34.3362896  14.0668692  60.7637457  33.8533084
  62.8837585  56.7604828   5.9268546  62.3088884  56.6050148   6.6762453
  63.7626123  56.5720701   6.2560195  54.4040728  13.3461452   0.1014828
  54.2597866  13.7990546   0.9323177  54.3490267  14.0358305  -0.5599818
  41.3082409  29.3037462   4.2338258  41.6191959  29.2612672   3.3295387
  42.0880938  29.5190406   4.7454032  22.5584919   9.2567302  64.7261302
  22.3718340   9.6502019  63.8737397  22.2802050   8.3453847  64.6353475
  39.9711115   3.0564738  63.9993487  39.2352326   3.5265208  64.3914841
  39.8372156   3.1462480  63.0558209  86.0599146  12.3411752  59.5742015
  86.9304142  12.3503925  59.1762308  85.5345211  12.9127504  59.0142981
  74.5953798  34.6716976  13.1933951  74.5313072  33.8190603  13.6236656
  73.8494921  34.6941113  12.5939095  22.1063294  40.1049326  38.8430397
  22.0614685  41.0531703  38.7203042  21.3462795  39.8975627  39.3866865
   7.5474943  76.3394741  58.3366124   6.7066492  75.9609870  58.0797855
   8.1971802  75.7000951  58.0444888  15.8306486   5.7610942  50.9487717
  15.0784142   5.8938075  51.5256230  16.4104921   6.4988662  51.1377398
  56.9830275  19.7944844   7.1455878  56.3137007  20.4766798   7.1988666
  57.7908564  20.2297378   7.4179906   3.4439077   2.1277806  31.5136480
   3.5170211   2.7593705  30.7981181   4.2691888   1.6433999  31.4908266
  36.7948842  59.4742870   7.6888978  36.8093657  60.3533697   8.0673617
  36.6933870  59.6200991   6.7483294  32.3410511  41.9248724  17.5734437
  32.9238129  42.6304626  17.2927999  31.5995407  41.9723654  16.9700027
  61.7338753  67.2024488  10.6344461  62.0421886  66.3083220  10.4871011
  60.9442949  67.0990705  11.1655831  56.6530793  57.9209129  50.2788870
  56.6785090  58.6692111  50.8752386  56.9371645  57.1791713  50.8130662
  69.3970139   1.7592336  53.0973307  68.7879307   1.3614656  52.4752049
  69.7938282   1.0164119  53.5522823  24.5979561  79.2827348  56.3762669
  24.8631062  79.1831807  55.4619281  25.2068390  79.9293522  56.7331712
  22.5793345   3.4976436  68.3171652  22.5721914   3.8911296  69.1897200
  22.5300009   4.2425634  67.7180893  41.6572554   4.7534324  61.1901848
  42.0548136   5.4055072  61.7672269  42.2018177   4.7663690  60.4030887
  21.3321114  10.4647422  12.4947429  21.2286258  11.2869525  12.9737949
  20.5320334  10.3880835  11.9749081  49.3045902  53.3592367   0.1035984
  49.9180079  52.7608156   0.5300245  49.8544264  53.9061737  -0.4574474
  24.3924553  16.5627576  70.6463824  24.0373404  16.5932180  71.5347505
  25.2651531  16.9482661  70.7239437   3.5295023  64.9484758  61.5585605
   3.7826266  65.4342560  62.3435293   2.5794663  65.0537447  61.5077071
  71.1237185  79.6142272  70.1342620  71.5362685  79.0736059  70.8078827
  71.8419211  79.8595623  69.5509678  72.9936955   1.4258815  61.9407455
  73.3484207   0.9152175  61.2129931  72.3478077   2.0042516  61.5351037
  81.9097233  48.6394501  11.1793184  82.8480625  48.4506845  11.1903846
  81.8428993  49.5403576  11.4957535  68.9140313  69.9117569  69.6844701
  68.7857668  68.9633135  69.6997724  69.3889086  70.1023106  70.4934273
  53.9959097   3.3065623  18.1393600  54.8820257   3.4697288  17.8162408
  53.4504318   3.9397424  17.6727057  18.9924335  36.8741918  17.1056414
  18.9835227  35.9807038  17.4489093  19.9189258  37.0655870  16.9599974
  20.5922665  82.7408127  66.7233781  20.7891335  83.6769919  66.7557333
  20.5896391  82.5287346  65.7899718  85.7136651  12.5168511  38.4263873
  85.0620147  12.9691503  37.8906536  85.8352085  11.6719815  37.9931951
  61.6521028  53.0962229  49.3343353  61.9355539  53.4132481  50.1918793
  61.9195798  52.1772909  49.3182993  26.5017533  48.0999136  30.6146526
  27.2037292  48.2282591  29.9766946  26.6677690  48.7584591  31.2891793
  61.1988452  54.0901566  46.6983509  61.1952618  53.6969805  47.5710678
  61.3706043  53.3578014  46.1064196  61.8375666  60.7637163   2.3923834
  62.6265453  60.7572885   2.9343279  61.8739845  59.9397798   1.9065531
  36.3329983  82.1709919  59.6920586  36.1339951  82.1104240  60.6263828
  36.2497783  81.2731743  59.3707561  10.9208345  75.8280325  35.5441403
  10.1592553  75.8004618  36.1233354  11.2577569  74.9320984  35.5486822
   0.5497329  67.6368523  18.8926435   0.3658862  67.2625542  18.0310559
   0.1662493  67.0147419  19.5108259  71.7709103  55.3149033  65.8312654
  72.4713090  55.1958609  65.1897764  71.9860998  54.7048759  66.5368080
  38.1078349  12.9203506  18.4386547  37.7964578  12.7806946  19.3329628
  39.0400086  12.7056881  18.4733399  82.4864069  72.0699644   6.7879045
  81.8367174  72.7352428   7.0149189  81.9834784  71.3840532   6.3487852
  18.7814360   4.0730950   0.5097951  19.4933318   4.7127530   0.4930844
  19.1299301   3.3400819   1.0172220  37.2360157   7.2101495  23.5528183
  36.7720281   6.6631600  24.1866589  38.0288624   6.7157933  23.3448839
  75.7478777  22.4216294  17.2175968  74.8918310  22.2379827  17.6044953
  76.1587980  21.5619659  17.1261835  58.9089373  53.7859344  59.6658230
  59.5019320  54.1681671  59.0189171  58.8121536  52.8737068  59.3924952
   6.2804168  14.3736932  29.2068076   5.5428594  13.8276860  28.9345551
   6.8388384  13.7856671  29.7153616  86.8329133  80.8788776  37.7895713
  86.3575614  81.6332817  38.1376314  87.1321385  80.4053974  38.5657907
  48.0264812   8.2989499  45.4356146  48.3966856   9.1775987  45.5201340
  47.2918122   8.4056851  44.8313808  69.7461670  13.3590981  57.1387100
  69.5722835  12.9596898  57.9910421  68.9830392  13.1317517  56.6075039
  17.4834543   6.6489217  45.8105898  16.5580385   6.8683049  45.7023907
  17.8035717   7.2747037  46.4603281  21.3038254  35.8246946  41.5666580
  22.2153258  35.5467200  41.6568089  20.7994628  35.1361251  41.9999266
  73.9847563   9.1585637  60.7850055  74.0701709   8.8324166  59.8891465
  74.8779342   9.3861295  61.0432283  76.8655673  58.0179119   7.1683675
  76.1342850  58.3561802   7.6851189  76.8403247  57.0713758   7.3085958
   7.4879587  57.9626513  12.7175856   6.8203664  58.4767675  13.1717157
   8.3177567  58.2776880  13.0759418  60.2587751  69.3353796   5.9292048
  60.5228165  69.0345049   6.7986804  61.0629585  69.6793270   5.5403334
  74.4979909  67.6770544  40.2492571  74.9405232  66.8522644  40.0489616
  74.7485128  68.2629013  39.5349336  56.5756348  60.9101105  26.7941976
  56.5809038  60.1656437  26.1925554  57.2578934  60.7059956  27.4338007
  16.5656715   7.7281377  31.1420083  17.3747306   7.5523946  30.6616211
  16.2277930   6.8613526  31.3672948  54.4467688  66.0027695  42.1813488
  54.7627354  66.7739344  41.7104959  55.0762749  65.3150988  41.9644070
  87.8828643  58.4226179  59.3920183  88.7504073  58.5422087  59.0056276
  87.4545170  57.7812481  58.8251066   8.7074262  74.5159245  45.4957247
   9.2359853  74.8532057  44.7724676   8.0559105  73.9549255  45.0749588
  54.7844699  77.5123405  33.7917948  55.4769877  77.8424692  33.2193732
  55.0381139  76.6082907  33.9777756  32.0098787   7.1386144  46.9446993
  31.8456403   8.0813119  46.9206142  31.2444123   6.7733952  47.3884439
   1.2472619  34.5546007  41.8301582   2.0682386  34.3494654  42.2775364
   1.5102220  34.7766662  40.9369802  84.4236773  59.2891932  39.4399261
  83.6324239  59.8186398  39.3407464  84.8047644  59.5808554  40.2681398
  80.7736382  50.8415604  43.7185097  81.4852181  51.2746572  43.2470036
  80.8090380  51.2134838  44.5997858  45.4051542  70.5419254  57.0847082
  45.3531885  69.9994755  56.2977648  45.7795572  71.3689470  56.7812395
   9.4089103  78.9899015  18.0150712   8.5945255  79.3019342  18.4095907
  10.0839305  79.2017269  18.6598253  40.6648736  20.0980756   7.1095693
  39.7438174  19.9014565   7.2805327  41.1429816  19.3707749   7.5079012
   3.6398914  27.0568728   5.5187136   4.1144764  27.6227784   4.9098206
   2.9843992  27.6297116   5.9167284   5.1642603  74.0137196  47.8492451
   4.9000341  74.6337700  48.5289192   4.3475577  73.7788153  47.4087334
  36.8080664  82.6518059  45.6260109  37.0937443  81.8137264  45.9896517
  37.5403118  83.2460880  45.7899475  60.3657010  82.9676819  13.4074330
  59.8639181  82.1850395  13.1796074  60.1360825  83.1421375  14.3201602
  80.4921017  44.0976382  59.5640437  80.8058057  44.5550300  60.3441815
  79.8512898  44.6946479  59.1778247  48.2400434   8.0355641  42.0576859
  47.5813728   8.0451295  42.7521610  48.4605961   8.9573667  41.9240522
  75.7102910  72.2293568  41.6502476  75.6589523  73.1813669  41.7354965
  75.4135981  72.0524740  40.7575464  79.7321352  78.7414122  16.4918053
  80.4946014  78.7557077  17.0703137  79.2136732  77.9970026  16.7972279
  61.7934278  59.5246840  18.9592946  61.7887500  58.6414385  19.3281949
  61.4558247  59.4147682  18.0703771  70.4345039  47.0099545  46.1877489
  70.3924957  46.0737896  45.9926653  69.5192292  47.2863531  46.2336493
  34.1313579   0.5330464  14.1623926  33.5720705   1.1845586  13.7393594
  34.1381838   0.7863519  15.0854409  15.5273640  83.3939934  11.8493187
  15.6153297  82.5313282  11.4439738  15.3272545  83.2082653  12.7667570
  45.3376770  55.1809740   2.0581380  46.2640572  54.9848843   2.1981384
  45.3313732  56.0735607   1.7124711  42.9533911  72.2163582  10.0007665
  43.0389357  72.2476625  10.9536219  43.7653542  72.6043129   9.6745187
  26.3476706  63.7446499  41.7494917  25.4627395  64.0593243  41.5648031
  26.2827110  63.3415413  42.6152420  55.2858714  38.0292369  68.4934710
  56.1082021  38.4592677  68.2587786  55.3330106  37.1734096  68.0673630
  56.9204715  60.0439167  13.8659096  57.4426726  59.5191193  13.2591772
  57.5633553  60.4416990  14.4530225  39.3116570  79.4912529  47.1025658
  39.0823603  80.3329468  46.7085886  39.9434066  79.7114134  47.7871466
   7.3769038   7.0400521  42.5513458   6.7058699   7.4876496  42.0359850
   7.0563524   7.0844933  43.4521818  20.9852254   4.7028253  56.5371275
  20.8261543   3.7664697  56.6561747  21.3308536   4.9961278  57.3801851
  30.0096952  15.9007451  47.4227047  30.7192065  15.6451127  48.0121803
  29.7506427  16.7718026  47.7233362  86.4139971  61.8467712  14.3890011
  85.9962259  61.0581493  14.7350907  87.0045357  61.5255976  13.7075734
  79.0658829  72.3670626  14.1018510  79.3937537  72.7521086  13.2891560
  78.5049322  73.0449104  14.4787979  21.6401755  29.0404698  19.7000074
  22.2592514  28.4632203  20.1469588  20.8778619  29.0678021  20.2782488
  39.2025518  68.3012295  45.6672144  39.9685097  68.3044052  46.2412596
  39.4749165  67.7869129  44.9072599  59.6630621  67.6144791  27.5369191
  60.1459742  67.9346132  26.7749882  59.5679474  68.3825064  28.1002283
  30.6466088  24.8059270  11.6651058  30.2413684  25.5319974  11.1909389
  30.2532018  24.8400399  12.5370574  30.9190715   2.4817750  33.6617661
  30.1432913   2.4209306  33.1043649  30.5730086   2.4864289  34.5542073
  67.7638343  25.5222344  32.1510720  68.0888394  25.7893443  33.0108714
  66.8155482  25.6403399  32.2061872  82.1156469  62.6261568  19.5208895
  82.5235465  63.2714462  20.0983429  81.2159321  62.9349947  19.4142878
  62.3055935  74.7303677  39.2091107  62.4111271  75.3712273  39.9122429
  62.9446507  74.0467119  39.4102478  53.3811668  55.4440308  63.2984877
  53.0298737  56.3279438  63.4058380  53.8306072  55.2630234  64.1240025
  69.4066542   2.7517602  30.6317401  69.2075198   3.5775849  31.0728621
  68.5596054   2.3134992  30.5501008  87.1659551  53.7081958  59.3914108
  87.7570353  53.7113620  58.6385195  86.4593611  54.3045093  59.1436927
   2.8594954  66.8947168   1.1922701   2.1573479  67.4930998   0.9370001
   3.1974752  67.2574659   2.0110567  85.5702135  47.0741081  44.6615314
  85.5373541  46.1190176  44.7158909  86.4359866  47.2637892  44.3000221
  35.8942186   5.7216260  31.6541743  36.3606273   6.1279962  32.3846221
  35.5219238   4.9208638  32.0235229  75.2040652  47.9803467  54.5849323
  75.1349726  47.2233963  54.0031385  74.5820931  47.7985144  55.2894306
  25.7026511  27.5711820  24.1943002  26.0159992  26.6958615  24.4220304
  26.2034299  28.1594178  24.7594857  60.4207710  66.5801096  17.6244485
  60.0358513  67.0753813  16.9014168  60.8364633  65.8271074  17.2044277
  51.1313885   6.3644978  29.6201444  51.7697375   6.9137475  30.0751901
  50.3401559   6.4230248  30.1556420  15.8431768  73.1386137  44.5044279
  15.1028538  73.7441587  44.4660997  15.5248809  72.4040890  45.0292110
  50.8069890  14.7166821  55.7349873  50.4018944  15.5740258  55.8656979
  51.5260284  14.6927545  56.3663673  20.1992917  58.2131338  30.7304192
  19.4020319  58.3124685  30.2100897  20.7476926  58.9539433  30.4721832
   0.7373562  75.4537344  34.2286181   1.0055785  76.2781620  34.6343422
   0.4477336  74.9095201  34.9608612  32.9696512  62.8042078  43.4060192
  32.6643038  62.3707294  42.6090956  33.3378220  63.6336279  43.1014824
  12.6632555  42.9722830  13.7866028  13.3791931  42.5237985  13.3365734
  12.8873785  43.9009710  13.7270840  68.4022799  54.9835157  42.8811836
  69.2706958  55.1376057  43.2531309  67.8139189  55.5134869  43.4189510
  63.4971741  50.2698708  15.4813421  63.2814291  49.9373674  14.6100628
  64.3254450  49.8438120  15.7019711  82.6906470  44.8415756  31.2365937
  82.0400253  45.5435753  31.2256145  83.4823892  45.2541876  31.5817428
  53.0824368   8.2260987  41.9042540  52.6297706   7.3858544  41.8312979
  53.1914776   8.3584401  42.8459692  50.6795233   3.1634328  42.8203535
  50.1978891   3.0026814  42.0089245  51.6003626   3.1471154  42.5595522
  18.6331213  82.1934700  10.3580034  18.7538481  83.1248093  10.5431306
  17.6894557  82.0947647  10.2315831  35.8115172  10.6379601  30.2415109
  36.4640140  11.2015340  30.6572819  35.2575033  10.3402612  30.9630895
   4.5855179   5.6966397  54.6865797   5.4130592   6.1776158  54.6946192
   4.0880623   6.0636613  55.4173803   1.5529351  77.9590988  66.8730831
   2.1408287  78.3354998  67.5280142   1.5694553  78.5845995  66.1487150
   6.7496830  79.5804310  26.7744684   6.4902180  78.8710785  26.1864829
   7.5048071  79.9829674  26.3455343  30.7708406   5.8673379   7.1356869
  31.6557883   5.5494496   7.3147112  30.2662313   5.6202027   7.9106236
  75.9610792   2.9198548  23.0486298  76.1497637   3.4502122  23.8228035
  76.7976423   2.8640840  22.5868082  86.4585002  73.3841658  14.5360124
  86.7845211  73.2981205  13.6401665  86.4098513  74.3286800  14.6835041
  36.0530489  12.5600430   6.3996249  36.2614011  12.5431058   7.3337203
  36.4902156  11.7869374   6.0426581  11.4755440  48.0686378  28.3652353
  11.2280703  47.4134111  27.7128029  11.4486861  47.5987434  29.1987252
  52.3227501  43.0812502  48.5339260  53.1178522  42.6252317  48.2580900
  51.8452930  42.4360561  49.0554571  30.2534357   5.1418206  27.2216988
  30.8877318   5.6949708  27.6776862  29.5229856   5.7279679  27.0239544
  23.4291196  54.9637604  35.7711649  23.5487556  55.2366638  36.6808033
  24.3072748  55.0019026  35.3921914  27.6694331  75.6221542  21.0011888
  28.4115873  75.3973922  20.4400110  28.0611239  76.0827574  21.7432499
  79.0216265  22.1122361  66.9674866  78.2881580  21.6600276  67.3843334
  79.3915258  21.4653970  66.3666497  69.9230728  73.8908222  41.5412807
  70.5915628  73.8242975  42.2231388  69.1084705  73.6449662  41.9796991
  20.1683068  17.8228176   6.2666702  20.0014019  18.2439911   7.1098709
  20.1418757  18.5387945   5.6319183  76.9134477  47.5498009  15.4177070
  77.8593925  47.4516630  15.5262804  76.5460149  46.7425728  15.7777166
  86.8609838  42.4574041  70.5534792  86.8515869  41.7176485  69.9461079
  86.0184155  42.8904772  70.4165173   0.3700774  68.2246637   8.4722573
  -0.3326835  68.2120848   7.8224874   0.5362593  69.1544819   8.6273587
  57.2265175  23.1709051   5.0440162  57.4827245  22.2523427   4.9613512
  57.1966055  23.3272052   5.9878951  77.3343745  17.7423310  23.8819575
  77.0824841  16.8228185  23.9672852  77.2351566  18.1006873  24.7639847
  66.8555310  29.8041201  35.6190562  67.7059606  29.7850609  36.0579586
  66.4721349  28.9464211  35.8023357  12.6705039   9.0987241   4.2060015
  13.1911635   9.6260875   4.8118347  12.4861360   8.2924640   4.6878567
  24.1878939  20.9023643  24.3852043  23.9904785  20.2483654  25.0556850
  23.3346820  21.1349320  24.0189028  35.9877205  48.6451101  45.7189322
  35.9161139  49.1750717  44.9250555  36.8685818  48.8242960  46.0478830
  75.8142391  38.6353278  44.0087509  75.3210703  37.9542136  44.4660282
  76.6114536  38.1959510  43.7127304  32.6172920  10.3644654  43.8132668
  32.8563803  10.8246705  43.0087280  33.4509148  10.2100465  44.2576313
  25.2465224  36.2891579  60.5506325  25.1392961  35.6526542  61.2574530
  25.2785516  35.7593703  59.7540569  80.7536575  50.7097387  38.1595826
  80.1541641  50.7834291  38.9021516  81.2827537  49.9363089  38.3547449
   4.3871206  78.5030317   3.3356178   3.8759857  77.9082489   3.8844398
   5.1478797  78.7286711   3.8709360   4.9314669  55.0531960  66.7144871
   5.5325431  54.7554922  66.0316133   4.7861454  55.9788322  66.5187645
  43.3054743  25.1121427  70.2757260  43.2484088  26.0350372  70.0282639
  44.0909694  24.7931434  69.8313509   1.3598801  42.4801397  31.5024614
   0.6728575  43.1256151  31.6685581   1.1739542  42.1536064  30.6220984
   3.6374477  55.6422186  12.1118152   4.0481645  54.8447323  11.7778111
   4.2934999  56.0230875  12.6955676  43.2853411   5.7334233  51.8300859
  43.3142350   5.5649425  50.8882706  43.7972615   6.5338756  51.9460241
  13.2534170  41.1236143  23.2751632  13.9598012  41.6190910  22.8607273
  13.0830979  40.3996801  22.6725507   8.4823954  29.1782212   2.7304551
   8.3669651  30.0908232   2.9951552   9.3887371  29.1298270   2.4264249
  56.4252936  21.4231397  68.2936696  55.6819133  21.9029714  67.9284618
  56.6175207  21.8704225  69.1178165  35.5855404  11.0305306  18.6758387
  36.2260347  11.3472268  19.3127882  35.8945870  10.1558206  18.4400475
  61.1808698  82.7741818  52.8782646  61.9491379  82.4488262  52.4090723
  60.4392474  82.5188450  52.3296015  23.0530177  71.9282560  71.6005284
  22.5525092  71.2459473  71.1531140  23.9625041  71.6356639  71.5417280
  56.5924433  30.6868935   2.6546603  57.5079063  30.8808923   2.8559706
  56.2570146  31.4936686   2.2637203  47.8703080  71.7909542  36.5905547
  47.0747624  72.2526672  36.3256764  47.5764773  71.1711350  37.2581768
  26.1349320  55.0338745  34.8655653  26.6192842  54.7485113  34.0908384
  26.7876530  55.0445986  35.5656147  72.8167599   2.4395749   7.4569923
  72.2726934   3.2245824   7.5201404  73.6387937   2.7479264   7.0756733
  11.3023210  52.1574736  65.0299454  11.5182912  51.2379789  65.1852608
  10.4912961  52.2988033  65.5183077  14.2925894  54.1878986  30.2020025
  14.4051969  53.3170176  29.8210645  13.4140909  54.4555902  29.9321628
  11.8818550  58.0277864  60.9165327  11.8883293  57.4578993  60.1474957
  12.3421388  58.8177542  60.6331245   5.0776684  24.8869514  53.2341385
   5.9533763  25.1093054  53.5502481   4.9995521  25.3496242  52.3998356
  11.2714279  56.8950033  68.3591700  11.8425143  56.1268568  68.3522892
  11.5958560  57.4410772  67.6430845  17.3272288  44.1546249  26.0953689
  17.2336388  45.0610638  26.3883543  16.4404500  43.8887644  25.8521128
  19.6435392  48.4208632  45.9452200  19.0497983  48.0065632  45.3190708
  19.1209447  48.5205460  46.7409515  26.8206476  62.6784901  58.8363473
  26.0439258  62.1713452  58.6002557  26.4963149  63.5708789  58.9575152
  32.9098535  58.4880257  33.0556607  33.0460739  59.3720770  32.7148914
  32.1396017  58.5644436  33.6187792  59.8842729  27.0765115  58.7815444
  59.9893610  27.9531718  59.1512076  59.3106167  27.2024728  58.0257122
  44.5648861  52.7909279  29.8312044  44.0586519  53.5587835  29.5659542
  43.9243126  52.0802784  29.8608589  87.2852693  73.3986998  11.9572151
  86.7258245  72.6374149  11.8032598  88.0597359  73.2398462  11.4175868
  83.3693096  50.2858829   5.6958890  83.7159836  49.8371506   6.4670491
  83.0523333  49.5811415   5.1310056  51.0773914  10.4449746  34.8941278
  50.3180402  10.3958604  35.4748225  50.7233160  10.2724359  34.0217209
  84.0958560  29.3524885  43.3127308  83.3620370  29.0645552  43.8557196
  84.4729960  30.0905371  43.7915659   5.6237179  39.9983931  29.7196245
   5.5168831  39.2108583  30.2531099   4.7324637  40.3225422  29.5899105
  87.6775231  52.6080322  22.2529316  87.0920515  53.1046724  22.8245974
  87.0945096  52.0439768  21.7448282  82.3066017  57.9731607  10.2910793
  83.0813244  57.8684473  10.8434129  81.8945083  57.1092081  10.2902329
  62.1630920   3.5708286  66.3630603  61.4884506   3.5260059  67.0406161
  62.7027787   2.7941800  66.5106831  81.5249429   5.0301219  59.3134813
  81.1684714   5.7871534  59.7783045  81.3044796   4.2824031  59.8689513
  80.4835311  42.3543835  45.9523535  79.6007183  41.9848680  45.9704685
  81.0557565  41.6183567  46.1692619  80.1582113  49.5849371  16.4754367
  79.7156671  49.8128986  15.6578660  79.4995812  49.7338057  17.1538734
   8.6531800  64.0598345  51.6056108   9.3338174  64.6151543  51.9858599
   9.0772378  63.2103157  51.4842749  14.7613621  39.1139865   3.9184901
  14.1084516  39.7875047   3.7279341  14.3648839  38.5851312   4.6108410
   5.5554157  51.1264181   8.9270347   5.0198269  51.4855623   8.2196522
   6.4405465  51.4389086   8.7396181  10.9404230  72.1091700  49.0494251
  11.7624938  72.4635124  48.7104940  10.3280437  72.8437090  49.0084648
   0.5118724  47.3816538  25.5915499   0.9287755  47.0598459  24.7922611
   0.3520297  46.5943623  26.1119866  27.2469926  44.0988159  21.8276310
  27.6560378  43.3470297  21.3989925  26.3247633  44.0448856  21.5770006
  82.6001766  32.5203204  14.0803564  81.8791029  32.9534960  14.5371330
  83.3854193  32.8055501  14.5475507   7.4053764  20.4128480  24.8210502
   6.9822735  21.0676575  25.3764224   7.8480762  20.9236169  24.1432858
  74.8191515  38.3565879   3.3029673  75.1374844  37.6869392   3.9083323
  73.8911286  38.1528163   3.1868482  37.2685895   4.2211105  64.4440053
  37.2246847   3.9193202  65.3513239  37.0946465   3.4376479  63.9223157
   8.9194542  68.9293194  42.5628185   8.9147645  68.8410234  43.5159254
   9.7857130  69.2819786  42.3592091  18.9601767  77.1632338  10.6554186
  18.6384034  76.2843180  10.8559239  19.7271192  77.0169735  10.1016688
   3.6996896   9.0254308  60.2785305   2.8785998   8.5350753  60.3184871
   3.4872825   9.8793460  60.6552796  31.8772435  69.2989540   8.7585390
  31.5659976  68.7004471   8.0794585  32.3176765  68.7333059   9.3928069
  36.1246634  31.4482832  16.1352479  35.6188178  30.7327533  16.5204358
  35.9770036  31.3658953  15.1931012  71.9449959  70.7327605  66.0982673
  71.0362468  70.6148483  66.3748584  72.1920512  69.8883868  65.7211362
  28.8912344  58.9050579  32.6715469  29.4753814  58.4519434  33.2795691
  28.4539604  58.2022476  32.1908355  42.4489973   6.2231876  71.3358275
  43.1700764   5.6457378  71.5864809  42.4475894   6.2030555  70.3788404
  85.3182826   5.6367780  59.3665485  85.2830086   5.6370879  60.3230981
  84.6682368   6.2879707  59.1026942   2.8838110  57.0444918  42.2519922
   1.9944328  57.2032738  42.5682640   3.2920969  57.9101753  42.2406292
  19.9223685  26.4158535  27.3795128  19.7636318  27.3230577  27.1187139
  20.8710408  26.3091016  27.3098207   1.1861058  56.8636036  11.0011661
   1.6100296  57.7218103  11.0015893   1.8766002  56.2552547  11.2645304
  55.6503935   5.0316478  67.5299723  55.5098448   4.6112491  66.6815953
  55.4923076   5.9613038  67.3657222   4.5661864  45.8647346  18.7169838
   4.9937043  46.5593863  18.2160652   3.7383759  46.2506771  19.0033603
  39.6486316  29.0302278  61.6993753  40.2032957  29.5210601  62.3057298
  39.1859684  29.7030402  61.1998765   2.3530757  57.9078865  34.3334723
   1.7299555  58.4341002  34.8345256   3.1673336  58.4103489  34.3608570
  25.5274820  32.4950719  10.9149098  24.7268558  32.5279498  10.3913176
  25.4277825  33.2044744  11.5497661  48.4369550  12.9608394  69.6071860
  48.9631186  13.7369634  69.4147937  48.1828091  13.0650426  70.5241285
   9.3514615  21.2382722  39.6548700   8.5326588  21.5216303  39.2480516
   9.2472678  21.4574623  40.5807924  57.3898217  19.0014554  60.1284162
  57.0589823  18.2590343  60.6339733  57.6957440  18.6151315  59.3078081
  56.7817095  50.8048296  23.9380074  56.4630392  51.5982437  23.5076904
  57.6178530  51.0623169  24.3263292  82.2418800  78.1818151   1.4075534
  82.6541230  79.0418911   1.3266057  81.3064680  78.3533812   1.2989245
  14.3149662  31.2963176  29.6940112  14.0871286  31.1904263  30.6176496
  14.5901263  32.2099948  29.6184206  11.5627081  32.8162433  67.8732948
  11.4523298  31.8654348  67.8764836  12.4388725  32.9544450  67.5134690
  55.5394716  18.9496423  68.0466081  56.3224655  18.4213210  68.2016138
  55.8620603  19.8499633  68.0066995  86.0167931  35.1528573  20.0084186
  86.1032224  35.8777308  20.6275463  86.3613577  34.3937421  20.4787922
  77.7494040  52.0841551   7.5035334  77.6350251  52.2736549   6.5722764
  78.1377509  51.2095165   7.5240403  30.5055213  74.1622257  25.2234364
  29.7768044  74.7524405  25.4154110  30.7723093  74.3926430  24.3335104
  25.0602293  47.9033709  35.4123616  24.9058342  48.4980965  36.1463213
  24.3516922  48.0929565  34.7973299  14.2252064  67.2207975  11.8848622
  13.7945032  66.4239359  12.1942818  14.0203631  67.2564125  10.9505165
  13.9327090  11.9836518  27.8493762  14.5516675  11.2877557  28.0703712
  13.4973293  11.6736791  27.0552778  25.2171087  74.9679852  12.5458813
  26.0224676  74.4574165  12.6292503  24.9955821  75.2142286  13.4439468
  27.8410149  56.7162565  52.9214243  27.2160025  57.4393586  52.9735188
  28.1737446  56.6224937  53.8140218  29.7528553  42.3103380   4.2188343
  30.2949071  41.8371391   4.8500994  30.3476071  42.5126934   3.4966475
   5.8862084  51.6632795  32.8258300   6.6783077  51.2768459  32.4523592
   6.2028521  52.3987770  33.3502436  82.6514933  65.2451849  38.8426256
  82.4127790  65.3487444  37.9214716  83.4683064  64.7464943  38.8237715
  17.9709077  51.9596148   0.2156611  18.5299075  51.4575577   0.8086962
  17.2616374  52.2828341   0.7712674  20.8020663  61.6775370  27.1145034
  21.7367554  61.8527794  27.0055175  20.5325341  61.2892437  26.2821507
  79.4561789  45.2450514  33.0845594  79.9731574  44.4488716  33.2072902
  80.0934926  45.9045935  32.8105688   1.7640693  29.5088100  21.9991183
   1.3013312  29.3551111  22.8228188   2.6513553  29.7508359  22.2644091
  70.1837107  37.1491239  17.3969948  70.4576250  37.4695107  16.5376031
  70.8560368  36.5129468  17.6408899  46.6401958  16.7645919  13.3245635
  47.0968914  16.5654409  14.1418755  45.9574938  17.3862207  13.5770071
  40.7028294  36.8677163  20.9383345  40.6250048  36.9836426  21.8852973
  39.9180603  37.2831702  20.5808830  26.9520926  67.1229267  26.8046689
  27.2435689  66.3826656  26.2724161  26.0692573  67.3131323  26.4874029
  62.6271275  34.3527722   3.0321294  62.7272728  33.4069657   3.1400818
  61.7762020  34.5497680   3.4237313   8.6576122  19.8138082  51.4500093
   8.9313936  20.4911184  50.8315229   9.0240347  20.0933027  52.2889662
  43.3410030   4.6018216  18.0060220  42.4262398   4.7107408  18.2659805
  43.7560254   5.4330823  18.2362485   6.2578475  32.6173091  15.0602686
   5.9766221  32.8549552  14.1767144   5.8900124  33.3006406  15.6206143
  25.4017115  77.3718262  32.6135302  26.0116887  77.3161602  31.8779612
  24.9673176  76.5190172  32.6295185  20.4763341  66.8921757  12.4511516
  20.1661849  67.7839708  12.2938478  20.5647159  66.8336391  13.4024632
  21.2168288  30.6932664   1.3534716  20.6412458  30.3015065   2.0103280
  20.6537628  30.8275485   0.5911350  46.8521288  55.4821444  13.4227645
  46.7622307  54.6186638  13.0195856  47.4050549  55.3320503  14.1895628
  50.0399201   9.4452760  32.5370407  50.3810256  10.3236196  32.3685598
  50.6257050   8.8637921  32.0523095  25.8021808  61.5042734   4.2798120
  26.6685891  61.2070036   4.5576531  25.7940674  62.4400282   4.4811475
  -0.3222345  62.4987221  24.3115020   0.5279652  62.1424150  24.5692563
  -0.1237648  63.0911350  23.5863185  34.9921942  50.6014204  27.3267698
  35.4750609  50.1729393  28.0335045  35.6680417  51.0241652  26.7969131
  85.2049321   9.0473419  29.4996667  85.0005770   9.3587929  30.3814101
  84.8058915   9.6948099  28.9184761   9.4365018  -0.0707629  47.3186350
   9.8796111   0.4181096  48.0120993   9.9464887   0.1160714  46.5304470
  85.9759674  34.6789981  53.6757986  85.0602637  34.9002696  53.5062138
  85.9390602  33.8348294  54.1255228  41.7744446  43.4997749  13.4538209
  40.8262205  43.5074663  13.3232820  42.0127296  42.5731659  13.4246480
  24.4063067  34.7104859  69.4492674  23.8585567  34.2514777  70.0860643
  24.1520452  35.6294942  69.5329714  17.8748474  30.3039266  58.7095193
  17.5726900  29.9924041  57.8563563  18.7403498  30.6743242  58.5364668
  30.4902194  35.4123589   1.8581216  30.2317982  35.3535649   2.7779007
  31.3542130  35.8238885   1.8779175  21.7244816  68.2541180  55.1508713
  20.9780192  68.8472271  55.2360010  21.5321875  67.5385809  55.7568884
  38.1132894   6.4809987  20.2432585  38.0243146   5.6334207  20.6790781
  38.0499201   6.2782189  19.3099320  85.9123257  70.4346323   8.2335043
  85.2748951  69.7572088   8.0076468  85.3807652  71.1980867   8.4589154
  77.9281715  66.5956402  28.4446359  78.5342726  66.0752106  28.9719176
  77.2728112  66.9059849  29.0694737   1.0617520  51.4714956   2.2790958
   0.7939564  52.3743248   2.1075882   1.9463353  51.5478802   2.6367399
  53.8310435  64.7459745  32.5914288  53.0683330  64.2759085  32.2544694
  54.5169929  64.5851851  31.9434714   9.3845117  20.3404069  12.1999502
   9.6538109  19.9639881  13.0378163   8.4278113  20.3268385  12.2277236
  52.0214180  11.9171954  69.7935940  52.5953511  11.8504478  69.0304579
  51.1540095  11.6851379  69.4619567   1.1810857  64.1065264  31.6872454
   0.6364745  63.3223295  31.7555261   1.4261934  64.1481733  30.7628965
  79.0564159  68.2001352  11.1963189  78.5753998  68.7883282  11.7784595
  79.9671456  68.4864712  11.2657106  76.6138783  42.2912169   3.4405413
  76.0617152  42.8087711   4.0266201  76.6583434  42.8072357   2.6355708
  10.0554895  63.2869387   2.6679039  10.5238712  63.2798243   1.8331584
   9.1310936  63.3314800   2.4234870   6.3267714  71.9198322  26.9266582
   5.4387319  71.7790031  27.2549629   6.8920648  71.5109873  27.5820374
  76.6308544  29.9517394  71.6443370  76.4319156  29.0661193  71.9482044
  75.7745598  30.3648139  71.5331663   9.3319905  77.6716709  31.5500355
   9.1550690  78.3181953  32.2333622   8.9436066  76.8615866  31.8804264
  15.6842363  59.8279524  14.0210056  15.5239975  59.6661949  14.9507308
  16.3761723  59.2096710  13.7860990  10.6273603  67.8688431  21.7061758
  10.6869745  66.9227743  21.8389606  11.0982275  68.0259752  20.8877468
  15.9604871  78.2544708  61.7470264  16.5703797  78.8448906  61.3046885
  16.5159822  77.7111101  62.3059702  68.8711706  64.3136358  27.6980686
  68.5796300  63.8893127  28.5050297  69.4351879  63.6651182  27.2767210
   4.7610033  76.6974735  39.4888186   4.5120794  75.7926083  39.3004322
   5.6033099  76.8108034  39.0484691  72.0038793  31.5807105  66.0506682
  72.3446677  32.3885394  65.6666110  71.9567297  30.9679271  65.3168372
  34.8635445  25.0061126   1.6561564  34.9144779  24.4875618   0.8531960
  33.9415131  24.9647756   1.9098862  11.0253382  67.5984812  31.0045481
  10.5032456  67.2296476  31.7170167  10.6400156  67.2299337  30.2096081
  74.2613259  41.3019419   1.4045809  74.6374682  41.3135386   2.2847024
  75.0166729  41.2201166   0.8223543  84.2656654  81.6349983  20.1171374
  85.1835653  81.7795563  19.8873639  84.2536220  81.6467476  21.0741901
  79.1203061  30.5086732  42.4230051  79.8136893  31.1024880  42.7108192
  79.5611468  29.6682143  42.2984314  19.1258955  60.0820923  16.4204466
  19.1676211  59.5816517  17.2353375  19.5655787  59.5274830  15.7759953
  86.2059126  11.0650016  55.7110659  86.6153202  10.4346372  56.3037376
  85.4091368  11.3385249  56.1655585  30.3906822  59.3456507  36.7746663
  31.0082316  58.7727404  37.2292376  30.6218410  60.2272081  37.0673418
  12.7916598  59.0809107  25.9850717  12.0473027  59.3275166  25.4361153
  12.8726053  59.7972822  26.6147494  37.7788220   8.3053399  70.7300380
  38.2366786   7.7369071  70.1107780  38.3071337   9.1030217  70.7586536
  73.8569859  28.3479309  29.5764828  73.8399461  27.5425005  29.0595436
  74.7848752  28.4955359  29.7594142  19.9915171  64.9443722  23.6847830
  20.7245541  64.3764973  23.4472847  19.3412745  64.7958660  22.9982257
  74.7717694  74.5268297  36.3666821  74.2732862  73.8570023  35.8986282
  74.2118958  75.3028297  36.3422418  40.9648418  53.7055922  16.9369292
  40.8295679  52.7607250  16.8651354  40.6760406  54.0536737  16.0933280
  14.4990230  48.1473255  21.4361048  15.2330053  48.1322956  20.8218765
  13.8184512  48.6458826  20.9838963  30.3006461  14.2939183  34.3638968
  29.5207679  14.7200868  34.7194338  30.5248532  13.6258313  35.0116706
  34.0643191  62.1202850  23.8279462  33.5149980  62.0105743  24.6041179
  34.1853499  61.2319374  23.4926581  20.8685017  73.5482836  42.4237680
  20.1338601  73.6172867  43.0334949  21.5550590  74.0893936  42.8137302
  16.5988290  61.1714268  18.3199728  15.7562137  61.2971592  18.7563479
  16.3855171  60.6874895  17.5221407  60.1619356   4.2882916  22.2827625
  60.7346981   3.6104199  22.6414537  59.3880670   3.8127896  21.9806862
  55.0581425  25.3979585  55.6876373  55.9810083  25.1473615  55.6457996
  54.7200458  25.2140424  54.8112249  72.7699092  60.7739210  51.4619398
  73.1509736  61.5966845  51.1552143  72.3035303  60.4276514  50.7011366
  49.7886133  39.0322495  21.5791059  49.1415787  38.3634353  21.3549066
  49.2809868  39.7237778  22.0037651   4.6759796  75.7831478  26.1361408
   4.9005315  76.6672611  25.8460474   5.0178277  75.2114582  25.4487228
  84.8516618  46.4153715   5.1738222  85.1668607  47.3143907   5.2668579
  84.4992815  46.3759180   4.2847164  52.6602047   5.6610677  23.3545494
  53.0941527   5.8834454  22.5308561  53.2265728   6.0317609  24.0313411
  39.8822808  62.1972561  39.3933773  40.3071308  61.3518476  39.2484069
  40.5628014  62.8430176  39.2033291  23.1360817  46.0808706  22.0627737
  22.7014685  46.4494228  21.2936735  22.4484539  46.0340595  22.7270079
  81.1910829  49.9981403   2.6130071  81.2849775  50.9493732   2.6637235
  80.7583013  49.7561932   3.4317821  30.4821014  63.9444923   2.8518584
  30.9138322  64.7195578   2.4925385  31.1939335  63.3230877   3.0047899
  34.7418332  18.5224390  48.4441233  34.7076130  19.1490781  47.7213573
  35.3042459  18.9398360  49.0965796  15.3481448  47.0959806  10.8160198
  15.9205937  47.4672890  10.1447046  15.8921814  46.4473152  11.2626624
   2.3520193  48.5893869  34.8966384   1.7786959  49.3407774  35.0481224
   3.2321253  48.9637041  34.8574829   7.7595359  61.9412279  15.4810929
   8.6034614  61.4977980  15.5670547   7.9808450  62.8192759  15.1707911
   0.1825388  52.2972918  28.6609960  -0.0930036  53.0976963  29.1078234
   0.0288575  52.4758720  27.7332449  10.4605603  58.7203550  42.2490740
  10.2832103  59.5080376  42.7632046  11.4116824  58.7136030  42.1415901
  77.5031117  55.8296633  29.3281436  77.3585644  55.1532650  28.6664605
  76.6571644  55.9203100  29.7667623   9.4582922   4.9283839  59.2403607
  10.3266794   4.6776534  59.5554296   9.2565996   5.7366420  59.7118167
  32.1561958  74.9797158  55.1151876  31.5156113  74.2685632  55.1030366
  31.6670440  75.7372216  55.4363529  83.0987045  49.6999216   0.8222864
  83.4160915  50.6028509   0.8076262  82.4153462  49.6971035   1.4925438
   9.7675234  40.9676170  20.9435987   9.4285005  40.0774717  20.8490372
   9.5153880  41.2270546  21.8298006  63.9135912  63.1916618   2.8550705
  64.3060234  62.9763317   2.0089835  63.0003408  62.9171467   2.7723154
  14.4034326  44.6857595  20.5096316  13.9123785  45.0619650  21.2400866
  13.8036716  44.7383595  19.7654867   3.7514815  36.5208554  17.7350891
   3.0049649  36.8058634  17.2081017   3.5239846  36.7745280  18.6295879
  80.2252308  71.1311483  31.8194866  80.0905821  71.7796278  32.5105548
  81.1067113  71.3097525  31.4918828  69.4347349  35.7028127  45.0224686
  69.7845009  34.9377728  44.5657349  68.5047308  35.7124305  44.7961235
  76.1484545   6.9769761   9.9488825  76.1347025   6.3926789   9.1908383
  76.6023796   6.4778039  10.6278551  29.1440685   1.9614312   9.5833164
  29.0122666   1.5433595  10.4342425  29.9013794   1.5107057   9.2097437
  27.0485711  56.1196089  38.0375314  27.5099421  55.7188225  37.3008227
  27.6231313  56.8304348  38.3218455  83.7112961  29.4006301  69.3575836
  84.3054471  30.0597049  68.9986448  84.1257820  29.1242601  70.1749280
  41.1019087  57.1936703  40.2659416  41.2661934  56.5494728  39.5772815
  41.8660545  57.7696514  40.2423573  86.7190252  12.7933980  50.1231830
  86.4847908  13.5181237  50.7029549  87.1628652  13.2110025  49.3850486
  57.0283186  28.1258203  58.1714300  56.4707860  28.5350658  58.8331751
  56.6895285  28.4520913  57.3377649  14.2921519  49.5842743  23.7435341
  14.5632076  49.0419531  23.0028248  14.9775255  49.4543409  24.3989849
  74.1652379   3.2091047  64.7601108  73.2605408   3.4125758  64.5227192
  74.4064377   3.8889171  65.3893248  86.7539938  32.5594401   7.2617167
  86.6746317  33.1523418   6.5144551  85.8814019  32.1780920   7.3586166
   4.5937642  63.4928989  66.5004444   4.9608958  63.3083344  65.6359291
   4.0148395  64.2421055  66.3598299   4.0399045  49.8757029  59.9935389
   4.3273291  48.9652157  60.0616026   4.8121804  50.3890371  60.2308369
  66.1211017  49.1093636  15.2391386  66.7759851  49.4556761  14.6329820
  66.2673357  49.5933914  16.0518885  66.7555373   0.9549424  31.6210723
  66.7188113   0.7957169  32.5642204  65.8602732   0.8042809  31.3176966
  37.7522372  27.8588864   0.5064510  37.7329790  28.7391087   0.8820549
  38.6814081  27.6306436   0.4786067  66.5215731  75.6965876   5.9453630
  66.7590094  74.7722387   6.0191244  66.1800003  75.9258413   6.8096554
  37.8809524  65.0298119  51.3838148  37.1831632  65.6742811  51.2655735
  38.2899857  65.2695084  52.2153568  45.5137711  26.3049409  54.0109444
  44.6608966  26.7054746  54.1794872  45.9788518  26.9480416  53.4758234
   7.4067444  55.2238655  52.1854401   6.4740992  55.0627327  52.3284101
   7.5307703  55.0944948  51.2451649  19.9128354  51.8499756  34.1053915
  20.1236010  52.5163889  34.7593784  20.2800870  52.1903706  33.2896137
  35.7990693  20.8128163  21.1706495  35.1501083  21.5146443  21.2207913
  35.4135828  20.1724240  20.5727077   1.2678606  38.4046460  53.7058977
   1.7247111  39.0323116  54.2658524   0.6507332  37.9660608  54.2915849
  38.2260895  51.3640690  44.5698309  38.2104993  50.7978678  45.3414536
  37.5479674  51.0065174  43.9966440  12.4391711  66.1530828  36.2348938
  12.1443939  66.2182999  35.3265500  12.4211562  67.0539904  36.5578151
  13.8284361  60.6937790  38.4281087  13.1236863  61.3414526  38.4369802
  13.4108305  59.8896217  38.1196117  19.4949579  59.6050835   2.6052868
  19.1833138  59.5552015   1.7016152  19.5801651  60.5427361   2.7778462
  57.4357557  58.5515547   4.8305720  57.3354387  57.8950930   4.1412097
  58.0444002  59.1928816   4.4638488   7.3454660  75.5240107  20.1672387
   8.0332166  76.1821699  20.2675080   7.5277907  74.8807907  20.8522654
  88.0820995  39.8015904  35.7179809  87.9068657  38.9864588  35.2477860
  87.8061619  40.4907417  35.1136947  82.8593865  62.9845524  36.5285325
  82.1724865  63.4710932  36.0728192  83.6539584  63.4977531  36.3818741
  36.1724281  50.2111769  36.9186401  36.0187078  50.2216911  37.8633595
  36.9733953  50.7218170  36.8006134  48.9732986   1.7502782  26.9436765
  49.4633668   1.1914823  27.5468469  48.7823766   2.5397679  27.4501181
  51.6166919  15.2251336  53.0396652  50.8199280  15.3303906  52.5197411
  51.3142674  14.8556230  53.8692665  56.4903133  22.5366780  32.4352217
  57.3053568  22.1762368  32.0859146  56.7423838  23.3815381  32.8079295
  30.7384293  29.4434068   0.8416381  30.3081041  30.2245137   0.4938852
  30.3023026  29.2821214   1.6783044  52.8172016  57.0630074  13.7118685
  53.3721590  57.0846415  14.4914758  53.2373762  57.6692963  13.1018722
  18.5334134  68.0130529  37.7593303  17.5892925  67.8684616  37.6963878
  18.6330760  68.6335850  38.4813046   4.9153024  72.0948267  45.0908756
   4.2461491  71.6492605  45.6104279   4.6292186  73.0078840  45.0641870
  44.3015528  69.9184179   6.9131994  44.6209526  70.7354879   7.2960985
  43.6983061  69.5668125   7.5679523  29.8351996   3.1937787  39.0236473
  29.9800981   2.2506902  38.9473629  30.4885739   3.4858415  39.6592832
  47.8030014  33.7451434  19.3155491  48.5392904  33.1384063  19.3928957
  48.1637192  34.5018268  18.8534379  86.1852870  44.4587089  54.6656839
  85.7842217  44.6453620  53.8168363  85.4856429  44.0520622  55.1769237
  31.4959972   0.6711575  29.6871161  31.2397759  -0.2494529  29.6318460
  31.9354873   0.7470223  30.5340672  71.9455960  60.6543541  34.5231700
  71.8275061  59.8139191  34.9658394  71.2399939  60.6860113  33.8771415
  17.8158610  10.8936593  35.4052424  17.5117104  11.7919728  35.5346751
  17.6012318  10.6971738  34.4933438  61.4289682  27.6160523  21.8745208
  61.6546457  27.5934407  22.8044629  60.5609982  28.0187699  21.8484187
  58.4664583  71.8782806   3.1202927  57.7515888  71.3296604   2.7974904
  59.1930246  71.2699366   3.2553941  23.5413456  64.8418570   4.1317093
  24.1913509  64.3929672   3.5911354  22.7015400  64.6224356   3.7282109
  60.1255512  71.7376661  44.5776129  59.6855354  71.8948650  43.7422037
  59.5210505  72.0817661  45.2351856  40.7709949   8.5579392  43.4138346
  39.8378973   8.3502004  43.4629154  40.9078877   8.8324353  42.5071144
  84.0611699  31.8511295   7.2632444  83.3642125  31.8524814   7.9193544
  83.6015016  31.7929983   6.4256537   8.1020982  41.2972118  63.7510226
   8.1425411  42.0482112  64.3431358   7.2916157  40.8473636  63.9897428
   5.7352155  45.6155393  48.4711647   5.6522076  45.6079194  49.4247246
   5.1334017  46.3021943  48.1838369  16.1144810  29.0586659  20.1096988
  16.5095764  29.5677468  19.4019115  15.4296773  28.5447595  19.6817076
  47.7124357  56.9931793  28.0684853  48.4033251  56.5209675  28.5331607
  47.0107555  56.3503742  27.9651499  47.8993273  78.3356047  30.1711941
  48.5782957  78.8565969  29.7424746  47.8491068  77.5333500  29.6514821
  21.2338305  57.9550362  20.3079963  20.6603241  57.5820589  19.6385098
  21.2885213  58.8844776  20.0857925  18.9750290  52.7263451  60.0202322
  19.1762137  51.7905664  60.0114202  18.5432327  52.8864098  59.1810846
  22.1530509  55.1853371  24.3164825  21.7596102  55.7964945  23.6936474
  22.6327372  55.7431126  24.9288726   5.2675003  78.1224346  24.6260428
   5.8984059  78.4698677  23.9955831   4.5408440  78.7451601  24.6056843
  76.7036574  75.5122213  70.5735890  76.6929381  76.2522487  71.1806123
  77.3791878  75.7370238  69.9337791  69.4187307  52.5439310  18.1799722
  70.3191948  52.2459364  18.0511332  69.3508244  52.7008867  19.1217709
  28.5778570  30.0708246  34.8776150  29.0917540  30.6761956  34.3431354
  28.4999084  30.5072713  35.7259488  21.6864627   1.2095735  17.8983581
  22.0968037   0.3522965  18.0120373  21.0387283   1.2601754  18.6012888
   4.3767914  39.4663382  25.9722281   4.7316223  40.1890945  26.4898634
   3.9509290  39.8913813  25.2277756  52.9142950   6.2730600  70.6223032
  53.3858959   6.7669488  71.2930500  52.9665450   6.8217803  69.8397357
  23.3023000  71.1448193  31.2485003  23.6821556  70.4054737  31.7231679
  22.7823400  70.7414865  30.5533767  67.2298728  37.6847025   0.7352694
  67.8348224  37.4346681   0.0368746  66.3603155  37.5438638   0.3607472
  37.5659347  62.9571819  49.7087145  37.5030684  63.4349489  48.8816547
  37.6321554  63.6405802  50.3756571  50.3771828  47.8346587  45.7694690
  49.8632477  48.2146407  45.0569288  51.2040512  47.5808479  45.3594701
  56.8107050  11.2603185   7.8864580  55.8734124  11.4178082   7.7728242
  57.2294729  11.8336865   7.2444969  11.0653288  16.5752221  57.7458481
  11.1138613  16.9249393  56.8561439  11.3171227  17.3095084  58.3058934
   3.1859314  65.5379295  29.9849319   3.4030321  65.9938669  30.7980871
   3.3279356  64.6124840  30.1839733  63.7585110  67.5308944  57.9023222
  63.1985221  67.1014835  57.2556035  63.6997122  68.4622432  57.6893262
  84.5053735  74.1441298  53.5400248  84.3578598  73.6521530  52.7322912
  83.7406275  74.7147703  53.6159563  21.7002249  71.3447857   2.0636865
  22.5291467  71.5448856   1.6288514  21.0298371  71.5921307   1.4267924
  63.4171107  71.9020844  29.9934483  62.9867271  72.1293831  30.8176684
  63.3475331  72.6941633  29.4605279   0.5366548  62.9975319  57.1278048
   0.6804010  63.9393854  57.0357275  -0.0932689  62.9203081  57.8443718
  16.2562656  49.3210697  26.0052228  15.5866945  48.9077187  26.5502405
  16.5572143  50.0688601  26.5214324  32.9092056  69.3070270  58.1752316
  32.4375612  70.1052333  58.4132318  32.3092396  68.8382770  57.5951020
  54.1807152  33.5899688  56.5999464  54.9720857  33.9318849  56.1839442
  53.9031203  34.2862369  57.1952466  84.6775144  54.9180079  26.0902858
  84.4606996  55.6359100  25.4954433  84.9835125  55.3512812  26.8870759
   4.1920883  60.4860164  70.3261286   4.9521429  60.1705981  70.8150670
   4.4490845  61.3552333  70.0184767  70.6298845  24.2813489   8.9035892
  70.1927917  24.1970155   9.7509778  70.8222311  25.2157495   8.8252521
  12.2836173  41.3314295  27.2526670  11.9293392  40.6238270  27.7912021
  11.6767967  41.3981390  26.5154099  67.7472738  37.3634244  61.2859313
  67.1237383  38.0859042  61.2120668  68.4392134  37.7014018  61.8544583
  35.8491993  74.6513128  22.4218035  36.5255642  75.3001451  22.6161718
  35.9276938  74.4982195  21.4801931  84.3014672  56.6191149  18.0745471
  84.1811642  57.5569868  17.9257286  84.6595883  56.2898016  17.2502089
   2.2177431  76.4511681  28.6765313   2.4671957  76.3552666  27.7573943
   1.6112348  77.1916580  28.6840963  21.1373949  30.4573250  15.8236933
  21.7408943  30.2386642  15.1136160  20.3008699  30.0797462  15.5518639
  65.5176704  11.6341207   7.9974061  65.8732121  12.5143716   8.1197882
  66.2600201  11.0515305   8.1578326  39.1155124  67.1584177  34.7867942
  39.5848036  67.4823856  34.0180016  39.2227626  66.2079573  34.7499466
  87.7926264  45.4574157  71.8354905  87.4940381  44.6586944  72.2703704
  88.6716495  45.2450134  71.5217430  23.6009479  38.3908558  23.4433079
  24.5498991  38.3986187  23.3181643  23.4095526  37.5115037  23.7694025
  82.2655425  22.1242286  34.2522685  82.9323182  22.6162816  33.7731783
  82.7634988  21.5263797  34.8098103  52.8839636  75.0055742   3.5875830
  52.9542637  74.7216940   2.6761556  52.4088621  74.2977810   4.0229371
  63.9375666  77.4902248  34.6675229  63.5087541  77.2707033  35.4946637
  64.7247341  77.9697466  34.9257064  14.5215637  38.9902641  72.0874807
  14.8418028  39.3640376  71.2665230  13.8847954  38.3286954  71.8171435
  32.4866819  67.0239973  36.3368392  31.9047070  66.7965221  37.0619535
  33.3620238  67.0269346  36.7241335  28.3400631  60.8952570  35.5548501
  29.1827226  60.7965708  35.1116562  28.3086824  60.1665688  36.1747360
  19.6412027  81.3570499  34.4847965  19.7749698  81.5651798  33.5601234
  20.1673794  80.5711079  34.6319485  52.7661851  78.4620810  10.3318202
  53.7023881  78.5478306  10.5118334  52.3388818  78.8371944  11.1018419
  26.8328916  29.7831151  47.9678535  27.3710238  30.3732392  47.4402189
  26.3516688  29.2601296  47.3266459   9.1198742  32.6854682   5.9210193
   8.3132166  33.0415416   6.2935066   9.4239247  32.0512319   6.5702718
  25.4740506   1.4198682   5.8739948  26.1280044   1.8456075   6.4283651
  25.9594249   0.7352349   5.4136550  64.1998891  69.9753047  63.5709361
  63.8461647  69.6334983  64.3920843  63.7964676  69.4337608  62.8925447
  53.2121532   1.4221761  22.4343967  52.9558819   1.6556928  23.3265996
  53.8346665   2.1026513  22.1781421  60.8062696  79.9030733  19.5619726
  61.5805817  79.4213152  19.8528004  60.1357889  79.6939039  20.2123070
  19.7549045  56.3019657  47.5717783  20.3326535  56.0894060  48.3047533
  20.3343487  56.6855907  46.9135141  28.8332796  50.9314251  24.1402459
  28.3800411  51.3643074  23.4167671  29.3251061  51.6322088  24.5683193
  13.4634590  66.4675188  16.1097038  12.9224384  67.1773195  16.4556956
  14.3340206  66.6312933  16.4723790  18.2682926  31.6868116  52.2528688
  17.8352196  30.8503295  52.0826237  19.0485746  31.4544584  52.7562610
  34.7310233  60.9156370  32.1585917  34.4567108  61.7414856  31.7598987
  35.6250906  61.0797834  32.4584842  29.2033434  79.8843575  44.8144913
  30.1000619  80.1912880  44.6806240  28.7586117  80.6201935  45.2351856
  23.4958392  24.6824929  36.3910627  24.2943012  24.1626260  36.2992573
  23.1394654  24.7327706  35.5041003  63.4386110  76.8169928  17.2859871
  63.0512190  77.6024580  17.6722622  62.6946926  76.3374949  16.9214332
  38.2339740  72.1417713  42.2996378  38.3538389  73.0653954  42.0787621
  38.9279151  71.6889095  41.8204784  83.7059849  11.8559071  24.0036011
  84.1904180  11.0469529  24.1684079  84.1487568  12.2515008  23.2528067
  68.2701794  78.1219436  72.1666278  68.1498615  77.3489143  71.6151036
  67.8666536  78.8347198  71.6712997  68.8663714  11.5471169  34.8932648
  69.6283691  11.0440251  34.6060634  68.3778136  11.7220113  34.0889287
  76.3820665  34.5046994  29.9006748  76.0329168  33.7776277  29.3852282
  77.2864788  34.2531201  30.0876999  39.4266176  50.2701426  21.8579412
  38.8931084  50.9162188  21.3951373  39.9048090  49.8140955  21.1654210
  34.9730904   8.7770749  67.1167750  35.3907854   7.9492189  66.8792520
  34.4305212   8.9974881  66.3596306   3.6649265  14.7266671   6.1256576
   3.4670295  15.0901410   5.2625471   4.4560613  14.2051312   5.9902591
  19.4100760  79.6132044  70.0462041  20.0264643  79.1267423  70.5936090
  19.7219531  80.5175452  70.0798705  21.7076962   4.3862817  59.3000937
  21.3467245   4.9846742  59.9542046  22.6528107   4.5334718  59.3365145
  48.1488609  73.6277580  13.9381540  48.7020874  73.0965281  14.5108402
  47.5390291  74.0649366  14.5324695  35.5024903  39.6794126  17.5691652
  35.1600283  39.9677274  16.7230988  35.8384823  38.7984845  17.4039471
  19.8642087  47.4151087  66.1053371  20.0417185  47.1006727  65.2188587
  19.8233700  46.6205883  66.6376019  85.7410703  74.1124011  65.1934610
  85.4418526  73.2901336  65.5815164  85.3986011  74.7906066  65.7756774
  51.1992996  19.7530457   3.5942581  50.8234804  18.9405438   3.2553816
  50.7350319  19.9067685   4.4170922  76.5926330  23.1577393  30.5185652
  77.5358694  23.0826756  30.6631541  76.1992805  22.6985738  31.2606335
  85.6264434  27.8237344  61.9042055  86.4933024  27.6801826  62.2839127
  85.7071219  28.6506368  61.4288596  22.7666157  22.4845883  27.0189977
  23.2721250  22.6802442  27.8079271  23.0480926  23.1437585  26.3845706
  64.6832722  21.7931172  39.9285340  65.4326909  21.3519380  39.5285797
  63.9365785  21.5337941  39.3886900  82.5176113  11.3392922  44.4506884
  82.9634302  10.5140492  44.2597818  83.0416267  12.0036981  44.0032482
  18.0131376  61.8525457  14.5809853  17.0930171  62.1059561  14.6544135
  18.1879795  61.3518047  15.3778005  84.3150602  50.5715228  63.0836926
  84.4712959  51.4374686  62.7069108  84.4995103  49.9624015  62.3687230
  30.5576992  60.3582144  55.6558990  30.9071398  59.6559811  55.1072693
  29.7493744  60.6246567  55.2178907  24.3457317  71.8995810  59.9323606
  24.2080927  72.1261501  59.0126038  25.2564406  71.6077662  59.9734545
  84.1515527  23.9245940  60.3493730  84.8674140  24.2105199  59.7819011
  84.3534265  24.3097497  61.2020962   3.3956271  47.4905682  32.3818445
   2.7434677  48.0970478  32.7327061   3.1711712  47.4073553  31.4550614
  18.7229431  47.3541498  13.1678414  18.1541657  47.7443027  13.8315475
  19.1383743  48.1021547  12.7387261  81.0825794   6.5928647  13.4225845
  81.7414730   5.9099671  13.5480773  80.8751457   6.5568444  12.4888253
  46.0279036  44.3099928  20.5838943  45.5141973  43.6043406  20.1909637
  45.5924892  44.4876194  21.4176154  12.8251743  79.5494413  38.8443899
  12.1655416  79.5800734  38.1514406  13.6497939  79.3952751  38.3834505
  26.2122846  70.7461691   7.7092922  26.5535808  71.3161564   8.3983946
  25.4313660  71.1980486   7.3895979  13.9868026   4.7486493  17.6664317
  13.1677776   4.4525048  17.2692788  14.4826739   5.1259038  16.9397807
  59.2865808  34.3849088  53.3550207  59.6912412  34.2675306  54.2144994
  59.2245760  33.4995319  52.9965572  27.2495789   7.6746461  10.6558979
  27.3657239   6.9301888  10.0655425  28.0973864   8.1189725  10.6507206
  62.3719529  16.0354377  60.3431515  62.5904460  15.1040317  60.3119699
  61.4510314  16.0741903  60.0850157  58.1553060  46.1372997  63.1640647
  57.5811131  46.6727306  63.7116424  57.5682866  45.7329799  62.5251858
  38.1593513  69.7272301  38.5927510  38.4747601  70.6284571  38.5253263
  37.6624513  69.7079372  39.4106436  43.6652654  16.0989282  19.7142577
  43.5734456  17.0510098  19.6776783  42.8194790  15.7650659  19.4152296
  70.0193289  69.2483282  33.5218477  70.6167975  69.5710659  34.1964602
  69.6978858  70.0389433  33.0884552  51.9932335   9.0169045  13.7863863
  52.4200290   8.5126779  13.0936933  52.5731223   8.9240357  14.5422530
  17.6613235  62.1755457  46.4393377  17.9658723  61.5572882  45.7750797
  17.2582269  61.6258240  47.1113157  22.4830334  77.9779152  66.7799292
  22.6849734  78.7138514  66.2021319  21.8195145  77.4764542  66.3061051
  47.9750776  55.5159426  19.6921575  47.2293997  55.0418854  19.3241024
  48.0295420  56.3176775  19.1720724  13.3262849  60.7443190   3.1703946
  12.4134529  60.5814886   2.9327884  13.8103855  60.6322241   2.3522794
  73.3581798   2.8769204   4.3520358  74.2178076   2.5105760   4.1444960
  72.9713695   3.0778596   3.4998432  42.5216198  44.1581202  25.6604886
  42.4064398  44.0039110  26.5981364  42.8645277  45.0500536  25.6047940
  85.9239970  25.4743673  67.8114848  85.9583507  25.4279853  68.7669427
  86.3895569  24.6916486  67.5168000   5.9855479  57.7956963  27.8590584
   5.0889850  57.8707886  27.5323057   5.9095466  57.9396629  28.8023138
  85.5758628  37.5426149  64.2282772  85.2519816  36.6505337  64.1036797
  85.5934787  37.9162741  63.3471966  56.3890808  18.6349771  22.5833774
  56.2651508  19.3368051  21.9443798  57.2703784  18.3048245  22.4086142
  79.7121351   0.4611012  17.6980567  80.5163830   0.1939866  17.2530103
  79.4558876  -0.3057673  18.2103956   7.8262031  74.9559402  26.8546414
   8.2874906  74.3664408  26.2580323   8.3298910  75.7693434  26.8246460
  83.4454172   3.0925176  45.3396034  83.4790676   2.6554582  46.1905289
  84.3001144   2.9167745  44.9461079  49.3935680  60.2899122  46.2047768
  48.7858868  59.5503569  46.2005997  49.9776554  60.1241541  45.4647779
   6.9009835  64.7866535   7.8481984   7.2506142  64.1701746   8.4915823
   7.4137866  65.5844688   7.9776466  55.2259779  71.7605209  10.3731215
  54.9455070  72.5730181   9.9519163  55.8396053  72.0419598  11.0517097
  34.0244985  61.2929726  45.6213140  33.9281487  61.9621420  44.9437046
  33.2386160  60.7528925  45.5380440  81.5842121  21.2798974  28.8372970
  81.6439646  20.3497121  29.0550351  80.8802336  21.3297746  28.1906462
  24.1335184  36.7618276  64.4135235  24.3299992  36.0918094  65.0682805
  24.2588789  36.3200427  63.5736774  22.8730669  29.5582005  24.7586155
  22.7343549  28.6646459  24.4446921  22.9409685  30.0841805  23.9617682
  47.1780079  22.3185155  23.7502337  47.4581282  23.0786416  23.2403517
  47.6208489  22.4189374  24.5928717  22.4986822  30.3341914  65.2144305
  23.3624203  30.0938178  64.8791627  22.4733908  29.9655153  66.0974185
  85.3160684  28.4338662  13.5998714  85.5391233  28.7886903  12.7393043
  84.6908825  29.0612218  13.9629054  57.8993177  79.9426651  31.2913609
  58.5663271  79.5510435  31.8552446  57.9267216  80.8762741  31.5007687
   1.6638929  71.1321975  69.8357026   2.2924406  70.8762885  70.5107340
   2.1822912  71.1830093  69.0326367  27.5899625  58.1324625   4.6483484
  26.8122745  58.4268427   5.1224524  28.2323170  58.8285971   4.7862133
  38.1054718  26.7008258  59.0295581  37.2742111  26.3794614  59.3787901
  37.9073507  27.5819112  58.7122754  38.7181211  70.4236507  25.2096367
  37.7840185  70.4295635  25.4185534  38.7585855  70.6721449  24.2861414
  52.0066404  71.4339256   9.3007326  52.6443672  72.1076727   9.5365298
  51.3261414  71.9057894   8.8206375  67.4096315  10.6219289  47.1271181
  67.9665821  10.5395600  46.3530016  67.5896137   9.8319623  47.6368189
  54.8045009   7.0364663  31.3512874  55.6634658   7.1803567  31.7484093
  54.8241990   7.5515649  30.5447388  40.7542746  28.4866712  12.2622573
  40.3428190  28.2862756  11.4215565  40.0462656  28.8484570  12.7952373
  56.8177843  67.8704596  34.1259980  57.4849319  68.0392933  34.7913098
  56.3511562  67.0981121  34.4453216  64.6665430  73.1194305   7.0648080
  64.3958664  74.0283442   7.1945977  65.4007101  72.9998064   7.6672363
  30.9723397  31.6825673  43.9353418  30.8627274  30.8045003  43.5703754
  31.8185752  31.9777486  43.5992002  58.2303381  69.4319105  39.2506051
  59.1280031  69.3611097  39.5752859  58.1320429  70.3550959  39.0175700
   1.4116713  81.9901371  25.6030869   0.9756561  82.3646164  24.8376560
   1.8556824  82.7325344  26.0128903  52.4840164  66.8637180   7.6202768
  52.3986006  67.7679491   7.3181099  51.6025639  66.4995956   7.5385308
  26.3064987  26.8408300  68.6325745  26.9614536  27.1476175  68.0055611
  26.2262900  25.9035159  68.4558226  67.6394103  22.9493667  69.6802525
  66.8951974  23.4742261  69.3854628  67.2656397  22.3402263  70.3170229
   2.8187742  20.5345628  29.4381905   3.6328640  20.4095647  29.9259090
   2.2132768  19.8962399  29.8152018  18.2404978  62.1088172  62.6776598
  18.6032755  62.0417739  63.5609094  19.0025980  62.0550204  62.1009956
  67.4485152  25.4124352  10.8880401  66.8259352  26.1032769  10.6614351
  68.1253760  25.8577344  11.3977420  48.5346651  78.7005997  23.8219857
  48.1873512  79.0194273  22.9889488  49.4033623  79.0973282  23.8868475
  24.3591475  42.7327585  52.5374985  24.1202903  43.4612274  51.9643402
  25.2001119  42.9907465  52.9149294  78.9365976  20.1586816  30.0902891
  78.8815611  20.1226899  31.0452271  79.4338720  19.3770692  29.8494077
  10.9720576  71.9624710  14.9721956  10.5790484  72.0999384  14.1102910
  11.3146687  71.0692883  14.9395120  51.9335461  71.1567163  12.0636737
  51.0454845  71.4420366  11.8487942  52.3396492  70.9783697  11.2154388
  82.4539011   9.6037480   3.9082879  82.7189367   9.2146871   3.0748504
  81.9810503   8.9043996   4.3594635  82.5097578  43.9269826  46.8227720
  83.1361692  43.2142636  46.6967630  81.6531008  43.5009572  46.7931843
  67.9054373  12.5556180  37.5592685  67.2062128  13.1420800  37.8480220
  68.1407564  12.8742883  36.6878915  26.1672051  22.7819349  62.1815596
  26.3325626  22.3470117  61.3450603  26.7158777  22.3111249  62.8088788
  55.6002849  19.9314782  15.9683537  56.4817970  20.0921723  15.6316876
  55.7169407  19.8475167  16.9147015  72.6140230  16.7014977  51.9052601
  71.7343777  16.3283631  51.8485117  72.7964991  17.0201585  51.0212994
  48.2640839  77.6896429  11.5744686  48.0302429  78.5323572  11.9635499
  48.6231661  77.9136276  10.7159114  78.1432763  18.6254156  26.9850731
  78.9698020  18.2502997  26.6811419  77.6494125  17.8770030  27.3200488
  73.5589569   1.6944406  23.5563898  73.6528986   0.7428548  23.5128689
  74.4477671   2.0286271  23.4356999  39.1499376  78.1216717   5.8827710
  39.2333651  77.6179314   5.0731301  38.2160211  78.0889750   6.0900456
  50.5805152   4.0829560  22.8711700  50.7662337   3.3510682  23.4594679
  51.1707323   4.7786900  23.1606889  85.1545017   2.6580903  16.8059218
  85.5838936   3.3790395  16.3453865  84.2364519   2.7180955  16.5417004
  12.0990169  72.4567270   7.5789875  11.5373719  72.3666382   6.8091363
  12.7869833  71.8035555   7.4513155  47.6863367  38.9969302  67.6013730
  46.7964680  39.2837478  67.8065370  48.1415159  39.0075542  68.4433542
  32.5903535  67.9152679  25.4165006  31.9569063  67.2382689  25.1784849
  32.0634437  68.6051035  25.8198953  13.9006436  15.4751861  37.4890971
  13.5534120  16.3242948  37.7623653  14.3360853  15.1321173  38.2694340
  52.2604731  28.8947797  19.1038930  51.3696626  28.9972186  19.4388461
  52.5220040  29.7783399  18.8447547  68.2785180  68.5689688  19.3089354
  67.9461959  67.6719093  19.3417311  67.4928144  69.1140747  19.2669582
  40.2327585  55.9698868   2.9564196  40.7964468  55.8118963   3.7137339
  40.1211214  55.1072788   2.5568253  63.7561110  42.1166277   6.2354594
  63.4844712  41.2048006   6.3404369  63.6146000  42.5093842   7.0968240
  33.1165767  44.0791225  28.4849429  33.3324671  43.2717037  28.0183649
  32.5434923  43.7977171  29.1981173  23.4836340  35.5999947  24.6352649
  24.3910217  35.2969646  24.6028686  23.2726026  35.6248641  25.5685806
  26.0325980  12.5301290  49.3168783  25.1993275  12.7375352  49.7398138
  26.3834453  13.3796155  49.0494633  84.4328529  25.7015967  24.5579433
  85.3049693  25.3150153  24.6366739  83.8678667  24.9696422  24.3104243
  23.6609483  51.3318729  31.4992356  23.3920717  50.4717350  31.8218803
  23.9578223  51.1697292  30.6037998  70.8326006  21.1767364   2.2344501
  70.5064058  21.5848756   1.4324203  71.5107775  20.5707002   1.9360775
  78.1889317  14.7418499  32.4808788  78.5474274  15.4597068  33.0027938
  77.4405649  14.4274151  32.9881358  20.5717664   7.4366567  29.7690988
  20.6575190   8.0864713  30.4666805  21.4732217   7.2069642  29.5435977
  18.7542784  80.6555462  52.4018383  19.4006205  80.6056976  51.6975737
  19.0513742  80.0124264  53.0455494  27.8909326  36.2125587  17.7809298
  28.3907318  36.8197131  17.2352231  27.1013689  36.0277820  17.2723234
  65.4640291  79.5849231  45.6581926  65.0799088  78.7261334  45.8347225
  66.1847333  79.6581352  46.2838554  29.0372539  62.9235840  18.1508565
  28.3088398  62.9571533  17.5307608  29.3288374  63.8320827  18.2272410
   9.0745032  76.0408545  37.5623894   8.2303423  75.7616997  37.9169273
   9.5486802  76.3878822  38.3180070  76.6819075  21.2479329  36.6763544
  76.2444416  20.7590723  35.9793091  76.2260631  20.9848356  37.4758649
  60.3582791  56.0009527  18.4256089  59.9761275  55.1524639  18.6497927
  60.8082107  56.2792730  19.2233121   3.6661512  14.9886466  60.8424811
   3.8812120  15.7269574  61.4124624   4.1830022  14.2608358  61.1879985
   3.7210369  74.3698215  20.6923962   3.6300629  74.9508047  19.9371362
   3.6812067  74.9536705  21.4498687  42.1358681  40.4835176  23.2110715
  42.4665785  40.8215618  22.3788524  41.3632774  39.9716616  22.9716277
  56.5142849  63.8447571  23.6793375  56.2539652  64.3744946  24.4328904
  56.4520314  64.4418812  22.9338193  23.6863136  63.1265116  11.2621498
  23.6203671  63.3720255  12.1849763  24.5233297  63.4923840  10.9761930
   7.4497414  67.1322870  21.0609698   8.2902026  66.7868853  20.7600451
   7.4813551  68.0636024  20.8421540  77.3807071  12.1771766  70.4500493
  77.2935126  11.5036155  71.1245446  76.7237852  12.8339244  70.6810639
  78.8448915  41.9279718  31.5628505  78.1681755  41.4849424  32.0747209
  78.5639486  41.8241835  30.6537127  55.7052422  68.9000130  13.8042998
  55.7785320  69.1795301  12.8917599  54.9205351  68.3522415  13.8247216
  86.2102726  46.0907650  27.5105453  85.5319083  46.7400217  27.3247600
  86.7207602  46.4749765  28.2232952  69.7655597  50.3399372   5.9077710
  69.9286535  49.8748302   5.0872183  69.7786120  51.2657452   5.6649929
  19.8556459  36.7039490   7.1758127  20.2940774  37.5499415   7.0846760
  19.1183341  36.8780875   7.7608579  74.4427338  12.7241290  32.8047323
  74.6568254  12.2266674  32.0154738  74.7656265  13.6073434  32.6261139
  20.8287978  73.5632610  45.7177687  21.2147212  74.1990232  45.1151896
  20.4495645  74.0956354  46.4170456  22.3317909  26.9736576  32.7559447
  23.0391932  26.3879180  33.0256176  22.5453162  27.8117633  33.1660891
   9.7016215  35.5455160  19.9700058   9.5769495  35.2539611  19.0668535
  10.2070498  34.8439360  20.3805661  79.5895323  17.7807271  20.9604049
  79.7010234  18.7070251  21.1743546  78.6494258  17.6810157  20.8104396
   6.1406124  24.2123556  41.8459511   5.5330062  23.6868119  41.3255167
   5.6567675  24.4151425  42.6465797  55.5200260  68.1025271  66.3971142
  56.2024181  68.6745838  66.0459374  54.7692745  68.6806182  66.5328131
  69.1195527  52.0963478   3.2202730  68.9946488  52.2476816   2.2834009
  69.9188593  51.5724421   3.2737917   2.2133793  63.2188086  59.6086637
   2.6718010  64.0070800  59.8997168   1.2886967  63.4661798  59.6074108
  78.5714117   8.6435324   4.5449591  79.0278414   9.4593036   4.3389946
  77.9357341   8.8879806   5.2175587  28.0120993  31.5028095  37.2139430
  27.3503423  31.5023160  36.5223432  27.6988864  32.1511221  37.8446722
  48.8436651  32.1096921  21.8342376  48.2747889  32.0035100  22.5966907
  48.2740355  32.4803376  21.1601615  82.5607000  12.8955270  69.2982091
  82.8341375  12.6226617  70.1739986  81.8769656  13.5472871  69.4529743
  20.1334023  18.9400589   8.8292575  20.2717185  18.3148170   9.5407158
  19.2958248  19.3553269   9.0347964  56.5966671   6.0243655  61.9694225
  57.1393208   5.6168987  61.2943439  56.7283472   5.4783012  62.7444736
  48.8141725  16.7485286  54.5881669  49.0851347  16.3809253  53.7469308
  48.4841023  17.6209165  54.3731634  64.8974292  60.7441477  69.4509415
  64.9342363  59.8076836  69.2562295  65.6517379  60.9004740  70.0191082
  67.8333548  52.5021219  46.6861010  67.3358110  53.3192873  46.7164612
  67.8432968  52.1939516  47.5922823  54.7983373   4.4835330  57.8621892
  53.9518292   4.2061759  58.2125155  54.8018304   4.1611005  56.9609360
  46.1945391  50.1900053  17.3373473  46.2551069  51.1416245  17.4208915
  47.0934010  49.8817682  17.4525523  73.1729046  23.5845828  15.4972088
  73.0638161  23.4976196  14.5502293  73.8056555  22.9047298  15.7288468
  33.1051445  26.2840390  11.6321397  32.3993802  25.7819343  11.2246835
  33.9029026  25.9561419  11.2170517  37.5379753  77.9330015  34.0924644
  38.2187772  77.8793526  34.7631812  37.3313046  78.8658619  34.0350437
  81.9711229  48.8800001  24.9637318  82.4463645  48.0945969  24.6925926
  81.3303110  49.0245008  24.2675209  36.6311145  62.2263575  27.5879145
  36.5310431  63.1324196  27.2959018  37.3355627  61.8755198  27.0430303
  78.3081409  53.2490969  16.4337814  78.2465842  53.0225468  17.3617458
  78.6214605  54.1535473  16.4283156  73.9038923  15.7386124  36.4869118
  74.4824436  16.4927197  36.3736296  73.4493259  15.6573856  35.6484580
   2.4510605  25.1804782  66.5649531   2.6345236  24.7644998  67.4072922
   3.0176742  25.9518195  66.5502892  45.0770855  60.5920362  17.9928184
  44.9618864  60.2445364  17.1083963  44.1893625  60.6448078  18.3469307
  21.8673968  55.2113056  32.6859975  21.2976766  55.5634499  33.3698463
  22.3282003  55.9760141  32.3408651   6.6391706  41.0955143  51.4963198
   7.2518915  41.6688347  51.9568682   6.1389577  40.6705475  52.1930408
  17.5260198  44.8258781   9.1849071  17.4030566  43.8772535   9.2199248
  17.4297905  45.1135445  10.0927722  56.6373198  56.2806551  71.1452479
  56.4850490  55.7505934  70.3628929  57.5891893  56.2917380  71.2455140
  53.3902018  53.6688177  44.3527262  53.4437745  53.7335662  45.3062312
  52.5200670  53.3065693  44.1857735  35.6933379  75.1883984   6.2213212
  34.7467637  75.1728725   6.0799450  35.9860039  74.3095875   5.9799385
   9.2877471  47.7088976   7.3436600   9.5423681  47.0712662   8.0106121
   8.5402185  48.1691122   7.7252811  21.1350918  63.2626486  50.7256556
  21.2528872  62.3855305  51.0903835  20.3004742  63.2179499  50.2591324
  16.7488551  67.7869511  14.8772836  16.9372666  67.4977446  13.9844847
  17.1561348  68.6508989  14.9401617  80.3616319   8.2567979  59.4750015
  79.7295962   8.3010150  60.1925032  79.8289833   8.3212043  58.6823038
  59.7483029   9.2458249  71.0765601  59.2388258  10.0413657  71.2307597
  59.3882455   8.6076738  71.6924771  24.4717360  39.3117452  13.2392323
  24.4841671  39.1343427  14.1797662  23.9884067  38.5761118  12.8631091
  69.3074415   0.4784442  59.8190634  69.1881726  -0.3958367  59.4480626
  70.2066181   0.7146836  59.5912377  21.7088158   9.1340114  55.6465058
  22.1669609   9.4412185  54.8642270  22.3342163   8.5510207  56.0768918
  65.8930090  48.6548376  38.1382442  64.9495509  48.8114023  38.1783509
  66.2445048  49.1131020  38.9015770  87.8601966  10.9277917  63.3734880
  87.2607909  11.4850904  62.8771405  87.5789724  11.0242845  64.2833416
  86.4241392  50.3443480  11.8678164  85.9046708  50.5591869  12.6425612
  87.1378340  50.9821892  11.8735600  40.5253200  77.4036555  70.2472728
  40.8045547  77.1949224  71.1387266  40.6762354  76.5973310  69.7540235
   7.2899264  38.7578058   2.4239039   6.7858732  38.8607574   1.6167095
   8.1386364  38.4223199   2.1351594  21.8351245  55.6112194   5.9325957
  20.9777164  55.4191208   5.5528820  22.1451330  56.3768959   5.4490000
  14.9076068  54.0485620   8.2458884  15.1859128  53.9695787   7.3334521
  14.1236007  54.5965767   8.2105792   3.6845262  29.3823529  61.7386834
   3.2045443  30.1917363  61.9140355   3.1159312  28.6892368  62.0741300
  81.5726551  28.5311294   3.3135536  81.1440739  27.6984239   3.1156838
  80.9344748  29.1962314   3.0554929  43.9931107  57.2063017  18.3717358
  43.1638336  56.7452431  18.4980810  43.9565277  57.5219154  17.4688077
  85.8342090  80.1581097  14.1248977  86.0781205  79.2331505  14.1594386
  84.8803020  80.1514721  14.0458477  19.3319046  35.0549245  23.3341146
  18.6443925  34.4354272  23.5786223  19.7198534  35.3232026  24.1670322
  43.6272860  32.3021007   9.1320139  43.7493086  32.7283931   8.2837111
  43.5824633  33.0242300   9.7587121  23.3102512  60.6355572  41.6931915
  22.9963517  60.7474995  40.7958794  23.5613966  61.5165377  41.9707394
  45.0573938   5.3463456  23.6234140  44.9244111   5.5707452  22.7024388
  46.0072880   5.3655717  23.7398720   9.4642228  81.2411308  35.8219862
   9.8752850  81.0465622  34.9797249   9.7407109  80.5255222  36.3944316
  53.3279753  25.5932593  14.5274508  53.1839514  24.7908878  15.0291383
  52.6580572  26.1983037  14.8458314  31.7602038  70.7031918  35.6480074
  32.6066995  70.2716732  35.5319405  31.1205077  70.0640106  35.3342080
  36.7013836  43.4916115  21.8838596  36.6683650  43.0081081  21.0584092
  35.8131218  43.8290310  21.9994879   4.4847655  56.1253452  32.6685047
   3.7992269  55.7283211  32.1312523   5.3030741  55.8344078  32.2660685
  18.4702575  45.1568174   4.6484476  18.1888616  44.6154833   3.9108810
  18.8705122  44.5388603   5.2601278  44.3588035  72.8611044  52.4022905
  44.4643180  72.6141171  51.4835421  43.6677914  72.2841124  52.7275793
  45.6028366  42.8561783  23.9489985  45.7805920  42.6603365  23.0290627
  45.0211096  43.6159182  23.9240670  10.0687718  48.3999491  40.9530687
   9.5699406  48.8904047  40.2997303  10.9844756  48.5770750  40.7377911
  51.6587155  78.3299784  63.3540825  51.5380876  78.4598593  62.4134378
  52.3115962  77.6329045  63.4178368  84.2607307  13.0781627  34.4108653
  83.9251804  12.9450393  33.5243464  85.0182533  13.6520314  34.2965746
  19.5306396   1.3178675   1.8319525  18.8980842   1.1734124   2.5356847
  20.0491190   0.5136325   1.8071285  18.0312037  51.8115139  37.3651075
  18.4981871  52.6399422  37.4740434  18.4526896  51.2157345  37.9844832
   8.4576529  61.9495392  12.1666992   8.7353832  61.2417316  12.7481663
   9.0356648  62.6803398  12.3859310   5.3991598  48.7138891   1.1961481
   4.8275095  48.1490374   0.6761560   5.4639196  49.5222950   0.6877021
  66.6121786  72.4009160  69.2825262  67.5495975  72.4043278  69.4760836
  66.1933939  72.5864581  70.1230170   2.6697509  82.7500300  20.1528446
   1.7834847  82.4794773  20.3927748   2.9857414  82.0527319  19.5782511
  16.3996625  41.7286730  29.2261076  17.3055303  41.4202213  29.2483068
  16.0475492  41.3789415  28.4076142   2.6968834  50.1490974   5.9641975
   3.1741577  50.9435987   6.2033725   3.0914587  49.8724842   5.1371372
   6.2066203  47.3051357  32.0550275   5.2643901  47.1955490  31.9268727
   6.6042984  46.6542768  31.4766979  24.9914201  75.9146122  21.6013519
  24.8603983  75.5196981  22.4633877  25.9412436  75.9215717  21.4829532
  85.2509356  63.0699873  19.7623682  84.7715971  62.3353004  19.3793488
  84.7945166  63.2515144  20.5839276  10.0652897  42.1143103  17.5816810
   9.6281719  41.6540051  18.2981169   9.7946709  43.0268621  17.6828754
  25.8749008  51.0917902  35.2987361  26.0348344  50.1688671  35.4958844
  25.7940245  51.5093613  36.1562467  32.8715944  56.9920301  11.0429621
  32.8220177  56.0848284  10.7416880  33.5484886  57.3896313  10.4952776
  11.0918224  29.6311235  18.0065191  10.9007907  28.9728093  17.3384166
  11.4704943  29.1337967  18.7314367  76.0303381  55.4074764   2.7511713
  75.4072669  54.7566319   3.0742964  75.4948035  56.0253096   2.2534566
  46.2972403  37.5747156  22.9928422  45.5809641  37.0379686  23.3320785
  46.0037565  38.4763336  23.1239176  10.4239702  52.9811382  39.6999073
   9.8834109  53.7660980  39.7886062  11.2667871  53.3053446  39.3824506
  73.3929084  44.0494586  68.4171144  73.2431231  43.1327964  68.6485026
  74.1477106  44.3095256  68.9451946  13.1288087  63.9295435  15.1902139
  13.1932318  64.8575068  15.4159737  12.7281523  63.5233212  15.9587777
  58.1698315  71.7196063  51.7468850  57.4610798  72.0917587  52.2716765
  57.9065268  70.8113770  51.5984861  13.5583568  64.3945360  38.0242181
  14.2867398  64.4872999  37.4101448  12.9981232  65.1502037  37.8471971
  14.0126157  59.9301147   6.1064070  13.8908505  59.7149467   5.1816869
  14.8281932  60.4305983   6.1304820  22.3232293  51.8040705  12.8374922
  21.5620518  52.3676252  12.6987612  22.6138186  51.5725899  11.9553328
  20.8667676  64.7061805  63.9397977  21.6300659  65.0873069  64.3737916
  20.5049615  64.0966968  64.5831136  70.6163934  42.7521944  -0.1388433
  70.4235259  41.9076443  -0.5459955  70.9569910  42.5283337   0.7272469
  82.2363983  13.0269815  53.3563320  82.6058135  13.3082820  52.5192932
  82.6064096  12.1560956  53.5008530  85.1916060  18.7354732  19.1565025
  85.2024719  19.0291309  20.0674796  85.8379695  19.2892730  18.7186074
  84.5611945  59.1107750  17.1562195  85.0495333  59.3814421  16.3787258
  83.8238412  59.7195721  17.1999025   7.2351725  13.7576534  59.0220157
   7.0662028  14.2018176  59.8529188   7.8217156  14.3484212  58.5495810
  45.6154346  14.3647587  29.3844032  46.5412855  14.5992291  29.3206692
  45.3104305  14.3447816  28.4773183   8.4362204  18.1985713  70.0958964
   7.5074465  18.0257131  69.9418492   8.4444553  18.9185907  70.7265634
   0.6586924  52.1921778  12.4043155   0.7786001  51.4653540  13.0155325
   0.9855015  52.9582500  12.8760803  19.8929119  49.2448092  17.4916995
  19.9274278  50.1266050  17.8624856  18.9618599  49.0226316  17.4884450
   1.7448716  41.5728903  -0.2783922   1.7870170  40.8291626   0.3227084
   1.2301528  42.2303057   0.1896963   1.1279161  14.5207931  53.5691337
   0.2485783  14.3509771  53.9070098   1.5015871  13.6512376  53.4260539
  11.8339951  29.3739129  60.4318301  12.4438984  29.8018647  61.0327474
  12.3581631  28.7009336  59.9975745  80.5627261   0.3148748  56.5888028
  80.4352579   0.1715184  55.6510214  80.4377137   1.2565709  56.7063121
  64.9625210  23.5910608  68.7887419  64.4989363  24.4225217  68.6887525
  64.2808650  22.9247667  68.7014155  11.1183500  57.7206135  20.2627182
  11.1243093  57.4266291  21.1736345  10.2791560  58.1697655  20.1614857
  59.3115315  70.8174673  14.9979889  59.0997177  69.8880079  15.0844371
  58.8627843  71.0920146  14.1983128  33.5584331  35.5360103   4.0027341
  32.8140044  35.1012111   4.4186792  33.2209229  36.3935161   3.7438792
   2.3863799  22.4036885  62.8749345   2.2483022  23.3424760  63.0007992
   1.5795428  22.0962001  62.4617783  36.4097047  63.3052874  24.0531373
  35.5772352  62.8699303  23.8695955  36.2502265  63.7972641  24.8585916
  13.1105673  75.7868481  15.3297222  13.5449755  76.6392565  15.3600967
  13.6455238  75.2252722  15.8906949  33.7918442  22.4787614  31.4270425
  34.5602225  23.0293748  31.5775704  34.1212650  21.7442605  30.9091473
  83.7925086   1.7985631  47.5181739  83.9718876   0.8615543  47.5960414
  84.3178449   2.2012664  48.2096116  54.2423180  67.2825336  45.5806541
  53.8150719  67.9614687  46.1028957  54.8098067  66.8248558  46.2009144
  18.4856302   3.2945396  70.0346312  19.1900904   3.1738092  70.6713354
  17.7332050   3.5685970  70.5590170  30.2665806  18.4476614  13.0499327
  30.6161475  18.0915463  13.8667643  30.3252816  17.7224433  12.4279642
  20.0049686  57.0186234   0.1670388  19.4790030  56.4257860   0.7038202
  20.6281757  57.4078798   0.7804923  40.3806257  58.1410408   7.3765606
  39.7277832  57.6497316   6.8779176  40.7838678  58.7243700   6.7336363
  10.0365734  73.8487053   2.2697143   9.9208027  73.9857769   1.3294798
   9.9260050  72.9055071   2.3896599  84.4332981  16.9139493  13.1155396
  83.8256440  16.1776054  13.0463588  84.8754776  16.9401205  12.2669971
  62.6692722  14.8359681  42.4174110  62.6038749  15.7299186  42.0815532
  63.4174685  14.8583890  43.0140106  14.7732782  30.9161735  11.5548885
  15.1176345  30.6058216  12.3923445  13.9372385  30.4606414  11.4560902
  70.6480423  55.0039148  16.8156803  70.4216531  55.8571196  17.1858442
  71.2026766  54.5943165  17.4796402  46.5839863  47.9211950   0.2874180
  45.7179165  48.1693459   0.6108004  46.5945196  46.9655037   0.3400560
  83.2509130  82.4158955  16.1492431  83.5570899  81.6684151  15.6356728
  83.6039209  83.1801701  15.6937242  13.7645638  20.8011723  36.4298177
  12.8738904  20.5333352  36.2035513  13.9978921  21.4456677  35.7616735
  62.2761942   8.2527591  70.1845288  61.5195058   8.6537982  70.6121057
  62.6390401   8.9492131  69.6372431  83.8623852  61.0126829  30.1699448
  84.7639284  60.6960726  30.2266121  83.3472282  60.3530073  30.6343508
  64.6436167  60.3765821  15.2201903  65.5546808  60.2555037  15.4876459
  64.6731329  60.3787804  14.2634475  26.0348940  53.9480448  45.1822615
  25.1245499  53.8323450  45.4545164  26.5215850  54.0300846  46.0024071
   1.8058503  16.2281728  17.3154819   1.4176033  15.3544044  17.2704840
   2.3478398  16.2902343  16.5289533  54.7356933   0.8729360  43.4696722
  55.0557773  -0.0097945  43.6555719  53.8212650   0.7476518  43.2159805
  57.3058632  32.8320384  14.3152559  57.1558955  32.9400921  15.2544403
  56.6828349  32.1557021  14.0494800  65.3580444  76.4095310  61.0680835
  65.0572960  77.1501188  61.5946893  64.5930307  75.8383707  60.9990684
  27.1390690  78.2296662  58.6454920  27.6985516  77.7321057  58.0491356
  27.1111073  79.1095261  58.2696001  46.0003471  67.7897215  36.9909739
  45.2690029  67.9537296  36.3956022  45.7404423  68.2095861  37.8109694
  46.6064255  70.6971864  64.7517626  47.3627810  70.9080652  64.2043243
  46.6867869  69.7583036  64.9199132  83.0116364  79.7182608  15.1847172
  82.1641257  79.7013092  14.7401166  82.7966943  79.6313524  16.1134148
  70.1044838  78.2672910  63.5865132  69.4060891  78.9200334  63.6355577
  70.4969494  78.2703809  64.4595496  85.5040911  69.7092152   2.5617909
  86.3256839  69.9479198   2.9910189  84.8864815  70.3887939   2.8319126
  88.1962810   5.4796411  59.9116151  87.6473747   5.4179097  60.6933586
  87.5745116   5.5208923  59.1850249  70.4197238  10.8990194  70.4387431
  71.2956808  11.1093522  70.7623037  70.1911912  11.6347171  69.8706332
  69.9949615   2.1542165  11.9860208  70.4039781   2.9231164  11.5888548
  69.5107763   1.7435834  11.2696588   4.4750658   6.4688814  14.2895138
   5.0471437   7.1429181  13.9225900   4.0600967   6.0658115  13.5269082
  13.0708725   2.3797799  68.3922766  13.8475210   2.1523715  68.9034785
  13.3575375   3.0975248  67.8275700  20.4121041  35.2348208   0.2722095
  20.3280902  34.5701337   0.9558514  21.3458419  35.2453518   0.0618443
  54.1255705  78.5773067  65.7411782  54.5952861  78.7536840  64.9260156
  53.6268299  79.3770770  65.9080843  82.2801873  72.4804258  31.0810614
  82.2785732  73.3397627  31.5026832  83.1899124  72.3455715  30.8156419
  41.8001223  74.7679996   3.7408966  42.6047468  74.8186255   3.2249054
  42.0012760  74.1431856   4.4375831  84.2598567   0.9855748  71.0542514
  83.8337837   0.4226686  70.4078522  84.0420494   1.8756057  70.7774261
  11.2589300  43.9874506   6.8774545  12.2028208  44.1207933   6.7907238
  11.1591768  43.0410147   6.9801217   2.5548124  50.0716496  23.2741928
   1.9872765  50.2552176  24.0228176   3.4293264  50.3263140  23.5684776
  13.0759060  76.4828730  20.5675244  13.0918765  76.6473341  19.6246934
  12.1948421  76.1496782  20.7376409  19.1219251  53.5775618  66.6205226
  18.6942344  54.4337980  66.6336320  18.5928278  53.0365483  67.2066892
  23.6515427  53.6549664  20.3440928  22.8908849  53.3482695  20.8376169
  23.6093521  54.6091318  20.4074955  78.1324104  49.9213886   2.4331491
  78.7306532  49.6431065   3.1266165  77.2970739  49.5121813   2.6589680
  36.7720246  64.8867702   8.4593189  37.4833035  65.4334641   8.1254905
  36.0507512  65.0319338   7.8470087  41.3615084  49.5877934  19.8855233
  41.8391275  50.3306007  19.5162714  41.3722134  48.9277172  19.1924000
   8.1577986  39.9394011  28.3804297   7.7079177  39.8757386  29.2229199
   8.1557053  40.8749247  28.1778812  80.8213465  75.5864553  66.7076097
  80.5382292  75.7883934  65.8158151  81.4896481  76.2437705  66.9013677
  13.1576085  16.2537146  23.1423926  12.5437593  16.3571060  23.8695312
  12.9505634  15.3946483  22.7744651  63.7667839  60.1312403  49.1702668
  63.1309574  60.5038611  49.7810952  63.3140223  59.3838434  48.7795798
   9.4975669   9.7355653  52.1110730   9.0421397   8.8943340  52.0771841
   9.6745283   9.8748161  53.0414097  10.8414495  39.4296288  13.4904027
  11.6872215  39.3352246  13.9285672  10.4199290  40.1627827  13.9387739
  52.8053188  64.5962238   2.8727686  53.7404919  64.7791958   2.9633573
  52.7642536  63.6689758   2.6387739  30.4177046  70.0608210  52.5353448
  31.3126625  69.9410538  52.8530530  30.1579379  69.1954617  52.2192637
  79.2146716  40.4729701  47.9523699  79.9707423  39.9074603  48.1097881
  78.6465571  39.9590732  47.3784534   2.0593197  20.5956842  65.6570695
   2.6872141  20.8984758  66.3130371   1.9833929  21.3260890  65.0430892
  49.2334604  58.4295034  23.0177879  49.5525789  57.8905201  23.7415957
  48.2871962  58.2853889  23.0109286  42.3584843  25.2689171  23.6230111
  42.6597548  24.4322491  23.2688165  41.4862871  25.3880167  23.2470822
  27.2401363  44.1299297  63.5175953  27.1031458  45.0721980  63.6156295
  28.1078417  44.0540744  63.1206463  60.9522915  36.3641334   7.8930223
  60.5411148  35.6469202   8.3754885  61.6280556  35.9403992   7.3638487
  22.3232426  77.2531180  45.3443806  22.7541317  78.0778102  45.5689971
  21.4047302  77.3921994  45.5750601  87.5088892  30.5999900  67.1823759
  87.4178467  29.6571161  67.3199574  88.2345972  30.8561231  67.7515633
  50.9867668  76.7905903  36.4039993  51.7276955  77.3426008  36.1538982
  50.2613115  77.1044111  35.8641291  86.1741380  42.1341085  58.0107212
  86.5058374  42.1718454  58.9078188  85.7581115  41.2745428  57.9451418
  63.2529061   4.2243573   0.3326958  62.9767554   4.6981904   1.1172009
  63.9956777   3.6944196   0.6219969  27.7721436  43.6881496  50.7431571
  28.6994202  43.6702682  50.5063788  27.3310215  43.2470084  50.0171892
  24.2182899  56.6783142   4.5273006  24.8077512  56.0065269   4.8700377
  24.6703291  57.5042343   4.6997988  28.3576853  61.0913898  64.4347332
  27.7891857  61.1760474  63.6693100  27.8927595  60.4863216  65.0126426
  42.6888876  70.6614928  45.2567498  42.9735713  70.0574641  45.9425608
  43.4390216  71.2403516  45.1209061  48.6781216  64.0223789  25.5073500
  48.9932108  64.8624992  25.1739645  49.2140198  63.8562489  26.2828779
   7.0481808  48.3617355  51.7402927   7.5501711  48.9709712  52.2816591
   7.7057106  47.7733184  51.3692896  47.2462351  23.9948226  59.8550610
  48.0802424  24.4209100  59.6572856  46.5927918  24.5228625  59.3963425
  54.1946308  44.2973376  52.2057144  53.6916439  44.3552829  53.0180423
  53.6827383  44.7983981  51.5707843  15.4585814  77.9302025  20.9937739
  14.7115386  77.3317575  20.9886694  15.1024258  78.7550735  21.3238859
  63.2304239  46.3599396   4.1533887  63.4531784  46.3608646   5.0843078
  62.8465366  45.4966402   3.9998341  14.4926531  12.0782186  68.3221136
  14.1520912  12.8270532  68.8115002  13.7789852  11.8321038  67.7336053
  66.4568322  26.6286847  35.5037546  65.6723969  26.8836972  35.0181007
  66.4988940  25.6771943  35.4082513  43.1325865  57.7115726  15.9784615
  43.3167458  57.0822001  15.2811766  42.2023010  57.5919771  16.1695099
  31.3393103  78.4860567  37.2740380  31.9688522  79.1766743  37.0667831
  31.2231073  78.0127792  36.4501826  39.7344875  55.3388596  14.7872519
  38.9020920  55.7166481  14.5033062  40.3138876  55.4411459  14.0322244
  43.6209755  10.6425855  10.3060782  43.4157389   9.8052403  10.7219648
  42.7756052  10.9721372  10.0011611  33.4300657  16.7645452  24.2111707
  34.1963064  16.3660333  23.7984943  32.9374757  16.0247228  24.5665026
  82.0549021  41.0845138  65.9525619  81.9971714  41.4387656  65.0652061
  82.8985796  40.6329585  65.9757648  16.7928345  18.1595136  61.4868287
  16.2756664  17.5987579  60.9086220  16.9676096  18.9436914  60.9664945
  85.8153711  21.0991861  65.0418661  86.2416993  20.3461457  64.6327077
  86.5269814  21.7185832  65.2036898  14.0723211  13.8738586  48.8661568
  14.7165568  14.5815755  48.8842718  13.4454472  14.1378022  48.1926600
  48.5493469  45.5166960   2.6244330  48.6697388  46.3052988   2.0954269
  48.1880569  44.8726177   2.0154484  27.8676128  53.2359409   7.2420520
  27.0199108  53.1829023   7.6834381  27.7262735  53.8547087   6.5255457
  14.1029036  63.7002516  44.0081882  14.0699172  64.4408798  43.4027004
  14.9837673  63.7348557  44.3811655  65.7889693  21.5439603  14.9353921
  65.4252832  20.9770200  15.6154943  65.1330250  22.2315785  14.8207390
  19.6238596  35.3162194  66.6009138  19.2377789  35.7396985  65.8342062
  20.2325661  35.9660054  66.9523184  18.0161440  51.4642334   5.1752722
  18.5398948  51.2600327   5.9500098  18.6598980  51.6876221   4.5030296
  44.4633341  73.7662983  16.6732645  45.1949644  74.3787146  16.5965092
  43.7823009  74.1350412  16.1107159  30.4932356  65.9952831  24.4794130
  29.6067619  65.7258463  24.7198343  30.8865070  65.2109241  24.0968633
  60.4381278  12.3248817  69.6793212  59.6904148  12.2669746  69.0845070
  60.0515116  12.5287725  70.5309008  56.1040020  68.6874771  37.2639918
  56.9564104  68.5063887  36.8679643  56.3122940  69.0858269  38.1090736
  20.9040785  81.3405895  41.7914963  21.5669417  80.9143734  41.2481880
  20.3378487  80.6260586  42.0831728  60.9631300  77.9329586   4.6403548
  60.6224537  78.3421469   3.8449094  61.2942934  77.0832300   4.3496236
  64.5507162   5.7007310  53.9135504  65.1681941   4.9990556  53.7071276
  64.1562479   5.9280297  53.0715513  60.9650367  19.1850564   0.6262768
  61.2611263  18.5120007   0.0134503  61.6909140  19.8076722   0.6672762
  19.2896307  72.6314116  28.7408996  19.3851531  71.7513275  28.3768106
  18.8978267  72.4926710  29.6031499  20.0606441  40.1921320  13.7917006
  20.7297444  40.1613665  14.4755054  20.4131269  39.6485424  13.0870712
   5.9451163  76.5749121   9.6709633   6.1477214  75.6525421   9.5147157
   6.4124537  76.7893553  10.4783309  85.0447074  65.2421665  15.8985794
  85.6900695  65.3295279  16.6000831  85.5670557  65.1817274  15.0987470
  46.5832513  13.8885877  15.1434779  47.4494415  13.7951943  14.7469652
  46.6902583  13.5545728  16.0341024  23.5723162  81.0322762  16.1041856
  23.9825654  80.3081989  16.5770936  23.5393262  80.7361126  15.1945531
  22.4639637   7.0594026  62.7095698  22.0110209   6.7568446  63.4966753
  21.9794018   6.6612865  61.9864259  18.8152535   0.8208705  44.2206637
  19.7477753   1.0347415  44.2505590  18.5224468   1.1446859  43.3688204
  66.1185912  30.9727002  63.3081232  66.2762622  30.0460721  63.1272088
  65.3319828  30.9797908  63.8534937  25.4159641  52.1007347  26.5311766
  25.1871371  51.8732452  25.6299996  25.9837699  52.8668404  26.4480090
   3.7008745   8.8604928  44.3821470   3.1097538   8.5828067  43.6823623
   3.1199057   9.1497613  45.0857298  26.6560912  48.5528135   6.1341244
  27.6005268  48.5875177   6.2860173  26.5395069  47.8329229   5.5141306
  68.3479116  69.5658637  45.8544962  68.5094760  70.1549102  46.5914862
  67.4084268  69.3865730  45.8926694  20.8901858  43.6058521  16.1817670
  21.5363169  43.7445164  15.4892945  20.3084946  44.3636608  16.1218250
  65.5698345  30.5475808  29.5125620  64.9891219  30.4333307  28.7602608
  66.2113659  31.1965324  29.2235462  42.6549292  61.1240816  19.0660632
  42.0656347  60.6353474  18.4915137  42.3428679  60.9303141  19.9499786
  57.5124662  78.6860065  60.2185325  58.0294363  78.5642223  61.0148625
  57.2593062  77.7999858  59.9594836  41.2247944  28.8459325  23.4792280
  40.9386110  28.6223602  22.5935960  40.4124212  28.9433861  23.9760041
  30.8687067  16.2857902  16.4989197  30.0693226  16.0615778  16.0225296
  31.5325594  16.3898742  15.8172321  45.5848551  40.3040314  17.0823777
  45.8720207  41.1866999  17.3161840  45.3057766  40.3768539  16.1696672
  23.2848866  45.9491969  68.7315149  22.3449309  45.9818031  68.9094256
  23.4401638  45.0550700  68.4271268  85.5764351  15.6051208  64.0922366
  86.5062199  15.6191732  64.3192456  85.1851926  14.9999191  64.7222309
  72.0185614  26.9143939  12.2859633  71.1741590  26.4646792  12.2547174
  72.3260212  26.7845559  13.1830931  86.4128480   4.3176414  69.3142520
  86.4588032   3.4213401  69.6470575  85.4869638   4.5509626  69.3815906
  45.6674331  15.9497640   1.9683313  45.6279045  16.1626431   1.0359415
  45.8855539  16.7787740   2.3942462  29.0125442  61.2344265  12.0436203
  29.5887876  61.6549587  11.4053977  29.4400048  61.3834810  12.8870010
   8.3049137  17.9033519  60.2497975   7.9553444  17.7970315  59.3650774
   8.8152582  18.7121774  60.2100865  23.7553396   2.7330586  36.8789887
  24.0399828   2.8549001  37.7847290  23.6369791   3.6217019  36.5435195
  27.1634483  62.7055025  32.6016450  26.6266012  62.3711395  31.8831563
  26.6413665  62.5417376  33.3870387  28.9171886  38.2467628  32.1094465
  29.6239972  38.8896489  32.1673250  28.9138317  37.8168440  32.9646587
  79.8156057  39.0070010  62.8850113  79.5112787  39.4568301  63.6732225
  79.0812168  39.0704871  62.2743742  45.3942633  56.6284084  33.7361646
  46.0601425  56.0719395  34.1401148  44.9749374  56.0659313  33.0849957
   5.7698519  37.2403051  58.4919659   5.5670626  37.8701736  59.1836135
   5.0354201  37.3096420  57.8820197  52.3711961  10.9230325  19.5017731
  52.3098867  10.7046697  20.4317141  52.0911186  11.8369576  19.4513822
  42.6770782  77.3560905  47.9893160  42.5000668  78.1789589  48.4451485
  42.2262764  77.4456215  47.1496773  15.2787840  63.4414005   2.7951232
  15.4265845  62.4956846   2.7982959  16.0953391  63.8125563   3.1293577
  33.2237744  75.8308315   8.3763343  33.2850504  75.7284451   7.4266011
  33.5255742  76.7241812   8.5408908  26.3652372  41.9325924  26.8891072
  26.4211035  41.0079718  26.6478968  26.8338490  41.9916677  27.7216625
  49.8715751  63.8773326  63.8120077  50.1477234  64.7687964  64.0247629
  50.5428522  63.5558657  63.2101123  82.3377858  52.0647670  68.9088390
  82.7526913  51.3023998  69.3124164  81.9945321  52.5691367  69.6464194
  79.6458332  62.4740915  70.4080701  78.9871113  63.0816011  70.7446016
  80.4703991  62.9561953  70.4705222  38.0611515  45.0817871   6.1299270
  38.3397985  45.5183744   6.9348985  38.3358049  45.6732655   5.4292494
  44.7322321  40.5539894  14.3832767  44.3359804  41.3073349  13.9454567
  43.9999533  40.1174116  14.8184741  27.1498823  74.9407005  23.9995837
  26.2639785  75.2792454  24.1291761  27.0320702  73.9970970  23.8901925
  78.0215502  80.0334644   3.8082427  78.4779072  80.6040478   4.4266310
  77.1324635  80.3858471   3.7684906  77.4060076   3.4739873  46.3031912
  78.2070845   3.4774587  45.7792664  77.7060907   3.3175370  47.1985722
  57.6114886   6.7662904   7.6839799  57.7325933   7.0418546   8.5926211
  57.2643273   7.5415799   7.2428137  69.9886535  17.4503566  33.6582319
  70.7203005  18.0145217  33.4079496  69.2193256  17.8717042  33.2750456
  45.2846193  60.6311941  33.8021779  45.3852892  59.9348259  33.1532049
  44.3731022  60.5637217  34.0864491  12.4660003  53.2825279  46.4943027
  12.2235596  52.5066900  45.9888029  12.5768137  52.9605389  47.3888826
  18.2569635  61.5364695  34.5010185  18.0066073  60.7897615  33.9569759
  18.7681758  61.1529160  35.2136064  65.8061171  59.1493225   2.7665722
  65.5291271  58.3480597   2.3221782  66.5039635  59.5008421   2.2136949
  58.1371086   3.0027673  18.9114785  57.5254720   2.6452443  19.5551479
  57.6227754   3.0766198  18.1075883  76.5720699  14.9216367  67.3284022
  76.1860702  14.8345948  66.4568172  76.9795761  14.0718509  67.4958341
  24.2936928  31.1976100  59.5609598  24.7410900  31.7819692  60.1729969
  23.7474997  30.6415416  60.1165597  75.9115736  65.0616197  52.0156066
  75.3881686  64.3676237  51.6148011  75.2800028  65.7522659  52.2165052
  17.2924292  49.1356516  41.8490934  16.8493032  49.3096685  41.0186768
  17.9944718  48.5256338  41.6227198  58.3854675  76.2903929  46.8697834
  57.9811239  77.1341228  47.0719194  59.0255213  76.1578751  47.5690699
  35.8223796  78.2122803  11.0512519  36.5641475  78.8166571  11.0784554
  36.2178373  77.3440790  11.1292160  44.5802212  53.8527536  37.5492454
  44.7892666  53.5663700  38.4383535  45.4256725  54.0925646  37.1698523
  80.8582196  61.2451887  14.0761757  81.1990723  60.5533123  14.6430576
  80.7785353  60.8326292  13.2161319  74.7631703   3.2922031  48.4912221
  75.3590916   2.8301431  49.0808050  75.3389464   3.7863637  47.9076807
  15.0231099  64.2188978  10.5372214  14.3424773  64.5363951  11.1306572
  14.7491813  64.5253420   9.6727639  34.1345034  16.0115529  50.8386723
  34.9251495  16.4754869  51.1141340  34.3207250  15.7322694  49.9422614
  31.0345221  41.2788439   6.4838409  30.6378984  40.7331085   7.1628815
  31.3795733  42.0363045   6.9565171  38.0036926  67.7161551   4.0354425
  37.7330518  66.8358660   3.7745225  38.7178779  67.5729465   4.6564588
  12.8131700  44.3206358   0.8874094  12.9141080  44.6491146   1.7807993
  12.1524274  44.8916483   0.4954961  22.6897049  49.9254656  49.5055008
  21.8322730  50.0726795  49.9047136  23.1659269  49.3995094  50.1480007
  38.3772755  58.8987780  21.8874168  38.5635352  59.6719837  21.3547897
  38.1720066  59.2488909  22.7543187  34.1186118  61.5034866  19.6923161
  34.6352553  60.7328749  19.4567978  33.5293531  61.6330481  18.9491999
  86.3595305  34.5655967  64.4478027  85.5648551  34.0424968  64.3424825
  86.4504371  34.6751882  65.3943525  56.7506456  57.2384596  10.2468741
  57.3828888  56.9383478   9.5938563  56.8109322  58.1933069  10.2174985
  47.9123990  80.5868415  62.6484321  48.0392950  79.6384720  62.6752858
  48.4966986  80.9259657  63.3265333  42.2376919  49.8007393  28.0132985
  42.8503466  49.6897554  27.2862720  41.3869858  49.5559740  27.6491261
  76.2868736  24.8873712  61.2691991  76.7026840  24.9822236  60.4122655
  75.4565344  24.4481469  61.0852115  23.4067661  34.1886998  38.9288227
  23.7175495  33.7316276  39.7103159  23.4122355  33.5211326  38.2428471
  44.5279121  39.1613102  20.6291842  44.7532845  39.3350220  21.5431118
  44.1443586  39.9809098  20.3171301  28.4282207  53.5067177   4.0294147
  27.8278542  52.8499651   3.6766171  29.0698099  53.0012131   4.5284718
  26.9979174  25.4487849  40.2642791  27.5909121  24.9656011  39.6888487
  26.7314989  26.2101079  39.7488729  37.0411682  77.2882986  38.8316178
  36.1701441  77.6734304  38.9276457  36.8972611  76.4969397  38.3126950
  73.2715958   0.3557870  44.8191404  73.0539816   1.1212060  45.3511238
  73.6559885   0.7198045  44.0216684   3.8802011  39.7411205  59.5473723
   3.9290769  40.6945182  59.6172778   3.4550197  39.5842696  58.7042539
  83.5296259  37.3678161  61.2413017  83.7760363  37.1574451  60.3406028
  83.8517676  36.6283323  61.7566864  37.6503682  79.3830967  27.4645376
  36.9496632  79.8821306  27.0447731  38.4538269  79.7144222  27.0634055
  20.1683187  80.5329227  28.9606357  20.7733059  79.9810934  29.4563174
  19.3506503  80.4978466  29.4570398  -0.0914131  81.0571865  64.6823863
   0.7741369  80.7289366  64.9259005   0.0003399  81.3176517  63.7658868
   1.3451368  30.5854703  71.3872110   1.1825091  31.0477163  72.2094719
   0.4939634  30.2205564  71.1451899  72.3407939  39.0937376   7.8619051
  72.8654590  39.8577476   8.1011701  71.5902403  39.4564271   7.3914182
  81.3459723  72.1081070  62.2603719  80.8433430  72.8624157  61.9527845
  81.1359923  72.0441751  63.1920664  14.8560936  45.7729102  62.7363787
  15.2847845  46.4260246  62.1832989  15.5746586  45.2447749  63.0841861
  14.5468313   0.4451753  52.3047571  15.0054390   0.4918576  51.4658682
  14.5417101   1.3470508  52.6254336  15.0229246  23.9603997  65.9378902
  14.2026550  23.8780452  66.4243106  14.8049242  23.6749936  65.0506191
  39.8674004  22.1545407   0.1973177  40.0102871  22.0343682   1.1361330
  40.3341513  21.4255330  -0.2112394  17.2176063  72.0889521   9.7774172
  16.3266754  71.7459202   9.8467284  17.3742068  72.1603060   8.8358140
  73.4279631  35.6465150  70.5918276  74.0725622  36.3541366  70.5914618
  73.9515672  34.8455669  70.6152486  30.7148790  42.2525501  13.4702647
  31.5816021  41.9736290  13.1749213  30.1880670  42.2831011  12.6716626
  55.4484034  65.6672764  25.4754806  56.2332106  65.9059429  25.9687877
  55.0526762  66.5050125  25.2349997  11.4924526  58.5317755  15.9133160
  12.3269153  58.5466290  15.4446113  11.6769290  58.9687443  16.7447352
  19.7920489  49.3230152  11.7814732  20.6073666  49.6933460  11.4433265
  19.1886640  49.3544579  11.0390651  16.0805738   5.4349804  15.4996145
  16.7695415   5.4906011  16.1617780  15.9774256   6.3331860  15.1852596
  55.9711027  79.2567539  45.7246256  56.3139248  79.9026060  45.1069069
  55.5312824  78.6088037  45.1742125  29.9260378  77.2843647   9.8216140
  30.4698467  76.8136835  10.4532504  29.0841389  77.3924780  10.2640498
   4.7108759  56.4232091  57.3600225   4.9889197  56.5086440  56.4480893
   3.9060034  56.9384436  57.4142889  20.0679302  78.1674576  14.1421151
  19.9617219  78.8358259  13.4651852  19.4531584  78.4232140  14.8297739
  23.2567835  32.1794772   9.3382972  22.8226900  31.8746567  10.1350904
  22.5724459  32.1576476   8.6693889  27.2389776  80.5200912  57.2431282
  26.7725069  81.2043620  57.7231340  28.0228788  80.9548999  56.9074611
  88.0707949   3.7891194  23.1745791  87.5046032   4.2965981  23.7560630
  87.5367134   3.6341855  22.3954892  37.7397902  10.4088212  46.1555378
  37.7908308  11.2835647  45.7702486  37.0778162  10.4878856  46.8423907
  22.8175003   6.1697341  44.0813200  23.2271845   5.7160140  43.3447568
  22.7000124   5.4906131  44.7455661  52.3140066   5.3581044   4.0171346
  53.0142181   5.6829450   3.4510827  51.5277164   5.8076570   3.7074849
  42.8952646  41.8482208  17.4902034  43.3181286  41.0704517  17.1262038
  41.9951391  41.8045998  17.1675658   7.4549348   4.5275260  65.7260506
   7.4078900   5.0154639  64.9038987   7.9837734   3.7573959  65.5175791
  23.1298994  36.8341443  12.3632026  23.0993497  36.1291787  11.7164230
  22.6470797  36.4905927  13.1149280  87.7377019  21.2753822  68.6762942
  87.6076756  21.7510701  69.4966870  86.8969021  20.8488466  68.5109003
   6.2431628  19.2681075  64.5980434   6.4387924  18.5072471  64.0511821
   5.8437521  19.8979617  63.9980594  21.8713355  58.8933945  27.7835369
  21.3982058  59.5965147  28.2285142  21.2218595  58.1985760  27.6756573
   2.6559603  72.1167612  12.7214527   3.0515131  71.7331886  13.5041678
   2.0938738  71.4245558  12.3733890  75.3820103   0.0393674   6.9022471
  75.5986994   0.9629724   7.0296830  75.0104683  -0.0000957   6.0209793
  15.8189757  20.5229188  71.1192436  16.4608986  20.9610845  71.6779761
  15.4455263  21.2254382  70.5870469  65.5620987  30.9752084  69.1994880
  65.0325329  31.3014508  68.4719143  66.2832482  31.6006423  69.2701493
  23.0284834  54.4340944  10.7338798  22.8922296  55.3648758  10.5569041
  23.3993125  54.4097900  11.6159952  39.2564661  24.9106933  57.4436335
  38.8178045  25.5346824  58.0219488  38.5434134  24.4727231  56.9789044
  30.3629524  44.8365165  66.5694742  30.0347740  44.2770816  65.8655093
  30.7552034  44.2281295  67.1957619  44.3914604  78.3151150  27.4284744
  44.7685385  77.4959993  27.7495551  44.9291325  78.5455275  26.6708112
  22.1667051  61.7532110  15.8223665  22.1553969  62.5244570  15.2555478
  21.4216638  61.8771935  16.4103925  41.9296312  78.0932665  23.5453010
  41.8243647  77.1931934  23.2370377  41.3124084  78.1710100  24.2727804
  68.3132505  55.1480198  19.7121859  68.5645342  56.0708761  19.6744525
  68.8368702  54.7290897  19.0291405  87.6113878   6.7134238  69.3904529
  87.2498284   5.9445764  69.8313348  88.5598049   6.5936757  69.4393934
  77.6090734  16.6846368  28.5716176  77.3329704  15.8014771  28.3266187
  76.8315237  17.0772168  28.9685225  12.8216001  62.1536350  45.8839798
  13.5418245  61.6318321  46.2378550  13.2384702  62.7405787  45.2531528
   8.0809791  56.1701537  43.7644212   8.8363821  55.9482623  43.2200305
   7.8928954  55.3679324  44.2515485   7.7687151  75.2264930  62.8503368
   7.1667797  74.4910194  62.9642830   7.2027928  75.9682323  62.6363288
  80.3401678  12.7488229   7.4349684  79.9164551  13.5369203   7.0949584
  81.1850183  13.0545709   7.7650869  33.9927538   6.1189935   3.6216819
  34.2802863   5.2840230   3.9909810  34.4494199   6.1797234   2.7826351
  73.8096783  41.9299270  56.5199165  73.9481519  42.8401138  56.2579469
  72.9158614  41.9124843  56.8619959  18.6168320  40.7942916  65.3623692
  18.2198221  41.4239455  65.9641544  18.6830504  39.9860049  65.8708153
  52.0762474  34.0757610  66.7780386  51.2115223  34.0290071  67.1858392
  52.6317532  33.5260822  67.3307572  38.3921038   9.6421811  18.4251583
  39.0958803   9.7724435  17.7895772  37.9114281   8.8819024  18.0978048
  48.1902879   8.5745141  23.8941431  47.8033512   7.7113625  23.7475610
  49.1347402   8.4223077  23.8613462  66.5650511  46.2981033   3.0550021
  66.5417004  45.8343172   2.2179899  66.1482430  45.6977844   3.6731651
  46.2537842  25.0465962   1.9467565  46.0571592  24.9596879   1.0140087
  47.0936137  24.6007726   2.0570463  75.2286170  52.7859260  44.0956799
  75.4193566  53.0180408  45.0045125  76.0806332  52.5605727  43.7221615
  70.3513496  18.3223245  36.6643476  69.5687740  18.3413789  37.2152090
  70.0872343  18.7647244  35.8576488  23.2650042  66.1909771   9.8875660
  23.3827186  65.4343081  10.4618704  23.8284206  66.8671703  10.2638030
   7.8940827  46.2914658  16.1358595   8.3306932  45.7025862  16.7513442
   7.1320617  46.6167641  16.6151679  22.0877528  71.1351013  26.8886375
  22.5464034  70.5404806  26.2950921  21.1683965  70.8767462  26.8233013
  30.9030652  69.2208052   3.9244109  31.6345882  69.0940189   4.5285892
  31.1473227  68.7223291   3.1446087  43.3912403  20.8697845  66.2789844
  43.1249888  21.3882638  65.5196915  42.6892550  21.0006334  66.9164250
  58.7125254  75.0330162   7.2118944  58.7482357  74.7588205   8.1282860
  59.0852451  74.2967510   6.7268938  69.4304895  66.8561745  35.2063847
  69.6788025  67.1895647  34.3441653  70.0156593  67.3070002  35.8151245
  30.9183049  49.9052668  18.5615230  31.2913990  50.6876755  18.9675605
  30.1776195  49.6744823  19.1221941   3.9961202  41.2845470  53.6007003
   3.2345826  41.0970165  54.1494493   4.3620188  42.0900966  53.9659790
  68.8245533  29.3727494  52.1270160  69.5325909  29.7614385  52.6406626
  69.2710207  28.8570787  51.4554612  30.1719751  26.2038896   0.9169853
  31.0023584  25.8552644   1.2412472  29.8926725  26.8233201   1.5911797
  43.2190132  71.1768436  19.9024570  43.4730196  72.0977688  19.8423731
  42.8529596  70.9727144  19.0418947   9.5576006  55.9009790  12.0990443
   9.7193557  56.2728167  12.9661119  10.4276478  55.6785965  11.7676902
  37.1096932  30.3567025   7.2419232  36.3669347  30.7873818   6.8187714
  37.4061995  29.7082707   6.6032904  22.7676279  24.4848396  68.3637227
  22.3512489  24.5935775  67.5087152  22.5642187  23.5842754  68.6163895
  12.1685583  48.2199813  58.8609056  12.1869785  48.4722091  59.7840933
  12.3720390  47.2846652  58.8640479  53.1088669  39.6756412  69.1257129
  53.9902813  39.3075706  69.1878675  52.8056652  39.4250728  68.2530637
   5.7526344  68.3545923  28.2202125   5.7941401  67.9156303  29.0698147
   6.5958470  68.1625080  27.8099322  63.2601588  78.7992005  56.7874889
  63.8224595  79.3654947  56.2589423  63.6200969  78.8626627  57.6721637
  53.3160925  49.7902775  45.4898643  53.9193869  50.0406551  44.7901678
  53.6706209  50.2103233  46.2735128  14.1064253   1.3998124   1.2148782
  13.2931223   1.7482850   0.8497243  14.7853794   1.6864964   0.6040882
  26.9748385  56.4141990  61.3396923  27.0342428  55.4619266  61.4164762
  26.0497458  56.5828086  61.1607949  74.0952682  65.3884840  21.7843628
  74.5481443  65.7749319  22.5338912  74.5567989  65.7352495  21.0208368
  50.8531380  82.5804329  21.9330454  51.7684126  82.8601933  21.9176221
  50.7574701  82.1199036  22.7667069   3.8174381   1.2635419  13.5196352
   3.9085664   1.7076108  12.6765847   2.9792156   0.8052728  13.4595811
  31.7670202  47.9530382  13.7869942  31.7329550  48.7015295  14.3826711
  30.9781504  47.4499846  13.9891124  54.5103979  61.0493994  14.9521506
  55.1613474  60.8297825  14.2856193  53.7646723  61.3875675  14.4563973
  47.3601327   6.0763503  52.8188495  47.2472105   7.0121099  52.9856996
  47.5435851   6.0207034  51.8810431   9.8773248  14.1902591  55.6990401
  10.3870136  13.4412433  56.0079543   9.3083794  14.4130708  56.4358501
  51.5549240  42.4220802  60.5936972  51.9932912  42.4817706  59.7448723
  51.6924916  41.5163566  60.8711354  28.0597615  44.6606874  11.1837888
  27.4279451  43.9629889  11.0098374  28.8974500  44.2072105  11.2779689
  33.2586408   8.4813982  16.7998552  32.3558140   8.5945451  16.5026414
  33.1778240   8.2192189  17.7168953  37.8676343  59.4917011  24.7070456
  36.9130683  59.5379066  24.6531582  38.1085253  60.2012014  25.3027081
  79.6450322  64.2890863  65.5012153  80.5134671  64.3692140  65.8957241
  79.8124592  63.9583449  64.6187125  40.3897793  26.7201139  67.6555402
  40.2763064  26.0477353  66.9837768  41.3038666  26.6358234  67.9267819
  42.5965309  32.6686907   2.1043931  42.9041243  32.6149058   1.1995583
  41.8471432  33.2630849   2.0676853  28.6991072  49.4479227  29.6356916
  28.7302160  49.6250820  30.5758381  28.3435464  50.2497816  29.2525005
  82.1273606  80.4744176  69.1699133  83.0129521  80.8232431  69.2712889
  82.2036211  79.5523052  69.4151215  68.8286648  19.2726995  56.7424361
  69.0789554  19.7041703  55.9254782  67.8799520  19.1646529  56.6753427
  40.7315159  74.2609978  13.2677102  40.2294970  74.0673733  12.4760556
  41.6453648  74.1527939  13.0042660  57.0336808   2.5775481  67.6756043
  56.4376892   3.2764674  67.9449354  57.7975928   2.6823808  68.2427735
  29.8185945  20.9052157   8.0727619  29.8452234  21.1789441   8.9896017
  29.6147943  21.7059708   7.5895554  31.2613654  45.7747126  26.7947578
  31.7715263  45.3153849  27.4618292  31.6815472  45.5392218  25.9675789
  25.7637548  65.9239912  36.7700863  26.6382456  65.8508825  36.3877869
  25.9075236  66.3433361  37.6184440  77.3572104  53.2483832  71.7001269
  76.4195578  53.3311669  71.8738883  77.7624361  53.9217190  72.2466086
  27.4608254  51.6893911  -0.0490634  27.2831750  51.7725372   0.8878244
  28.1539392  51.0315037  -0.1039549   8.2872212  26.6261578  12.2226012
   7.6251346  26.3925815  11.5719736   7.9397529  26.2906575  13.0490017
  43.9069891  33.2390642  27.9684854  44.3903828  33.5256529  27.1936107
  43.2587957  33.9280248  28.1148028  25.3844118  79.7154760  18.1031883
  25.2779770  80.4042530  18.7593019  24.9139714  78.9647436  18.4655619
  40.1724529  48.5606194  33.5654354  39.4411373  48.7883997  34.1394782
  40.7219553  49.3443108  33.5551357   3.1821787  67.0882607  15.1995051
   3.9939463  67.5945187  15.1683283   2.7121940  67.4356985  15.9575522
   0.4772079  76.1505842   3.9756459   0.7387342  75.8273983   3.1134462
   1.2587680  76.0451746   4.5181260  21.3799633  69.9468879  67.1502922
  20.6299223  70.3212861  67.6123462  21.5461888  70.5557136  66.4306156
  81.8632739  81.4431242  62.7392058  80.9616702  81.7549757  62.8172289
  82.3668807  82.0203547  63.3131574  64.1651661  16.3557531  38.1808345
  64.0277798  16.7631913  39.0360252  63.4440262  16.6810085  37.6419441
   8.2021863   7.4945499  51.3966076   8.3750875   6.5717603  51.2100713
   7.8205115   7.8350354  50.5875174  55.7152874   8.0469943  44.4041316
  55.2470905   8.8788081  44.3326275  56.3630707   8.1952144  45.0930778
   8.3393254  74.5861391  41.3968150   7.8361716  74.3052654  42.1611301
   9.2331280  74.2957525  41.5785448  88.2186653  48.5106277  20.6891203
  87.4261812  48.3565855  20.1748514  88.6081329  49.2937469  20.3001809
  86.6592942   5.1160337  56.9028668  86.0369859   5.1555778  57.6290898
  86.5949974   5.9749509  56.4853088  42.7035427  79.3779850  45.2696943
  43.0513906  78.5848522  44.8620510  41.7984581  79.1571617  45.4894352
  33.9780331  51.7304230  10.8201289  33.2875085  51.2879992  10.3265011
  33.8347316  51.4602661  11.7271638  85.1622665  37.4196482  14.4530630
  85.9532808  37.8358006  14.1105080  84.9817172  36.7071748  13.8398635
  82.7014368   4.5632836  13.4166586  83.6452930   4.4042584  13.4252787
  82.3310726   3.8336656  13.9133739  60.1598740  36.5847754  15.9657001
  59.5476675  36.2924123  16.6409481  60.9389782  36.0448480  16.0987735
  63.0847018  20.8621213   0.9312561  63.9571779  20.4713819   0.9795861
  63.2034891  21.6481397   0.3980583   3.8991959  62.2859028   1.2886277
   3.7130792  63.1442371   0.9080294   3.8204701  62.4204996   2.2330417
  41.0905153   8.5968686  67.7836503  41.4284737   8.0170299  67.1011512
  41.6476662   9.3737174  67.7354587  33.4120083  63.6034918   5.0310689
  32.7424145  63.6919785   5.7093352  33.0114818  63.0370665   4.3715450
  27.1600747  36.1499548   1.8887319  26.4148402  36.4148831   1.3495952
  27.4912643  35.3572464   1.4666435  64.9137322  46.5290023  57.3751490
  65.8019082  46.5229560  57.7319948  64.3568168  46.7469836  58.1225197
  79.4804917   6.1774112  48.8019673  80.3206907   6.2644340  49.2522184
  79.4723783   6.8955184  48.1691305  13.1615860  14.3268348  59.5527152
  12.2616512  14.3007518  59.2276434  13.6849434  14.5714046  58.7894885
  39.4176023  71.2284569  68.3832334  39.2966013  71.0622315  67.4483753
  39.5644312  70.3623728  68.7634618  57.8268749  31.4738704  61.5518956
  57.4417908  32.3498870  61.5287260  58.3760578  31.4743139  62.3358796
  59.3174267  72.7577066  42.3200655  59.2386436  73.7052441  42.4305344
  59.4739914  72.6379728  41.3833761  18.7735207   6.3541604  48.8499300
  18.6845381   5.8282567  49.6447532  19.5282538   5.9779645  48.3970706
  10.9282953  40.7418014  44.6998159  10.2694995  40.4513980  44.0690295
  10.4224617  41.1395885  45.4084246  84.4763670  36.6372491  58.7855915
  84.4318805  35.6828929  58.7267558  84.0385852  36.9467689  57.9926364
  81.0933910  55.2065994  67.2215594  81.6679297  55.8972884  67.5518547
  80.2237044  55.4443790  67.5430263  85.6225262  19.6768714  67.8238292
  85.6108198  18.7600900  67.5488548  85.3717575  20.1653148  67.0397578
  22.2632813  78.9305735  11.0437512  21.4932656  79.3216705  11.4564872
  21.9409323  78.1153584  10.6593716  69.4426441  69.1302586  22.0181251
  69.9282694  69.6976757  21.4194274  68.7423515  68.7591934  21.4813447
   0.6645615  71.3416710  23.3197689   1.2356264  71.9076696  22.8003836
   1.2652475  70.8063629  23.8382816  23.1628401  13.0826522  47.9319279
  22.6936848  13.8324834  47.5660412  23.4541685  13.3798028  48.7939374
  76.8592167  18.4342170   9.8100013  76.8934917  19.3123388  10.1894200
  76.6879511  17.8579748  10.5548799  59.0459490  30.7848740   4.1225287
  59.9491072  30.9277010   4.4056118  58.5130739  31.1641097   4.8214242
  80.1402634   6.3939855  10.7801139  79.6546429   5.7743356  10.2356553
  79.6995561   7.2321317  10.6403816  39.5151401  69.6792412  36.1062050
  39.5641780  68.7572098  35.8538532  38.9585781  69.6851540  36.8849444
  14.8535980  58.0891363  59.2632071  14.4136490  58.9297609  59.1366140
  15.5565895  58.0864958  58.6135690  67.5919454  51.5838866  49.3100659
  68.3415549  51.3400213  49.8530619  67.2865336  52.4116508  49.6812288
  70.9011309  61.1759655  64.7418068  70.6534951  61.7967443  65.4270391
  70.3280966  61.3905696  64.0057294  22.0727277  62.9371977   8.9491743
  22.6448202  62.7374792   9.6901554  22.6663876  63.2454967   8.2645202
  77.2867093  57.4676467  59.7295455  77.9895041  56.8757964  59.4611589
  76.8599735  57.0176364  60.4586689  44.2021077  10.7305619  19.1884911
  43.2995217  10.6375310  19.4933093  44.1209870  10.9176156  18.2532585
  28.0939460  44.6408367   8.2082450  27.6274109  43.9513397   8.6806589
  28.0191469  45.4104900   8.7724000  21.9600248  74.4636202   0.6742487
  22.6712275  73.8229752   0.6752249  21.3742733  74.1701508  -0.0236085
   4.0177543  37.0420505  61.4338796   4.9583060  36.9370128  61.5772704
   3.9114935  37.9664041  61.2091379  77.3467849   4.4947101  59.3610184
  76.8786190   4.6574784  58.5421411  77.8150592   3.6736346  59.2100636
  27.6105785  48.4789848  41.2879801  26.7576313  48.1193829  41.0442591
  27.4746013  48.8474274  42.1609020   4.9053469   7.9269004  11.7495859
   5.1057887   7.0524406  11.4158583   5.6323808   8.4711391  11.4471662
  14.4359429   7.9009343  68.2205839  13.9446814   7.1153070  67.9804007
  14.5206673   7.8487207  69.1725965  20.5271983  27.6045537  36.2961340
  20.9111595  28.4612155  36.1092186  19.6023870  27.7875900  36.4618206
  11.2521529  54.7378969  26.1776423  11.3466132  54.3695450  25.2992201
  10.4248095  55.2183819  26.1481810  79.7939072  26.6060544  44.0261022
  79.5882688  26.6873265  44.9574129  78.9604030  26.7625190  43.5822360
  37.0773482  48.2300043  25.0531030  36.5141058  47.5611687  25.4425287
  37.9667473  47.9489660  25.2680826  33.2828903  64.2329502  16.0860121
  34.1294312  64.4861984  16.4540660  33.0436158  63.4371328  16.5610373
  73.6145632  73.1745247  61.3470451  74.4283049  73.6785416  61.3519291
  73.1244032  73.5037236  62.1004383  67.5527399  80.2830748  66.8597410
  67.5208847  80.8113508  67.6573251  68.4561198  79.9696712  66.8159596
   2.3464305   7.2865678  51.8261687   3.2549698   7.5876285  51.8139998
   2.0106847   7.5726033  52.6756923   1.9514949  30.9154178  68.6437164
   2.6396615  30.2538348  68.5732488   1.6334231  30.8353139  69.5429633
  62.1613924   5.2388478  45.9283749  62.3304857   5.0005914  45.0168530
  62.7503330   5.9743644  46.0968868  54.8517673  62.5410442  63.0461095
  55.4763310  61.8191032  62.9757277  55.3685515  63.2728175  63.3832644
  42.8705628  26.2114574  49.0961067  43.4092171  26.7809631  49.6454255
  42.2696240  26.8079234  48.6496417  69.6899579  41.1656429  48.1226842
  69.3711982  40.4680396  48.6953751  70.4583941  40.7902385  47.6927893
  63.3500321  26.7905713  49.5529811  63.0595810  25.8805324  49.6137897
  64.0237648  26.8725682  50.2279584  50.2537870  61.8373871   5.9318030
  49.7134352  61.6529703   6.7000741  50.1865959  61.0468102   5.3963602
  76.7068522  78.0418925  45.7433216  76.2212841  77.5625018  46.4146201
  76.0318224  78.4893898  45.2331082  11.7154820  58.0238200  56.5781013
  11.1880428  58.8206245  56.5220765  12.5688059  58.2761432  56.2253932
  53.7065754   8.8183833  69.1512628  54.0941522   9.6099378  68.7778221
  52.7660129   8.9207746  69.0060366  72.7643967   6.9972557  22.6440978
  72.6438427   6.6960990  23.5446548  73.6153460   6.6435939  22.3851681
  14.8945315  57.0201923  69.0852289  14.3221695  57.1710826  69.8374714
  14.4715864  56.3111354  68.6008842  67.3444693  12.3517796  26.4661622
  67.6641815  12.4670693  25.5713296  67.4963467  11.4262483  26.6573858
  54.3223493  81.2855272  57.4163942  53.5169523  81.7650561  57.6103489
  54.9677508  81.9671587  57.2291438  61.1559408  67.3396544  56.2934045
  60.7774274  67.9533986  55.6639008  60.3994744  66.9243244  56.7075197
  35.1503205  52.1518707  40.9864283  34.9576521  52.8954744  40.4153252
  34.4643950  52.1781969  41.6535473  65.5755012  11.7156503  20.1675510
  64.7014683  11.6443250  20.5512309  65.4988687  11.2860677  19.3155992
  63.9456511  39.7182059   7.3471874  63.8073158  39.1306686   6.6042900
  63.4005642  39.3545103   8.0449277
  88.1470850  88.1470850  88.1470850 109.4712190 109.4712190 109.4712190
